INSANE! Membrane UpperLeaflet>loPI:POPI:DPPI:PYPI:ERGO=80.0:5.0:3.0:2.0:10.0 LowerLeaflet>PSPI:POPI:POPS:YOPS:POPE:YOPE:POPC:YOPC:ERGO=6.0:14.0:21.0:9.0:9.0:21.0:12.0:48.0:60.0
49377
    1loPI    C1    1  13.449  15.382   9.767  0.0884  0.2337  0.0111
    1loPI    C2    2  13.460  15.649  10.064 -0.0428  0.2482  0.0036
    1loPI    C3    3  13.522  15.261  10.141 -0.0330  0.2574  0.0431
    1loPI   PO4    4  13.562  15.528   9.527  0.2970 -0.0366  0.1462
    1loPI   GL1    5  13.634  15.509   9.133 -0.2197 -0.1172 -0.1492
    1loPI   GL2    6  13.869  15.391   9.130 -0.0743 -0.3483  0.0743
    1loPI   C1A    7  13.795  15.513   8.688  0.2043 -0.3811  0.1712
    1loPI   C2A    8  13.704  15.399   8.209  0.1060 -0.1524  0.0945
    1loPI   C3A    9  13.990  15.431   7.901 -0.2964 -0.1037  0.3001
    1loPI   C4A   10  14.340  15.553   7.682 -0.2865 -0.1393 -0.1570
    1loPI   C5A   11  14.660  15.723   7.394 -0.2963  0.0838 -0.2820
    1loPI   C6A   12  14.906  15.805   7.145  0.0796 -0.0897 -0.1594
    1loPI   C1B   13  14.167  15.142   8.839  0.1081 -0.1442 -0.0036
    1loPI   C2B   14  14.075  15.022   8.415  0.0031 -0.1558  0.0004
    1loPI   C3B   15  14.308  15.103   8.006  0.1905  0.0561 -0.0224
    1loPI   C4B   16  14.435  15.128   7.560  0.3260  0.1760  0.1718
    2loPI    C1   17  18.507  19.059   9.714  0.3621  0.3069  0.0637
    2loPI    C2   18  18.784  18.930   9.972  0.0961  0.0232  0.2151
    2loPI    C3   19  18.403  18.962  10.088 -0.0110 -0.0145 -0.1162
    2loPI   PO4   20  18.624  19.319   9.640 -0.0360 -0.0299  0.3883
    2loPI   GL1   21  18.655  19.565   9.264  0.0236 -0.1530 -0.0038
    2loPI   GL2   22  18.463  19.824   9.157  0.1638  0.3158  0.2404
    2loPI   C1A   23  18.985  19.651   8.983  0.0860 -0.1057 -0.1561
    2loPI   C2A   24  19.003  19.450   8.586  0.0424  0.1016  0.2661
    2loPI   C3A   25  18.992  19.342   8.270 -0.0536  0.3942 -0.0102
    2loPI   C4A   26  18.732  19.208   7.914  0.1063 -0.0663 -0.1789
    2loPI   C5A   27  18.693  19.186   7.467  0.0029  0.0582 -0.2290
    2loPI   C6A   28  18.787  19.510   7.179 -0.1959 -0.0368  0.1538
    2loPI   C1B   29  18.503  19.629   8.733 -0.1871  0.1447 -0.0433
    2loPI   C2B   30  18.505  19.634   8.246 -0.0854 -0.1616 -0.0858
    2loPI   C3B   31  18.520  19.747   7.771 -0.2678 -0.0348  0.0264
    2loPI   C4B   32  18.412  19.878   7.444 -0.3960  0.2101  0.2151
    3loPI    C1   33  15.149   4.220   9.837 -0.0820  0.1813  0.3289
    3loPI    C2   34  15.394   3.906   9.881 -0.1070  0.0923 -0.1223
    3loPI    C3   35  15.252   4.096  10.203  0.1062 -0.2034  0.1515
    3loPI   PO4   36  15.243   4.259   9.499 -0.1029  0.1440 -0.6099
    3loPI   GL1   37  15.245   4.473   9.012  0.3027 -0.0564  0.1957
    3loPI   GL2   38  15.505   4.411   9.138 -0.3170  0.0162  0.2926
    3loPI   C1A   39  15.057   4.298   8.593  0.2550  0.1264  0.0411
    3loPI   C2A   40  14.985   4.493   8.182  0.1324  0.0159 -0.0651
    3loPI   C3A   41  14.840   4.493   7.764  0.3372  0.1296  0.1892
    3loPI   C4A   42  14.999   4.678   7.335 -0.0083  0.1159  0.1394
    3loPI   C5A   43  15.348   4.661   7.232 -0.0843  0.4978 -0.1803
    3loPI   C6A   44  15.770   4.423   7.253  0.3097  0.1222 -0.0382
    3loPI   C1B   45  15.684   4.212   8.831 -0.0051 -0.1483 -0.0724
    3loPI   C2B   46  15.905   4.245   8.357  0.2558 -0.1999 -0.0790
    3loPI   C3B   47  15.825   4.494   7.979 -0.1851  0.2071  0.0354
    3loPI   C4B   48  15.675   4.892   7.983  0.2399  0.2538 -0.0237
    4loPI    C1   49  17.085   6.150   9.597  0.2855 -0.0415 -0.1470
    4loPI    C2   50  17.446   6.189   9.765  0.2568 -0.2106 -0.0434
    4loPI    C3   51  17.126   6.114   9.993  0.1273  0.1019 -0.1161
    4loPI   PO4   52  17.084   6.316   9.415  0.4033 -0.0393 -0.0627
    4loPI   GL1   53  17.180   6.468   8.970 -0.1008  0.0009 -0.1560
    4loPI   GL2   54  16.814   6.571   9.059 -0.0004 -0.3742  0.1275
    4loPI   C1A   55  17.065   6.296   8.596  0.1319  0.0913  0.1160
    4loPI   C2A   56  16.959   5.877   8.406 -0.3842 -0.1716  0.2036
    4loPI   C3A   57  16.913   5.712   7.908 -0.5733 -0.3437 -0.0788
    4loPI   C4A   58  17.039   5.522   7.547  0.1062  0.2393 -0.0136
    4loPI   C5A   59  16.912   5.343   7.129  0.3985  0.0300 -0.0426
    4loPI   C6A   60  17.178   5.234   6.756 -0.1147  0.2967 -0.0321
    4loPI   C1B   61  16.617   6.630   8.676  0.5211  0.1226  0.3015
    4loPI   C2B   62  16.723   6.483   8.212 -0.0020 -0.2270 -0.0501
    4loPI   C3B   63  16.723   6.508   7.765  0.0508 -0.3377 -0.0712
    4loPI   C4B   64  16.494   6.552   7.399 -0.0049 -0.1115 -0.0759
    5loPI    C1   65  11.854  12.312   9.517  0.0935  0.0439  0.1348
    5loPI    C2   66  11.977  12.513   9.840  0.1171 -0.0851  0.2067
    5loPI    C3   67  12.217  12.242   9.669  0.1028 -0.0208  0.0833
    5loPI   PO4   68  11.726  12.477   9.242 -0.0419 -0.0593 -0.0233
    5loPI   GL1   69  11.865  12.545   8.877 -0.2524  0.0017  0.1625
    5loPI   GL2   70  12.190  12.615   8.797 -0.1422  0.2792  0.1691
    5loPI   C1A   71  11.735  12.514   8.559 -0.2630  0.0234 -0.0470
    5loPI   C2A   72  11.681  12.632   8.154 -0.3770 -0.1026  0.1346
    5loPI   C3A   73  11.449  12.604   7.855  0.0051 -0.1392  0.2464
    5loPI   C4A   74  11.602  12.675   7.440 -0.1563  0.0283 -0.0247
    5loPI   C5A   75  11.896  12.568   7.179  0.1584  0.0285  0.0073
    5loPI   C6A   76  12.140  12.578   6.800 -0.1091 -0.0181  0.0039
    5loPI   C1B   77  12.154  12.605   8.363 -0.0537  0.2643 -0.4689
    5loPI   C2B   78  12.109  12.505   8.002 -0.3022  0.4701  0.0750
    5loPI   C3B   79  11.994  12.418   7.651 -0.0045  0.4487  0.1074
    5loPI   C4B   80  12.035  12.120   7.314 -0.0436 -0.1224  0.1059
    6loPI    C1   81  12.703   2.885  10.169  0.0162 -0.0756  0.0301
    6loPI    C2   82  13.097   2.838  10.119  0.0345  0.1271 -0.0272
    6loPI    C3   83  12.957   3.014  10.449 -0.0275 -0.2307  0.1425
    6loPI   PO4   84  12.549   3.068   9.934 -0.0040  0.5324 -0.2590
    6loPI   GL1   85  12.247   2.941   9.606  0.0973 -0.1691 -0.0707
    6loPI   GL2   86  12.478   3.086   9.459 -0.2376 -0.0610 -0.3233
    6loPI   C1A   87  12.063   2.864   9.294  0.3295  0.1288  0.2538
    6loPI   C2A   88  12.091   2.525   9.023 -0.1094 -0.2546  0.2053
    6loPI   C3A   89  12.085   2.443   8.567 -0.2257 -0.0221  0.1988
    6loPI   C4A   90  11.910   2.395   8.162 -0.1708 -0.0165  0.0124
    6loPI   C5A   91  11.605   2.238   7.802 -0.1750  0.0454 -0.3650
    6loPI   C6A   92  11.321   2.026   7.588  0.1216  0.0662 -0.0697
    6loPI   C1B   93  12.418   2.959   8.953  0.0871 -0.0676 -0.2663
    6loPI   C2B   94  12.022   2.949   8.669  0.1001 -0.2780 -0.2091
    6loPI   C3B   95  11.701   2.807   8.338 -0.5240  0.0861  0.2274
    6loPI   C4B   96  11.332   2.719   7.986  0.0971  0.1946  0.1993
    7loPI    C1   97  15.233  18.548   9.719 -0.0649  0.3640 -0.0818
    7loPI    C2   98  15.621  18.473   9.785 -0.0812  0.2326 -0.1334
    7loPI    C3   99  15.476  18.841   9.843  0.0340  0.2628 -0.0340
    7loPI   PO4  100  15.172  18.319   9.508  0.2242 -0.3023 -0.0489
    7loPI   GL1  101  14.836  18.206   9.278  0.0967  0.2019 -0.0503
    7loPI   GL2  102  15.048  17.986   9.110  0.1674  0.3276  0.3629
    7loPI   C1A  103  14.801  18.438   8.885 -0.1181  0.0565 -0.1917
    7loPI   C2A  104  14.909  18.561   8.495  0.2402 -0.0213 -0.0773
    7loPI   C3A  105  14.828  18.757   8.190 -0.0553  0.0334  0.0981
    7loPI   C4A  106  14.863  18.813   7.782 -0.1532 -0.0845  0.0710
    7loPI   C5A  107  14.768  18.772   7.368 -0.3578  0.4176  0.0371
    7loPI   C6A  108  14.966  18.756   6.966  0.0820  0.3316  0.3263
    7loPI   C1B  109  14.916  17.972   8.664  0.4335  0.0971  0.0344
    7loPI   C2B  110  14.985  17.967   8.262 -0.0494  0.0277 -0.0936
    7loPI   C3B  111  15.000  17.928   7.716 -0.1514  0.3467 -0.2376
    7loPI   C4B  112  14.833  18.282   7.453  0.0186 -0.1842  0.1871
    8loPI    C1  113  13.085   9.561   9.688 -0.0459  0.0223  0.0799
    8loPI    C2  114  13.311   9.336   9.930 -0.2241 -0.2341  0.0119
    8loPI    C3  115  12.916   9.358   9.988 -0.1857  0.2265  0.1417
    8loPI   PO4  116  13.187   9.461   9.398 -0.0119  0.0282 -0.1315
    8loPI   GL1  117  13.233   9.290   9.026  0.1535  0.3011  0.1554
    8loPI   GL2  118  12.927   9.186   8.875  0.2868  0.0389 -0.0824
    8loPI   C1A  119  13.217   9.511   8.611 -0.0621 -0.2800 -0.0008
    8loPI   C2A  120  13.295   9.376   8.169 -0.2042  0.2107  0.1087
    8loPI   C3A  121  13.228   9.194   7.726 -0.0945  0.0674 -0.1153
    8loPI   C4A  122  13.101   9.237   7.235  0.0005  0.0335  0.2694
    8loPI   C5A  123  13.245   9.296   6.878  0.1565 -0.0015  0.1200
    8loPI   C6A  124  13.250   9.261   6.408  0.1463 -0.2047 -0.0640
    8loPI   C1B  125  12.805   9.383   8.429  0.1335  0.0314  0.1915
    8loPI   C2B  126  12.795   9.364   7.977 -0.0973 -0.0840 -0.0920
    8loPI   C3B  127  12.640   9.240   7.576 -0.2962 -0.1570  0.0917
    8loPI   C4B  128  12.517   9.139   7.176 -0.0889 -0.1964  0.0322
    9loPI    C1  129   4.983   4.480   9.588  0.0851 -0.0843 -0.0957
    9loPI    C2  130   5.176   4.795   9.741 -0.1306  0.1354 -0.2666
    9loPI    C3  131   4.971   4.550   9.982  0.1044  0.0760 -0.1227
    9loPI   PO4  132   5.061   4.333   9.300 -0.1489 -0.1147  0.0367
    9loPI   GL1  133   5.184   4.216   8.972 -0.0549 -0.0657 -0.0086
    9loPI   GL2  134   5.414   4.369   8.843 -0.0950 -0.0155  0.0663
    9loPI   C1A  135   5.026   4.228   8.554  0.4857  0.4260  0.2448
    9loPI   C2A  136   4.750   4.448   8.196 -0.1707 -0.0043  0.0267
    9loPI   C3A  137   4.354   4.465   8.007 -0.1538 -0.1077  0.0484
    9loPI   C4A  138   4.127   4.419   7.622  0.1550  0.2117 -0.2623
    9loPI   C5A  139   4.211   4.405   7.127  0.2489  0.0378  0.2410
    9loPI   C6A  140   4.557   4.380   6.841 -0.1288 -0.3733  0.1858
    9loPI   C1B  141   5.510   4.526   8.392 -0.4815 -0.3955  0.1013
    9loPI   C2B  142   5.654   4.696   7.983 -0.2209 -0.1896  0.0701
    9loPI   C3B  143   5.643   4.661   7.568 -0.0976  0.0692 -0.1046
    9loPI   C4B  144   5.562   4.460   7.245 -0.0216 -0.2317 -0.2969
   10loPI    C1  145   4.728  14.249  10.226 -0.1008 -0.1776  0.0688
   10loPI    C2  146   4.901  14.342   9.878 -0.1846 -0.3308 -0.0147
   10loPI    C3  147   5.107  14.141  10.156 -0.0442 -0.0135  0.1160
   10loPI   PO4  148   4.521  14.095  10.116 -0.2178 -0.1494  0.2122
   10loPI   GL1  149   4.412  14.026   9.715 -0.2239  0.2642  0.0971
   10loPI   GL2  150   4.562  14.285   9.579  0.0807 -0.2892  0.1794
   10loPI   C1A  151   4.143  13.909   9.363  0.0041 -0.1699 -0.1304
   10loPI   C2A  152   3.948  13.673   9.072  0.0575 -0.1548 -0.0161
   10loPI   C3A  153   3.588  13.540   8.894  0.1821 -0.4470 -0.2327
   10loPI   C4A  154   3.319  13.220   8.624  0.0026  0.0765  0.2655
   10loPI   C5A  155   3.446  13.069   8.257  0.2475  0.0871 -0.1506
   10loPI   C6A  156   3.485  13.058   7.830 -0.0931 -0.1799 -0.0670
   10loPI   C1B  157   4.594  13.979   9.170  0.0873 -0.2450  0.2009
   10loPI   C2B  158   4.820  13.839   8.858  0.1432  0.2563 -0.1344
   10loPI   C3B  159   5.064  13.744   8.531  0.2323  0.1382  0.4382
   10loPI   C4B  160   5.175  13.835   8.064 -0.0100 -0.0297  0.2548
   11loPI    C1  161   6.804  10.018   9.831 -0.2406  0.2834  0.0470
   11loPI    C2  162   6.583   9.772   9.605  0.0752 -0.0481  0.0900
   11loPI    C3  163   6.601   9.718  10.001 -0.1426  0.2735  0.1476
   11loPI   PO4  164   7.063  10.031   9.792  0.0183  0.0147  0.1479
   11loPI   GL1  165   7.201  10.147   9.314 -0.0233 -0.2336 -0.3414
   11loPI   GL2  166   7.355   9.979   9.038  0.1380 -0.1917  0.0363
   11loPI   C1A  167   6.896  10.172   8.984 -0.1309  0.1468 -0.1285
   11loPI   C2A  168   6.831  10.252   8.564 -0.1959 -0.3005 -0.2291
   11loPI   C3A  169   6.984  10.324   8.144 -0.0316  0.0751  0.2084
   11loPI   C4A  170   7.092  10.316   7.724  0.0477 -0.1248 -0.2623
   11loPI   C5A  171   7.442  10.246   7.454 -0.2939  0.4035  0.1597
   11loPI   C6A  172   7.856  10.255   7.325  0.0242 -0.1054  0.1200
   11loPI   C1B  173   7.265  10.059   8.673 -0.0217  0.0816  0.0644
   11loPI   C2B  174   7.362  10.063   8.301  0.0526 -0.0541 -0.1643
   11loPI   C3B  175   7.440  10.045   7.935 -0.1216  0.0205 -0.0014
   11loPI   C4B  176   7.325   9.751   7.682 -0.2902 -0.5506  0.0671
   12loPI    C1  177   0.702   9.231  10.320  0.1452 -0.2820  0.0219
   12loPI    C2  178   0.433   9.526  10.337  0.5393  0.0754  0.2624
   12loPI    C3  179   0.446   9.251  10.627  0.3275 -0.0438  0.1617
   12loPI   PO4  180   0.670   9.090  10.027  0.1032 -0.0465 -0.2080
   12loPI   GL1  181   0.726   9.127   9.599  0.2546 -0.2462 -0.0632
   12loPI   GL2  182   0.799   8.899   9.394 -0.2261 -0.3312  0.0487
   12loPI   C1A  183   0.752   9.448   9.188 -0.0923  0.1880 -0.1425
   12loPI   C2A  184   0.577   9.924   9.010  0.1301 -0.0553  0.1031
   12loPI   C3A  185   0.411  10.100   8.615 -0.0106  0.0576 -0.0487
   12loPI   C4A  186   0.502  10.032   8.258 -0.2674  0.0636  0.3336
   12loPI   C5A  187   0.452  10.291   7.776  0.0738  0.0590  0.1397
   12loPI   C6A  188   0.450  10.488   7.392  0.2400 -0.0944  0.5057
   12loPI   C1B  189   0.964   8.868   9.050  0.4205  0.0544 -0.2921
   12loPI   C2B  190   0.857   8.793   8.642 -0.1543 -0.3177 -0.0569
   12loPI   C3B  191   0.822   8.849   8.265  0.1216 -0.2645 -0.0437
   12loPI   C4B  192   0.842   8.818   7.846 -0.1013  0.3725  0.1582
   13loPI    C1  193   3.047  15.895   9.920 -0.0203 -0.1378  0.0611
   13loPI    C2  194   2.974  15.613   9.646  0.2067 -0.3454  0.2100
   13loPI    C3  195   2.784  15.604   9.998  0.1324 -0.2476  0.1728
   13loPI   PO4  196   3.046  16.070   9.817 -0.1286 -0.1843 -0.0751
   13loPI   GL1  197   3.283  16.130   9.426  0.0210  0.0517  0.3229
   13loPI   GL2  198   3.030  16.020   9.295 -0.0091  0.0474  0.2557
   13loPI   C1A  199   3.513  16.078   8.979  0.4277  0.1023  0.1715
   13loPI   C2A  200   3.565  16.132   8.562  0.2332  0.1093 -0.0133
   13loPI   C3A  201   3.694  16.221   8.109 -0.0470 -0.1217  0.0478
   13loPI   C4A  202   3.785  16.038   7.798 -0.2263  0.0230  0.2377
   13loPI   C5A  203   3.985  15.962   7.275  0.0081 -0.2116 -0.3009
   13loPI   C6A  204   4.335  15.768   7.141  0.1575  0.4304 -0.0192
   13loPI   C1B  205   2.724  16.158   8.953  0.3733 -0.0910 -0.0650
   13loPI   C2B  206   2.734  16.202   8.486 -0.0013  0.1406 -0.0284
   13loPI   C3B  207   2.814  16.261   8.072 -0.0983 -0.1723  0.1885
   13loPI   C4B  208   2.798  16.316   7.649  0.0915  0.0697 -0.0957
   14loPI    C1  209   4.367   6.288   9.472 -0.1717 -0.0648 -0.1862
   14loPI    C2  210   4.739   6.434   9.491 -0.1381 -0.1861  0.1820
   14loPI    C3  211   4.427   6.668   9.580 -0.1641 -0.0515 -0.2372
   14loPI   PO4  212   4.373   6.215   9.190  0.0233  0.3886 -0.0243
   14loPI   GL1  213   4.655   6.172   8.950 -0.2034  0.2548  0.5136
   14loPI   GL2  214   4.962   6.319   9.010  0.3228  0.0452 -0.0937
   14loPI   C1A  215   4.426   6.225   8.528 -0.1445 -0.0913  0.1331
   14loPI   C2A  216   4.432   6.231   8.001  0.0364 -0.1269  0.2098
   14loPI   C3A  217   4.663   6.197   7.585 -0.0398  0.1194 -0.2831
   14loPI   C4A  218   4.541   6.257   7.195 -0.2300 -0.0251  0.1746
   14loPI   C5A  219   4.393   6.049   6.840 -0.1735  0.0626  0.0479
   14loPI   C6A  220   4.296   5.576   6.864 -0.2414 -0.1309  0.2948
   14loPI   C1B  221   4.850   6.539   8.652 -0.3166 -0.4577 -0.1978
   14loPI   C2B  222   4.736   6.661   8.352 -0.0710  0.3137  0.0311
   14loPI   C3B  223   4.766   6.691   7.969  0.0545  0.1304  0.2940
   14loPI   C4B  224   4.530   6.733   7.638  0.0609  0.0879  0.1165
   15loPI    C1  225  12.434   3.969  10.047  0.0363  0.2398  0.0433
   15loPI    C2  226  12.580   3.599  10.094 -0.1168  0.1717 -0.0112
   15loPI    C3  227  12.625   3.870  10.385 -0.1051  0.0759  0.0771
   15loPI   PO4  228  12.238   3.940   9.870 -0.0137 -0.0065  0.1851
   15loPI   GL1  229  12.261   3.803   9.547  0.2829 -0.5280  0.1835
   15loPI   GL2  230  12.201   3.476   9.562 -0.0457  0.3572  0.1000
   15loPI   C1A  231  12.047   3.784   8.985  0.1639 -0.4686 -0.0416
   15loPI   C2A  232  11.962   3.894   8.584  0.6757 -0.2696  0.0203
   15loPI   C3A  233  11.747   3.832   8.222  0.4267  0.4223  0.0440
   15loPI   C4A  234  11.694   3.575   7.800 -0.1574 -0.1303 -0.1715
   15loPI   C5A  235  11.487   3.592   7.450  0.0322 -0.1330  0.2834
   15loPI   C6A  236  11.114   3.373   7.389  0.0683 -0.2045  0.1574
   15loPI   C1B  237  12.294   3.409   9.123 -0.4498 -0.0186  0.0922
   15loPI   C2B  238  12.116   3.461   8.607 -0.3255 -0.0322 -0.2339
   15loPI   C3B  239  11.997   3.374   8.197  0.1989 -0.1769  0.1786
   15loPI   C4B  240  11.784   3.034   7.915 -0.2215 -0.1212  0.2823
   16loPI    C1  241  16.566   5.015   9.341 -0.1304  0.0181 -0.1123
   16loPI    C2  242  16.848   5.206   9.131 -0.1183  0.0012 -0.1113
   16loPI    C3  243  16.717   5.360   9.476 -0.1096  0.0085 -0.1114
   16loPI   PO4  244  16.542   4.764   9.396  0.1459 -0.3380  0.1867
   16loPI   GL1  245  16.676   4.478   9.135  0.0805 -0.0676  0.1815
   16loPI   GL2  246  16.765   4.691   8.965 -0.2929  0.2063 -0.0552
   16loPI   C1A  247  16.621   4.305   8.743 -0.0302 -0.3507  0.1051
   16loPI   C2A  248  16.517   4.210   8.350  0.2465 -0.3056  0.3900
   16loPI   C3A  249  16.269   4.206   7.993  0.1725 -0.0658  0.0799
   16loPI   C4A  250  16.195   4.447   7.636  0.0089  0.4656  0.0781
   16loPI   C5A  251  16.179   4.705   7.283  0.2044  0.1484  0.0766
   16loPI   C6A  252  16.145   4.511   6.941 -0.1788  0.3101  0.0337
   16loPI   C1B  253  16.662   4.781   8.415  0.1015 -0.0743 -0.0084
   16loPI   C2B  254  16.729   4.640   7.931  0.0155 -0.1391 -0.0600
   16loPI   C3B  255  16.655   4.663   7.454 -0.1456 -0.0174 -0.0477
   16loPI   C4B  256  16.804   4.746   7.083 -0.2602 -0.0272  0.0390
   17loPI    C1  257  11.864  11.497   9.731  0.1066  0.0160  0.1229
   17loPI    C2  258  12.047  11.218   9.952 -0.0831 -0.1022  0.1328
   17loPI    C3  259  11.743  11.428  10.105 -0.2362 -0.2066 -0.0247
   17loPI   PO4  260  11.830  11.316   9.482 -0.2346 -0.0567 -0.1358
   17loPI   GL1  261  11.850  11.257   9.128  0.1257  0.0556 -0.1561
   17loPI   GL2  262  11.550  11.286   8.974 -0.0092 -0.0896  0.2625
   17loPI   C1A  263  11.936  11.018   8.775  0.0267  0.0382  0.1038
   17loPI   C2A  264  12.214  10.894   8.504  0.1295  0.0677  0.0302
   17loPI   C3A  265  12.300  10.782   8.054 -0.0700 -0.3510 -0.0503
   17loPI   C4A  266  12.254  10.540   7.721  0.2300  0.2262  0.0344
   17loPI   C5A  267  12.057  10.406   7.316  0.1946 -0.0496  0.0631
   17loPI   C6A  268  11.811  10.256   6.988  0.0504 -0.0890  0.1250
   17loPI   C1B  269  11.507  11.151   8.495  0.2685  0.0983  0.1149
   17loPI   C2B  270  11.418  11.143   8.060  0.3499  0.1029 -0.1101
   17loPI   C3B  271  11.588  11.272   7.646  0.1933  0.0984 -0.0446
   17loPI   C4B  272  11.477  11.230   7.169 -0.0438 -0.5995 -0.0435
   18loPI    C1  273  12.588   1.270  10.164  0.0035 -0.1173  0.1033
   18loPI    C2  274  12.430   1.631  10.095 -0.0613 -0.1872 -0.1212
   18loPI    C3  275  12.768   1.598  10.305 -0.1005 -0.0026 -0.0272
   18loPI   PO4  276  12.583   1.171   9.931 -0.0316  0.1038 -0.1032
   18loPI   GL1  277  12.778   1.300   9.557 -0.2320  0.1535  0.3523
   18loPI   GL2  278  12.624   1.589   9.638 -0.0245 -0.1763  0.1926
   18loPI   C1A  279  12.866   1.293   9.131 -0.2113 -0.2266 -0.1901
   18loPI   C2A  280  12.853   1.274   8.737 -0.3813  0.0040  0.0644
   18loPI   C3A  281  12.896   1.229   8.325  0.1370 -0.0826  0.0710
   18loPI   C4A  282  12.881   1.359   7.999 -0.0527 -0.2287  0.0124
   18loPI   C5A  283  12.707   1.276   7.681  0.0757 -0.1963  0.3532
   18loPI   C6A  284  12.392   1.038   7.516 -0.1546  0.2157  0.2171
   18loPI   C1B  285  12.702   1.733   9.330  0.2831 -0.2755  0.0829
   18loPI   C2B  286  12.498   1.623   8.900 -0.0738 -0.1702  0.0586
   18loPI   C3B  287  12.091   1.517   8.784 -0.3753 -0.2115  0.0635
   18loPI   C4B  288  11.912   1.052   8.724  0.2072  0.0621  0.0899
   19loPI    C1  289  13.113  10.688   9.946 -0.1515 -0.0602 -0.0212
   19loPI    C2  290  12.896  10.371  10.057 -0.0858 -0.0006  0.2872
   19loPI    C3  291  13.118  10.565  10.327  0.1237  0.1164  0.0348
   19loPI   PO4  292  13.146  10.523   9.640 -0.3342 -0.0001 -0.3326
   19loPI   GL1  293  13.120  10.518   9.200 -0.0119 -0.1571  0.2370
   19loPI   GL2  294  13.323  10.284   9.131  0.0474  0.0940  0.1795
   19loPI   C1A  295  12.945  10.463   8.673  0.2917 -0.1220  0.2893
   19loPI   C2A  296  13.041  10.436   8.235 -0.2309  0.0771  0.0730
   19loPI   C3A  297  13.123  10.302   7.807  0.1789 -0.0351  0.1966
   19loPI   C4A  298  13.007  10.276   7.378 -0.1198  0.0879 -0.0299
   19loPI   C5A  299  13.241  10.400   7.055  0.1321  0.3257  0.2363
   19loPI   C6A  300  13.238  10.753   6.781  0.0071  0.0629 -0.2671
   19loPI   C1B  301  13.643  10.218   8.916  0.1086  0.0900  0.0151
   19loPI   C2B  302  13.769  10.088   8.532 -0.3598 -0.0612 -0.0512
   19loPI   C3B  303  13.646   9.788   8.159  0.3366  0.0225 -0.2567
   19loPI   C4B  304  13.491   9.867   7.721  0.0016 -0.1731  0.0644
   20loPI    C1  305  14.502   0.439   9.603 -0.0473 -0.1000  0.0281
   20loPI    C2  306  14.566   0.367   9.991  0.0293  0.1901  0.0715
   20loPI    C3  307  14.199   0.326   9.838  0.0340 -0.1018  0.1329
   20loPI   PO4  308  14.568   0.660   9.547 -0.0624  0.2932 -0.0918
   20loPI   GL1  309  14.390   0.836   9.201  0.0452  0.0950 -0.1408
   20loPI   GL2  310  14.680   0.664   8.996  0.1398  0.1675 -0.1797
   20loPI   C1A  311  14.186   0.885   8.737 -0.3294 -0.1783  0.1857
   20loPI   C2A  312  14.183   0.845   8.288 -0.0592  0.0612 -0.2521
   20loPI   C3A  313  14.134   0.670   7.899 -0.0750 -0.3328  0.1689
   20loPI   C4A  314  14.065   0.819   7.511  0.1579 -0.0780 -0.0923
   20loPI   C5A  315  14.099   1.115   7.236 -0.2253 -0.0242 -0.2326
   20loPI   C6A  316  14.227   1.607   7.286  0.1220  0.3684 -0.0329
   20loPI   C1B  317  14.586   0.645   8.622  0.4071 -0.0130 -0.0466
   20loPI   C2B  318  14.631   0.770   8.173 -0.0758  0.3640 -0.1510
   20loPI   C3B  319  14.656   0.937   7.668  0.3619 -0.1984 -0.3195
   20loPI   C4B  320  14.669   1.053   7.155  0.1824 -0.3305  0.0803
   21loPI    C1  321   0.920   0.265   9.350 -0.4385  0.0067  0.1677
   21loPI    C2  322   0.894   0.480   9.686  0.2504  0.2051  0.1097
   21loPI    C3  323   1.104   0.140   9.683  0.1778  0.1611 -0.1023
   21loPI   PO4  324   0.619   0.279   9.276  0.1250 -0.0407 -0.1495
   21loPI   GL1  325   0.545   0.461   8.846 -0.0141  0.5326  0.1015
   21loPI   GL2  326   0.224   0.633   8.857  0.3656  0.0359  0.0737
   21loPI   C1A  327   0.529   0.481   8.398  0.1607 -0.3149  0.2286
   21loPI   C2A  328   0.628   0.535   7.932  0.0762 -0.4046  0.0329
   21loPI   C3A  329   0.678   0.360   7.526 -0.2716 -0.2374  0.2309
   21loPI   C4A  330   0.861   0.140   7.258 -0.0884  0.2494  0.1263
   21loPI   C5A  331   0.711   0.127   6.796  0.1062  0.1351  0.0890
   21loPI   C6A  332   0.429  -0.189   6.746  0.0970 -0.1368  0.0526
   21loPI   C1B  333   0.059   0.417   8.659  0.2907 -0.1483  0.4863
   21loPI   C2B  334   0.063   0.359   8.232 -0.0076 -0.1731  0.0919
   21loPI   C3B  335   0.155   0.418   7.796 -0.0326 -0.2613  0.0866
   21loPI   C4B  336   0.199   0.766   7.438 -0.0791  0.0879  0.0090
   22loPI    C1  337  19.283  14.688   9.736 -0.4334  0.2260 -0.0561
   22loPI    C2  338  19.489  15.026   9.797 -0.0911  0.0229 -0.0661
   22loPI    C3  339  19.257  14.878  10.087  0.1212  0.0212  0.1053
   22loPI   PO4  340  19.255  14.723   9.445 -0.0950 -0.1100 -0.0427
   22loPI   GL1  341  19.489  14.587   9.003 -0.1563  0.1871  0.0829
   22loPI   GL2  342  19.552  14.279   8.867 -0.2367 -0.1013  0.1348
   22loPI   C1A  343  19.165  14.567   8.691 -0.1587 -0.1664  0.3285
   22loPI   C2A  344  19.083  14.626   8.199  0.1339  0.1482  0.0207
   22loPI   C3A  345  19.118  14.514   7.760  0.0311 -0.3852 -0.1532
   22loPI   C4A  346  19.163  14.770   7.292 -0.3193  0.1854 -0.0560
   22loPI   C5A  347  18.789  14.770   6.947  0.0730 -0.0859  0.1789
   22loPI   C6A  348  18.432  14.857   6.877  0.1638 -0.0030 -0.0931
   22loPI   C1B  349  19.578  14.449   8.439  0.0022  0.0957 -0.3001
   22loPI   C2B  350  19.577  14.453   8.074  0.2083  0.1972  0.0230
   22loPI   C3B  351  19.570  14.542   7.630 -0.1120 -0.0585 -0.0150
   22loPI   C4B  352  19.985  14.500   7.451  0.3403  0.0100  0.0387
   23loPI    C1  353  17.597   1.024   9.625  0.1222 -0.0317 -0.0814
   23loPI    C2  354  17.206   0.993   9.544  0.1161 -0.0313 -0.0512
   23loPI    C3  355  17.415   0.668   9.651  0.1132 -0.0226 -0.0188
   23loPI   PO4  356  17.607   1.233   9.354  0.3726 -0.1695  0.0658
   23loPI   GL1  357  17.586   1.400   8.956 -0.1570 -0.0743  0.1179
   23loPI   GL2  358  17.332   1.614   8.922 -0.1434 -0.1950 -0.0184
   23loPI   C1A  359  17.793   1.507   8.534  0.2706 -0.0039 -0.3474
   23loPI   C2A  360  17.594   1.207   8.205 -0.0084 -0.2920 -0.1727
   23loPI   C3A  361  17.622   1.271   7.750 -0.2099  0.3378  0.1943
   23loPI   C4A  362  17.890   1.315   7.376 -0.2449 -0.3159  0.3402
   23loPI   C5A  363  18.113   0.990   7.222 -0.2610 -0.1204 -0.0429
   23loPI   C6A  364  18.504   1.027   7.114  0.0569 -0.2544 -0.1433
   23loPI   C1B  365  17.230   1.449   8.523  0.1032 -0.3056  0.1877
   23loPI   C2B  366  17.199   1.533   8.045  0.1310 -0.1453 -0.0069
   23loPI   C3B  367  17.195   1.446   7.585  0.2237  0.0890 -0.3411
   23loPI   C4B  368  17.124   1.835   7.262  0.0199 -0.1132 -0.0586
   24loPI    C1  369   3.957   7.467   9.465  0.0248 -0.2610 -0.4537
   24loPI    C2  370   4.086   7.111   9.592 -0.0113 -0.1628 -0.1347
   24loPI    C3  371   3.799   7.304   9.794  0.1755  0.1545 -0.1669
   24loPI   PO4  372   4.163   7.562   9.387  0.3880 -0.1820 -0.2032
   24loPI   GL1  373   4.398   7.413   9.132 -0.0050 -0.2648 -0.2250
   24loPI   GL2  374   4.393   7.062   9.231  0.1133  0.1011  0.1039
   24loPI   C1A  375   4.098   7.253   8.862 -0.0601  0.1968 -0.1678
   24loPI   C2A  376   4.066   7.153   8.472  0.2564 -0.1560 -0.3035
   24loPI   C3A  377   4.213   7.304   8.020  0.1080  0.0301 -0.2602
   24loPI   C4A  378   4.227   7.494   7.694  0.2344 -0.0536 -0.2957
   24loPI   C5A  379   4.233   7.828   7.375  0.1843  0.2146  0.0081
   24loPI   C6A  380   4.125   8.068   6.970  0.3477  0.2469 -0.3119
   24loPI   C1B  381   4.482   6.831   8.873  0.0782 -0.0739  0.0983
   24loPI   C2B  382   4.273   6.708   8.482  0.0844 -0.1650  0.3496
   24loPI   C3B  383   4.150   6.751   8.047  0.0067 -0.1042  0.1864
   24loPI   C4B  384   3.980   6.890   7.648  0.1528  0.4714  0.2289
   25loPI    C1  385   3.270  12.503  10.051 -0.0056 -0.1511  0.0998
   25loPI    C2  386   2.973  12.631   9.815  0.1300 -0.1764 -0.0867
   25loPI    C3  387   3.029  12.798  10.174 -0.0535 -0.1106 -0.0878
   25loPI   PO4  388   3.492  12.509   9.787  0.2776 -0.0916  0.0558
   25loPI   GL1  389   3.684  12.382   9.387  0.0235 -0.0882  0.4130
   25loPI   GL2  390   3.520  12.713   9.268 -0.0336  0.0244  0.2143
   25loPI   C1A  391   3.746  12.322   8.946 -0.1898 -0.2019  0.0473
   25loPI   C2A  392   3.475  12.114   8.680 -0.1292 -0.1994  0.1337
   25loPI   C3A  393   3.438  11.709   8.435 -0.1893 -0.1148 -0.3876
   25loPI   C4A  394   3.451  11.725   7.943 -0.0280  0.2310 -0.0238
   25loPI   C5A  395   3.475  11.985   7.646  0.0990 -0.0506  0.1492
   25loPI   C6A  396   3.249  12.135   7.288 -0.0569  0.1145 -0.3249
   25loPI   C1B  397   3.460  12.724   8.815  0.2606  0.0134  0.1164
   25loPI   C2B  398   3.502  12.543   8.406 -0.1123  0.4130  0.2668
   25loPI   C3B  399   3.625  12.567   7.937 -0.0373 -0.0578  0.1338
   25loPI   C4B  400   3.998  12.672   7.724 -0.4725 -0.1429 -0.1610
   26loPI    C1  401   8.777   0.513   9.939 -0.1150  0.4738 -0.1042
   26loPI    C2  402   8.664   0.476  10.321 -0.3389  0.2288 -0.1917
   26loPI    C3  403   9.041   0.394  10.215 -0.3380  0.0604 -0.0624
   26loPI   PO4  404   8.523   0.462   9.847  0.1741  0.0417  0.2661
   26loPI   GL1  405   8.436   0.480   9.474  0.1523  0.3210  0.2457
   26loPI   GL2  406   8.772   0.704   9.445  0.1984 -0.0138  0.2852
   26loPI   C1A  407   8.396   0.705   9.048 -0.0129 -0.1308  0.0421
   26loPI   C2A  408   8.497   0.756   8.641 -0.0884 -0.2212  0.3411
   26loPI   C3A  409   8.388   0.845   8.294 -0.2967  0.0385 -0.2556
   26loPI   C4A  410   8.449   0.995   7.917 -0.0712  0.0751  0.1384
   26loPI   C5A  411   8.431   1.383   7.603 -0.0864  0.1878  0.0006
   26loPI   C6A  412   8.550   1.545   7.097  0.1189 -0.1685  0.4675
   26loPI   C1B  413   8.875   0.781   9.001 -0.3092 -0.1098 -0.1165
   26loPI   C2B  414   8.974   0.873   8.570  0.1116 -0.1515 -0.1253
   26loPI   C3B  415   8.969   0.907   8.106 -0.2529 -0.0060  0.2459
   26loPI   C4B  416   9.247   1.070   7.732  0.0016  0.1511  0.2046
   27loPI    C1  417  12.660   4.984   9.841 -0.0371 -0.1551  0.1457
   27loPI    C2  418  13.039   5.089   9.770 -0.0809 -0.0784  0.0236
   27loPI    C3  419  12.956   4.825  10.058  0.0471  0.0711  0.1998
   27loPI   PO4  420  12.576   4.906   9.593  0.0624  0.1602 -0.0758
   27loPI   GL1  421  12.395   5.072   9.365 -0.3906  0.1330  0.3205
   27loPI   GL2  422  12.092   5.328   9.337  0.1002 -0.3751 -0.0515
   27loPI   C1A  423  12.634   5.034   9.005  0.3265  0.0515  0.0550
   27loPI   C2A  424  12.664   5.174   8.506  0.3744 -0.0067 -0.0880
   27loPI   C3A  425  12.520   5.281   8.138  0.2711 -0.0397  0.1671
   27loPI   C4A  426  12.150   5.072   7.876  0.3403 -0.0364 -0.1713
   27loPI   C5A  427  11.875   4.842   7.604  0.2017 -0.0644  0.1577
   27loPI   C6A  428  11.686   4.845   7.269 -0.1685 -0.1299 -0.1385
   27loPI   C1B  429  12.029   5.754   9.063  0.0821  0.1850 -0.0534
   27loPI   C2B  430  11.846   5.725   8.683  0.4093  0.2676 -0.1220
   27loPI   C3B  431  11.557   5.546   8.517 -0.1895  0.0882  0.0999
   27loPI   C4B  432  11.062   5.598   8.496 -0.3540  0.0025  0.1096
   28loPI    C1  433  17.791   5.047   9.638 -0.1283  0.0415  0.0719
   28loPI    C2  434  18.075   5.081   9.918  0.1722 -0.0107 -0.2204
   28loPI    C3  435  18.013   4.730   9.737 -0.1107 -0.0102 -0.1296
   28loPI   PO4  436  17.765   5.284   9.537  0.4038 -0.2594 -0.2887
   28loPI   GL1  437  17.351   5.393   9.204  0.5116 -0.1115 -0.1637
   28loPI   GL2  438  17.633   5.346   9.002 -0.2164 -0.0500  0.1627
   28loPI   C1A  439  17.217   5.532   8.725 -0.0279 -0.0405  0.0727
   28loPI   C2A  440  17.438   5.655   8.383  0.0227  0.2925 -0.2083
   28loPI   C3A  441  17.520   5.799   8.054 -0.1084 -0.0645  0.2034
   28loPI   C4A  442  17.445   5.739   7.641  0.2425  0.0429 -0.0962
   28loPI   C5A  443  17.413   5.699   7.198 -0.1431  0.5636 -0.4319
   28loPI   C6A  444  17.487   5.686   6.729 -0.1681  0.2427  0.0651
   28loPI   C1B  445  17.850   5.467   8.590  0.1835 -0.1070  0.1300
   28loPI   C2B  446  17.930   5.539   8.143 -0.3147  0.0984 -0.0871
   28loPI   C3B  447  17.979   5.528   7.707  0.2175 -0.0669 -0.0119
   28loPI   C4B  448  17.998   5.790   7.485  0.0174  0.1163  0.3543
   29loPI    C1  449  10.573  10.353   9.689  0.0568 -0.1960 -0.0555
   29loPI    C2  450  10.878  10.611   9.710 -0.1127  0.0202 -0.2069
   29loPI    C3  451  10.621  10.581  10.015  0.2421 -0.3996  0.0621
   29loPI   PO4  452  10.678  10.247   9.445 -0.0956 -0.0043 -0.1271
   29loPI   GL1  453  10.648  10.376   8.984  0.2690  0.2818  0.1606
   29loPI   GL2  454  10.888  10.229   8.918  0.0170  0.3264 -0.0196
   29loPI   C1A  455  10.423  10.437   8.713  0.1715  0.1043  0.0847
   29loPI   C2A  456  10.273  10.377   8.367  0.3241 -0.0061  0.4178
   29loPI   C3A  457  10.280  10.352   8.043  0.3184  0.3027 -0.2727
   29loPI   C4A  458  10.420  10.503   7.782 -0.2018  0.0060  0.2254
   29loPI   C5A  459  10.583  10.713   7.363 -0.4302  0.1089 -0.0764
   29loPI   C6A  460  10.869  10.944   7.046 -0.1297 -0.2192  0.1177
   29loPI   C1B  461  10.844  10.381   8.489  0.1413  0.3209 -0.1131
   29loPI   C2B  462  10.780  10.417   8.147 -0.0803  0.2103 -0.1242
   29loPI   C3B  463  10.878  10.625   7.755  0.5665  0.0432  0.0140
   29loPI   C4B  464  11.055  10.527   7.371 -0.3126 -0.0183 -0.2400
   30loPI    C1  465  11.272  16.974  10.088  0.0903  0.0276  0.3434
   30loPI    C2  466  10.937  17.136  10.234  0.0405  0.0017  0.2585
   30loPI    C3  467  11.293  17.251  10.376  0.0016  0.1203  0.2613
   30loPI   PO4  468  11.340  17.039   9.846  0.0547 -0.1382  0.4752
   30loPI   GL1  469  11.239  16.931   9.489  0.1794  0.4020 -0.2708
   30loPI   GL2  470  10.955  17.157   9.423 -0.1942  0.0346 -0.1187
   30loPI   C1A  471  11.302  16.889   8.980 -0.0139 -0.4448 -0.0099
   30loPI   C2A  472  11.410  16.749   8.461  0.2089 -0.2178 -0.0004
   30loPI   C3A  473  11.317  16.734   8.033  0.1326 -0.4165  0.1362
   30loPI   C4A  474  11.504  16.571   7.635 -0.1481 -0.3210 -0.3690
   30loPI   C5A  475  11.492  16.272   7.295 -0.0259 -0.0324  0.0764
   30loPI   C6A  476  11.331  15.902   7.265 -0.2217 -0.2622  0.1601
   30loPI   C1B  477  10.876  17.028   8.973  0.2203 -0.0309  0.1964
   30loPI   C2B  478  10.858  16.924   8.531  0.1304 -0.2182  0.0686
   30loPI   C3B  479  10.862  16.949   8.145 -0.0856  0.0102 -0.1559
   30loPI   C4B  480  10.641  17.033   7.812 -0.0096  0.2760  0.1078
   31loPI    C1  481  11.866   4.609  10.302 -0.2512 -0.0654  0.4259
   31loPI    C2  482  11.853   4.966  10.482  0.2560  0.2539 -0.1297
   31loPI    C3  483  12.147   4.709  10.568  0.0981  0.1148  0.0023
   31loPI   PO4  484  11.716   4.639  10.044 -0.1938 -0.1516 -0.1432
   31loPI   GL1  485  11.598   4.645   9.655 -0.2948  0.1144  0.2453
   31loPI   GL2  486  11.186   4.758   9.622 -0.0550 -0.1056 -0.1260
   31loPI   C1A  487  11.492   4.600   9.193 -0.1403  0.2537  0.0159
   31loPI   C2A  488  11.262   4.585   8.844 -0.2586  0.0942  0.2884
   31loPI   C3A  489  11.238   4.631   8.412 -0.2233 -0.2695 -0.1872
   31loPI   C4A  490  11.035   4.622   8.002  0.2288  0.1682 -0.0419
   31loPI   C5A  491  11.362   4.559   7.665  0.1713 -0.3708  0.1696
   31loPI   C6A  492  11.736   4.395   7.500 -0.2538  0.2046 -0.1404
   31loPI   C1B  493  10.892   4.686   9.312 -0.1846  0.0505 -0.2263
   31loPI   C2B  494  10.832   4.375   8.897 -0.0487 -0.3276  0.2405
   31loPI   C3B  495  10.565   4.058   8.585  0.3169 -0.2048  0.2943
   31loPI   C4B  496  10.404   4.082   8.132 -0.2365 -0.1135  0.4250
   32loPI    C1  497   0.460   8.590   9.880 -0.1164  0.1484  0.2812
   32loPI    C2  498   0.305   8.229   9.803 -0.0894  0.1596  0.1719
   32loPI    C3  499   0.439   8.315  10.170  0.3123 -0.0961  0.0910
   32loPI   PO4  500   0.553   8.647   9.664 -0.1284  0.1766 -0.2475
   32loPI   GL1  501   0.287   8.655   9.332  0.1008 -0.0971  0.0725
   32loPI   GL2  502   0.358   9.074   9.314 -0.1006  0.0682 -0.1555
   32loPI   C1A  503   0.542   8.584   8.967  0.0373 -0.2210 -0.0041
   32loPI   C2A  504   0.442   8.452   8.449  0.0972 -0.1019  0.1239
   32loPI   C3A  505   0.364   8.581   8.059  0.1093  0.1207  0.0822
   32loPI   C4A  506   0.427   8.579   7.597  0.4179  0.0269 -0.1587
   32loPI   C5A  507   0.545   8.648   7.252  0.1082  0.1001  0.1987
   32loPI   C6A  508   0.936   8.585   7.107  0.4556  0.0188  0.1454
   32loPI   C1B  509   0.472   9.091   8.936 -0.1433  0.0842  0.2321
   32loPI   C2B  510   0.402   9.076   8.473  0.0406 -0.1868 -0.1668
   32loPI   C3B  511   0.345   9.025   7.937  0.2462 -0.0379 -0.0808
   32loPI   C4B  512   0.185   9.047   7.432  0.1484 -0.1916  0.0063
   33loPI    C1  513  10.993  11.018   9.275 -0.0881 -0.2223  0.0849
   33loPI    C2  514  10.761  11.295   9.447  0.3272  0.1060  0.1334
   33loPI    C3  515  11.027  11.092   9.666  0.3136 -0.0363  0.0201
   33loPI   PO4  516  11.102  11.129   9.098  0.1616  0.0833 -0.0311
   33loPI   GL1  517  11.080  11.284   8.697 -0.3026 -0.0316  0.1710
   33loPI   GL2  518  11.131  11.637   8.821  0.1305 -0.0184 -0.1588
   33loPI   C1A  519  10.965  11.278   8.256 -0.0842  0.1319 -0.0650
   33loPI   C2A  520  10.966  11.155   7.815 -0.1151 -0.0983 -0.2140
   33loPI   C3A  521  11.022  11.250   7.430 -0.0631  0.1069 -0.1482
   33loPI   C4A  522  10.674  11.437   7.141 -0.4037  0.3427  0.2127
   33loPI   C5A  523  10.199  11.442   7.185  0.4044 -0.1292  0.3638
   33loPI   C6A  524   9.916  11.594   6.903  0.3916  0.2500 -0.2049
   33loPI   C1B  525  11.358  11.596   8.412  0.1024 -0.3484  0.1518
   33loPI   C2B  526  11.403  11.707   7.976 -0.1098  0.3045 -0.0739
   33loPI   C3B  527  11.269  11.627   7.657  0.2116 -0.2429  0.0397
   33loPI   C4B  528  11.072  11.744   7.302  0.5667  0.2374  0.1327
   34loPI    C1  529   4.774  13.182  10.160  0.0452  0.1371 -0.1437
   34loPI    C2  530   4.718  13.231  10.553  0.2697  0.0993 -0.1057
   34loPI    C3  531   4.405  13.160  10.313  0.1209  0.2149  0.0521
   34loPI   PO4  532   4.910  13.322  10.115 -0.0021  0.0698 -0.2044
   34loPI   GL1  533   5.050  13.508   9.770 -0.2504  0.2555  0.0492
   34loPI   GL2  534   4.871  13.781   9.906 -0.1105 -0.3600 -0.0953
   34loPI   C1A  535   4.943  13.365   9.429 -0.2683  0.1833 -0.2816
   34loPI   C2A  536   4.826  13.342   8.959  0.0235  0.2668  0.1778
   34loPI   C3A  537   4.691  13.341   8.556 -0.2204 -0.0242 -0.1385
   34loPI   C4A  538   4.790  13.450   8.146  0.2299 -0.0148 -0.1334
   34loPI   C5A  539   4.808  13.584   7.796  0.4784 -0.5739  0.1170
   34loPI   C6A  540   4.685  13.825   7.352  0.2088 -0.0865  0.3460
   34loPI   C1B  541   4.964  14.002   9.466  0.0579  0.0905 -0.1253
   34loPI   C2B  542   5.132  14.159   9.018  0.1664 -0.3409  0.1228
   34loPI   C3B  543   5.218  14.275   8.691 -0.0729 -0.2086  0.0837
   34loPI   C4B  544   4.884  14.298   8.340  0.2155  0.0587  0.0133
   35loPI    C1  545   4.053   8.126   9.597 -0.1257 -0.1722  0.0400
   35loPI    C2  546   3.907   8.498   9.598 -0.2093 -0.2045 -0.0735
   35loPI    C3  547   3.890   8.276   9.930 -0.0312 -0.0577  0.0351
   35loPI   PO4  548   3.937   8.001   9.385  0.2065  0.1586 -0.2800
   35loPI   GL1  549   3.941   7.780   9.020  0.3063 -0.2270  0.2682
   35loPI   GL2  550   3.685   7.520   9.062 -0.1859 -0.1284  0.0955
   35loPI   C1A  551   3.984   7.779   8.522 -0.2147  0.4543  0.0930
   35loPI   C2A  552   4.004   7.741   8.164 -0.1232  0.3718  0.2759
   35loPI   C3A  553   3.845   7.798   7.732 -0.2647  0.0082  0.1744
   35loPI   C4A  554   3.796   8.089   7.437 -0.0887  0.2125  0.0941
   35loPI   C5A  555   3.748   8.411   7.080  0.0964  0.1075  0.0488
   35loPI   C6A  556   3.999   8.751   7.021  0.2883 -0.0164 -0.0090
   35loPI   C1B  557   3.644   7.357   8.590  0.0085 -0.2156 -0.0458
   35loPI   C2B  558   3.710   7.095   8.134  0.3240 -0.1096 -0.1556
   35loPI   C3B  559   3.753   7.328   7.795 -0.0331 -0.0060  0.2829
   35loPI   C4B  560   3.713   7.509   7.388  0.1554  0.1855 -0.1024
   36loPI    C1  561   7.049   8.247   9.605 -0.0217 -0.0205  0.0335
   36loPI    C2  562   7.090   7.884   9.443  0.1944  0.0698 -0.1192
   36loPI    C3  563   7.080   7.926   9.840  0.2582 -0.0936 -0.0998
   36loPI   PO4  564   6.945   8.335   9.401  0.2794 -0.2717  0.2236
   36loPI   GL1  565   7.016   8.275   8.996 -0.2630  0.0549  0.3361
   36loPI   GL2  566   7.288   8.030   9.005 -0.1368  0.1282 -0.0210
   36loPI   C1A  567   6.945   8.177   8.532 -0.0643 -0.0934 -0.1544
   36loPI   C2A  568   6.887   8.209   8.096 -0.4436 -0.0612 -0.0431
   36loPI   C3A  569   6.618   8.364   7.766  0.1653  0.1246  0.0884
   36loPI   C4A  570   6.382   8.746   7.487  0.1842 -0.0638 -0.0667
   36loPI   C5A  571   6.266   8.988   7.108  0.1382 -0.2505  0.2122
   36loPI   C6A  572   6.009   9.061   6.882  0.2155 -0.0778  0.2923
   36loPI   C1B  573   7.394   8.063   8.565  0.2002 -0.1926 -0.1911
   36loPI   C2B  574   7.544   8.015   8.244  0.0705 -0.2054 -0.0159
   36loPI   C3B  575   7.315   8.081   7.880 -0.0897 -0.3385 -0.3045
   36loPI   C4B  576   7.027   8.095   7.629  0.0780  0.2776  0.0152
   37loPI    C1  577  15.565  18.033   9.327  0.2055 -0.0140 -0.1535
   37loPI    C2  578  15.353  17.700   9.390  0.1684  0.0216 -0.0875
   37loPI    C3  579  15.471  17.924   9.700 -0.0893  0.2453 -0.1478
   37loPI   PO4  580  15.722  17.983   9.206 -0.2632 -0.1042 -0.0345
   37loPI   GL1  581  15.954  17.847   8.894 -0.5194  0.1828  0.0517
   37loPI   GL2  582  16.238  17.564   8.881  0.1055  0.2071  0.0612
   37loPI   C1A  583  16.149  17.815   8.493 -0.3095  0.3015 -0.4315
   37loPI   C2A  584  16.151  17.742   8.168 -0.0738  0.2718  0.2227
   37loPI   C3A  585  16.165  17.896   7.732  0.3724  0.2313 -0.0068
   37loPI   C4A  586  16.052  18.122   7.408 -0.1427 -0.1172 -0.3369
   37loPI   C5A  587  15.781  18.208   7.162 -0.3495  0.1357  0.3884
   37loPI   C6A  588  15.442  18.507   7.090  0.0394  0.1955 -0.1847
   37loPI   C1B  589  16.307  17.307   8.491 -0.0524  0.2847 -0.1109
   37loPI   C2B  590  16.186  17.166   8.164  0.0558 -0.0400  0.2459
   37loPI   C3B  591  15.918  16.909   7.818  0.0267  0.0272 -0.0855
   37loPI   C4B  592  15.731  16.510   7.838 -0.0801 -0.1185 -0.1269
   38loPI    C1  593   6.738   2.359  10.057 -0.1086 -0.1007 -0.0352
   38loPI    C2  594   6.965   2.172  10.328  0.1772  0.1029 -0.1301
   38loPI    C3  595   6.647   2.384  10.446  0.2484  0.1170  0.0384
   38loPI   PO4  596   6.866   2.474   9.955 -0.0715 -0.3000  0.4058
   38loPI   GL1  597   6.974   2.331   9.395  0.1877 -0.2034 -0.0054
   38loPI   GL2  598   7.283   2.357   9.268 -0.3975 -0.0524  0.3291
   38loPI   C1A  599   6.922   2.193   8.928  0.2165  0.1719 -0.0954
   38loPI   C2A  600   6.880   2.263   8.492 -0.2481 -0.0072 -0.0172
   38loPI   C3A  601   6.942   2.262   8.035  0.2466  0.0314 -0.3373
   38loPI   C4A  602   7.084   2.523   7.776 -0.0962  0.0990  0.2048
   38loPI   C5A  603   6.834   2.847   7.649 -0.0369 -0.0752 -0.4064
   38loPI   C6A  604   6.981   3.175   7.228 -0.0742 -0.0769 -0.0843
   38loPI   C1B  605   7.275   2.473   8.783  0.0505  0.0490  0.1466
   38loPI   C2B  606   7.397   2.541   8.428  0.4620 -0.0385  0.1259
   38loPI   C3B  607   7.538   2.477   8.033  0.1791 -0.0730  0.1726
   38loPI   C4B  608   7.549   2.391   7.571 -0.1337  0.1489 -0.2229
   39loPI    C1  609   5.748   6.287   9.790 -0.0442  0.1885  0.0796
   39loPI    C2  610   6.137   6.230   9.868 -0.0386  0.3048  0.1386
   39loPI    C3  611   5.861   6.002  10.047  0.0078  0.1484  0.0123
   39loPI   PO4  612   5.666   6.307   9.561 -0.2302  0.0447  0.4889
   39loPI   GL1  613   5.726   6.474   9.167  0.1318 -0.2788  0.1097
   39loPI   GL2  614   5.442   6.446   8.923 -0.1170 -0.3266 -0.0111
   39loPI   C1A  615   5.930   6.450   8.806 -0.1078  0.0564  0.1277
   39loPI   C2A  616   5.884   6.412   8.363 -0.2688  0.2448 -0.0652
   39loPI   C3A  617   6.024   6.399   7.874  0.1759 -0.0352  0.1669
   39loPI   C4A  618   5.857   6.482   7.425 -0.3304  0.1500 -0.1588
   39loPI   C5A  619   6.097   6.750   7.202  0.0645  0.2366  0.4467
   39loPI   C6A  620   6.606   6.899   7.207 -0.3176  0.0785 -0.5021
   39loPI   C1B  621   5.450   6.607   8.423 -0.0752 -0.0323 -0.0063
   39loPI   C2B  622   5.248   6.698   7.952 -0.1523 -0.4310  0.0324
   39loPI   C3B  623   5.051   6.843   7.583 -0.4310 -0.0826 -0.1276
   39loPI   C4B  624   4.823   6.674   7.267 -0.0862 -0.0857  0.3040
   40loPI    C1  625  16.889   0.674   9.208  0.1794  0.0870  0.1533
   40loPI    C2  626  16.900   0.290   9.095  0.4077  0.1562 -0.0719
   40loPI    C3  627  17.078   0.404   9.435  0.0834  0.0171  0.1507
   40loPI   PO4  628  16.978   0.747   9.033 -0.2207 -0.1061 -0.3063
   40loPI   GL1  629  17.115   0.983   8.764 -0.0003  0.2678  0.1909
   40loPI   GL2  630  17.417   0.994   8.709  0.0658 -0.4236 -0.0583
   40loPI   C1A  631  16.835   1.125   8.485  0.0170  0.0884  0.2778
   40loPI   C2A  632  16.786   1.164   7.968 -0.1432  0.4689  0.0490
   40loPI   C3A  633  16.825   1.072   7.558  0.0648  0.3566  0.0609
   40loPI   C4A  634  16.816   0.923   7.179  0.5329 -0.0874  0.1162
   40loPI   C5A  635  16.867   0.678   6.871 -0.0318 -0.0432  0.0159
   40loPI   C6A  636  17.206   0.730   6.582 -0.2359 -0.1958 -0.2370
   40loPI   C1B  637  17.189   0.875   8.281  0.5072 -0.0229 -0.1324
   40loPI   C2B  638  17.242   0.949   7.878  0.0429  0.3802 -0.1458
   40loPI   C3B  639  17.304   0.844   7.479  0.3180 -0.2452 -0.0380
   40loPI   C4B  640  17.614   0.855   7.236  0.1043  0.0341 -0.0027
   41loPI    C1  641   4.970  16.542   9.905  0.0030 -0.1611 -0.1225
   41loPI    C2  642   5.058  16.895  10.072 -0.0710 -0.3366  0.3014
   41loPI    C3  643   5.334  16.700   9.858 -0.0685  0.0309 -0.0416
   41loPI   PO4  644   4.673  16.645   9.839  0.0699  0.1999  0.0416
   41loPI   GL1  645   4.401  16.769   9.430  0.0108 -0.2313  0.0825
   41loPI   GL2  646   4.074  16.678   9.393 -0.3883 -0.0840  0.0282
   41loPI   C1A  647   4.641  16.586   9.079 -0.1352 -0.0586 -0.2136
   41loPI   C2A  648   4.846  16.689   8.734 -0.0431 -0.0923 -0.0450
   41loPI   C3A  649   4.620  16.696   8.361 -0.3852 -0.1459  0.1313
   41loPI   C4A  650   4.625  16.688   7.934 -0.0713  0.4150  0.2113
   41loPI   C5A  651   4.567  16.601   7.464  0.0108  0.2524 -0.1142
   41loPI   C6A  652   4.713  17.003   7.178 -0.0926  0.1121  0.0709
   41loPI   C1B  653   4.155  16.580   9.065 -0.1513  0.0200 -0.4182
   41loPI   C2B  654   4.256  16.524   8.658  0.0329  0.3281  0.1670
   41loPI   C3B  655   4.196  16.361   8.169 -0.0806 -0.0919 -0.0606
   41loPI   C4B  656   4.231  16.328   7.752  0.1417 -0.1685 -0.0600
   42loPI    C1  657   4.388   9.718  10.038 -0.0381 -0.0970 -0.0316
   42loPI    C2  658   4.331   9.519  10.380 -0.1231 -0.0910 -0.0421
   42loPI    C3  659   4.699   9.554  10.228 -0.1010 -0.1963 -0.0136
   42loPI   PO4  660   4.236   9.626   9.897 -0.0289  0.0363  0.0327
   42loPI   GL1  661   4.178   9.665   9.500 -0.0646  0.2493  0.1302
   42loPI   GL2  662   3.875   9.820   9.460  0.2770 -0.1847  0.0995
   42loPI   C1A  663   4.211   9.624   9.065  0.2256 -0.4529  0.0419
   42loPI   C2A  664   4.505   9.543   8.706  0.0181 -0.0766  0.2894
   42loPI   C3A  665   4.711   9.452   8.232  0.1175  0.1440 -0.3876
   42loPI   C4A  666   4.835   9.582   7.860 -0.1492  0.0882  0.0498
   42loPI   C5A  667   4.859   9.620   7.409 -0.0184  0.2204  0.1339
   42loPI   C6A  668   4.722   9.333   7.074 -0.0190 -0.0864  0.0516
   42loPI   C1B  669   3.754   9.973   9.077  0.3177  0.0849  0.0038
   42loPI   C2B  670   3.759   9.929   8.621 -0.2046 -0.4806 -0.0922
   42loPI   C3B  671   3.731   9.930   8.135  0.2820 -0.0232  0.0686
   42loPI   C4B  672   4.024  10.177   7.757  0.1367  0.2414 -0.4187
   43loPI    C1  673   4.103  14.327   9.989  0.1744 -0.1491  0.0357
   43loPI    C2  674   4.084  14.320  10.388 -0.0252 -0.0621  0.0291
   43loPI    C3  675   4.296  14.604  10.204  0.0406 -0.0830  0.0722
   43loPI   PO4  676   3.913  14.299   9.868 -0.4131 -0.1380  0.2770
   43loPI   GL1  677   3.975  14.392   9.479 -0.1446 -0.1250  0.1132
   43loPI   GL2  678   3.752  14.199   9.339  0.0099  0.2814 -0.1113
   43loPI   C1A  679   4.143  14.283   9.070  0.4333 -0.0743  0.2596
   43loPI   C2A  680   4.363  13.946   8.756 -0.0611  0.2270 -0.0257
   43loPI   C3A  681   4.294  13.890   8.334 -0.0026  0.0383 -0.2443
   43loPI   C4A  682   4.322  13.775   7.939  0.0719  0.0521  0.0816
   43loPI   C5A  683   4.438  14.000   7.672  0.1277 -0.0014 -0.2802
   43loPI   C6A  684   4.534  14.353   7.542 -0.0790 -0.1163  0.0410
   43loPI   C1B  685   3.617  14.046   8.964 -0.0317 -0.2828 -0.2818
   43loPI   C2B  686   3.700  13.898   8.546  0.1794  0.0625  0.1127
   43loPI   C3B  687   3.841  13.606   8.263 -0.2651  0.0058 -0.0459
   43loPI   C4B  688   3.916  13.435   7.819  0.1118  0.2487  0.1297
   44loPI    C1  689   1.717   3.891   9.566 -0.0243 -0.1899 -0.0369
   44loPI    C2  690   1.531   4.047   9.884  0.0918 -0.4064  0.1405
   44loPI    C3  691   1.642   4.283   9.580  0.1197 -0.1717  0.3304
   44loPI   PO4  692   1.516   3.722   9.413  0.2284  0.1920 -0.0015
   44loPI   GL1  693   1.471   4.057   9.047  0.0228 -0.0098  0.1170
   44loPI   GL2  694   1.208   3.856   9.035  0.0964 -0.0327  0.1971
   44loPI   C1A  695   1.556   4.227   8.691  0.3205  0.0418  0.1882
   44loPI   C2A  696   1.646   4.163   8.256  0.0277  0.1921  0.0069
   44loPI   C3A  697   1.750   4.515   7.957 -0.1163  0.5653  0.0000
   44loPI   C4A  698   2.170   4.492   7.666  0.1094  0.0516 -0.0861
   44loPI   C5A  699   2.277   4.353   7.342  0.1774 -0.1534  0.0814
   44loPI   C6A  700   2.341   4.267   6.893  0.3558 -0.2135  0.0165
   44loPI   C1B  701   1.336   3.798   8.591  0.0498  0.0298 -0.1176
   44loPI   C2B  702   1.354   3.812   8.070  0.1440  0.1474 -0.1559
   44loPI   C3B  703   1.536   3.949   7.618 -0.1258  0.2386  0.0171
   44loPI   C4B  704   1.778   4.217   7.516  0.0885 -0.3330 -0.4279
   45loPI    C1  705  17.389  16.055   9.712 -0.3286 -0.2812 -0.3232
   45loPI    C2  706  17.253  15.681   9.747 -0.1148 -0.3430 -0.1238
   45loPI    C3  707  17.477  15.840  10.038  0.0471 -0.1651 -0.3424
   45loPI   PO4  708  17.465  16.064   9.404  0.0414  0.1069  0.0736
   45loPI   GL1  709  17.810  16.272   9.162  0.5016 -0.1571 -0.1647
   45loPI   GL2  710  18.038  16.130   9.276 -0.0986  0.1249  0.0480
   45loPI   C1A  711  17.843  16.272   8.773  0.1887 -0.0259  0.3586
   45loPI   C2A  712  17.881  16.296   8.385  0.2472  0.2395 -0.1483
   45loPI   C3A  713  17.955  16.336   7.968  0.1599 -0.1428 -0.0026
   45loPI   C4A  714  17.777  16.439   7.553  0.0645  0.1886  0.1445
   45loPI   C5A  715  17.744  16.363   7.023 -0.1679 -0.0792 -0.0110
   45loPI   C6A  716  17.846  16.031   6.855 -0.1678 -0.0965  0.2065
   45loPI   C1B  717  18.164  15.893   8.812  0.1246 -0.1148 -0.3949
   45loPI   C2B  718  18.302  15.858   8.367  0.1343  0.1163  0.1089
   45loPI   C3B  719  18.289  15.859   8.024 -0.0806 -0.1667 -0.1472
   45loPI   C4B  720  18.299  16.017   7.690  0.0285 -0.0817  0.0975
   46loPI    C1  721   6.584   7.925   9.591 -0.0990 -0.2971  0.0463
   46loPI    C2  722   6.657   7.643   9.865 -0.2740 -0.2243  0.1699
   46loPI    C3  723   6.327   7.867   9.892 -0.0768  0.0754  0.1429
   46loPI   PO4  724   6.559   7.801   9.324 -0.0592  0.0846  0.2358
   46loPI   GL1  725   6.656   7.947   8.888  0.1618 -0.2331 -0.2008
   46loPI   GL2  726   6.527   8.161   8.729  0.2079  0.0450 -0.3166
   46loPI   C1A  727   6.502   7.687   8.636 -0.2314 -0.1710 -0.0410
   46loPI   C2A  728   6.537   7.815   8.291  0.2560  0.0385 -0.2309
   46loPI   C3A  729   6.373   7.774   7.923 -0.2374  0.0310  0.1705
   46loPI   C4A  730   6.052   7.727   7.647 -0.1633  0.0759  0.2047
   46loPI   C5A  731   5.925   7.930   7.226  0.0168 -0.1803  0.2602
   46loPI   C6A  732   5.566   8.149   7.037 -0.3486 -0.0712 -0.1434
   46loPI   C1B  733   6.376   8.343   8.320 -0.2086 -0.3648  0.3755
   46loPI   C2B  734   6.095   8.583   8.105  0.0387 -0.0669  0.2710
   46loPI   C3B  735   5.932   8.813   7.678 -0.1320  0.2378  0.2027
   46loPI   C4B  736   5.914   9.141   7.428 -0.1108 -0.0065  0.0123
   47loPI    C1  737   6.184  16.632   9.845  0.0082 -0.0487  0.2203
   47loPI    C2  738   6.576  16.712   9.844  0.0167 -0.0818 -0.1211
   47loPI    C3  739   6.388  16.641  10.189  0.2524  0.2133  0.0730
   47loPI   PO4  740   6.196  16.453   9.646 -0.0679 -0.2554  0.4267
   47loPI   GL1  741   6.028  16.430   9.323 -0.0531 -0.0992 -0.2770
   47loPI   GL2  742   5.731  16.726   9.464  0.1797  0.3219 -0.3207
   47loPI   C1A  743   6.065  16.394   8.913 -0.0301  0.1020 -0.0846
   47loPI   C2A  744   6.031  16.404   8.457 -0.0550  0.0056  0.0539
   47loPI   C3A  745   6.030  16.338   8.017  0.0524 -0.3166 -0.2866
   47loPI   C4A  746   5.857  16.163   7.580  0.1356 -0.1915 -0.0358
   47loPI   C5A  747   5.759  16.025   7.192  0.2759 -0.2185  0.2333
   47loPI   C6A  748   5.840  15.923   6.797 -0.2263  0.0473  0.0347
   47loPI   C1B  749   5.917  16.901   9.042  0.1917 -0.1668 -0.3725
   47loPI   C2B  750   5.961  16.943   8.720  0.2273 -0.2053 -0.1181
   47loPI   C3B  751   6.165  17.181   8.451  0.1174 -0.2322 -0.1937
   47loPI   C4B  752   6.198  17.450   8.137  0.1410  0.2757  0.3085
   48loPI    C1  753  12.072  18.033   9.868 -0.0083  0.0026 -0.1884
   48loPI    C2  754  12.202  17.715  10.073 -0.1476  0.0070 -0.0919
   48loPI    C3  755  12.265  18.083  10.214  0.0872  0.0276 -0.2451
   48loPI   PO4  756  11.788  17.915   9.834 -0.2173 -0.1902 -0.2336
   48loPI   GL1  757  11.449  18.078   9.576  0.1334  0.0671 -0.2095
   48loPI   GL2  758  11.756  18.302   9.459  0.1205  0.0552 -0.3570
   48loPI   C1A  759  11.486  17.880   9.210 -0.0696 -0.4186 -0.3077
   48loPI   C2A  760  11.545  17.999   8.771 -0.0438  0.0349  0.2504
   48loPI   C3A  761  11.560  18.337   8.435 -0.0155 -0.1127  0.0064
   48loPI   C4A  762  11.697  18.579   8.032 -0.0846  0.3099 -0.1911
   48loPI   C5A  763  11.933  18.557   7.627  0.1694  0.0270  0.1937
   48loPI   C6A  764  12.254  18.760   7.644  0.1290 -0.1209  0.0602
   48loPI   C1B  765  12.066  18.428   9.304  0.0283  0.1332 -0.1525
   48loPI   C2B  766  12.337  18.596   9.004  0.2160 -0.0268 -0.1034
   48loPI   C3B  767  12.410  18.826   8.531  0.1369  0.0559  0.0640
   48loPI   C4B  768  12.076  18.944   8.275 -0.3619 -0.2531  0.0027
   49loPI    C1  769   5.180  19.115   9.730  0.2838  0.1390  0.0514
   49loPI    C2  770   5.010  18.886  10.010  0.2235  0.1092 -0.0094
   49loPI    C3  771   5.256  19.182  10.117  0.2195  0.0825  0.0739
   49loPI   PO4  772   5.107  19.348   9.492 -0.0071 -0.4836  0.1210
   49loPI   GL1  773   4.986  19.384   9.132 -0.3572 -0.4198  0.1946
   49loPI   GL2  774   5.248  19.283   9.014  0.1232 -0.1233  0.3179
   49loPI   C1A  775   4.781  19.428   8.744  0.1081 -0.2510 -0.3862
   49loPI   C2A  776   4.627  19.472   8.458 -0.0728  0.0290 -0.1834
   49loPI   C3A  777   4.630  19.622   7.952  0.1379 -0.3957  0.1426
   49loPI   C4A  778   4.418  19.670   7.549 -0.3560 -0.0509 -0.0506
   49loPI   C5A  779   4.329  19.671   7.111  0.1095 -0.1765 -0.1257
   49loPI   C6A  780   4.301  19.708   6.649 -0.1345  0.0531 -0.1984
   49loPI   C1B  781   5.149  19.206   8.599  0.1660  0.1473  0.1887
   49loPI   C2B  782   4.971  19.232   8.195  0.2899 -0.3045 -0.0834
   49loPI   C3B  783   5.085  19.256   7.776 -0.0247 -0.0592 -0.0785
   49loPI   C4B  784   5.007  19.242   7.317 -0.0761 -0.0534  0.1802
   50loPI    C1  785   5.313   1.941   9.983 -0.0947 -0.1043 -0.0451
   50loPI    C2  786   5.279   1.655  10.260 -0.0595 -0.0609  0.0041
   50loPI    C3  787   5.623   1.856  10.221 -0.0002 -0.1989 -0.2002
   50loPI   PO4  788   5.244   1.796   9.672 -0.2426  0.1050  0.0856
   50loPI   GL1  789   5.401   1.495   9.331 -0.2117 -0.0166 -0.0546
   50loPI   GL2  790   5.238   1.345   9.096 -0.0023 -0.1955 -0.1184
   50loPI   C1A  791   5.721   1.635   9.099 -0.1453 -0.0846  0.3039
   50loPI   C2A  792   5.668   1.703   8.665  0.0050 -0.1134 -0.2674
   50loPI   C3A  793   5.932   1.572   8.227  0.2306 -0.3119  0.1664
   50loPI   C4A  794   5.998   1.465   7.846 -0.1374  0.0960 -0.0876
   50loPI   C5A  795   6.092   1.414   7.417 -0.3714 -0.4675  0.0637
   50loPI   C6A  796   6.002   1.641   7.094 -0.5272  0.2078  0.0535
   50loPI   C1B  797   5.426   1.234   8.794 -0.0225 -0.2236 -0.1334
   50loPI   C2B  798   5.540   1.244   8.374  0.1139 -0.2228 -0.3146
   50loPI   C3B  799   5.799   1.081   8.061 -0.0938 -0.1918  0.1495
   50loPI   C4B  800   5.711   1.167   7.532 -0.0702  0.2292 -0.1113
   51loPI    C1  801   3.720   6.754   9.692  0.1607  0.5772 -0.0484
   51loPI    C2  802   3.944   6.871  10.002  0.0239  0.3830  0.1263
   51loPI    C3  803   3.649   6.607  10.057  0.1853  0.1225 -0.2210
   51loPI   PO4  804   3.921   6.687   9.464  0.0808  0.1140 -0.0892
   51loPI   GL1  805   4.049   6.576   9.024  0.1272  0.2110 -0.1598
   51loPI   GL2  806   3.794   6.805   8.962 -0.1624 -0.1985  0.1512
   51loPI   C1A  807   3.817   6.231   8.813 -0.1051  0.0452  0.2960
   51loPI   C2A  808   3.573   5.935   8.578 -0.1551 -0.0085  0.0728
   51loPI   C3A  809   3.604   6.038   8.123  0.2052  0.4101  0.1001
   51loPI   C4A  810   3.718   5.913   7.765 -0.1887  0.1488 -0.2963
   51loPI   C5A  811   3.796   5.806   7.270 -0.3765  0.2156  0.0659
   51loPI   C6A  812   3.882   6.084   6.846 -0.1777  0.0676 -0.4268
   51loPI   C1B  813   3.773   6.724   8.533 -0.0377  0.0077  0.1379
   51loPI   C2B  814   3.921   6.386   8.245  0.1244 -0.0946 -0.2406
   51loPI   C3B  815   4.029   6.341   7.729  0.0809  0.0629  0.0183
   51loPI   C4B  816   4.034   6.283   7.273  0.0641 -0.0294  0.2374
   52loPI    C1  817   7.583   4.830   9.829 -0.0973 -0.2016 -0.6140
   52loPI    C2  818   7.214   4.796   9.978  0.1602 -0.2351  0.0524
   52loPI    C3  819   7.303   5.098   9.732 -0.2986 -0.2118 -0.0954
   52loPI   PO4  820   7.649   4.586   9.729  0.1149  0.1568 -0.0079
   52loPI   GL1  821   7.935   4.450   9.363  0.1948 -0.1101 -0.2248
   52loPI   GL2  822   8.152   4.084   9.413  0.0367 -0.3433  0.0974
   52loPI   C1A  823   7.926   4.710   9.042 -0.0700 -0.2224 -0.1258
   52loPI   C2A  824   7.982   4.735   8.649 -0.0636  0.0381  0.1296
   52loPI   C3A  825   8.052   4.729   8.204 -0.2305 -0.2330  0.0043
   52loPI   C4A  826   8.080   4.719   7.810  0.0343  0.0186  0.2471
   52loPI   C5A  827   7.700   4.752   7.560 -0.0218  0.1607 -0.0384
   52loPI   C6A  828   7.288   4.669   7.375  0.0011 -0.0050 -0.0595
   52loPI   C1B  829   8.514   3.952   9.183 -0.0550 -0.1432  0.2768
   52loPI   C2B  830   8.671   4.033   8.817 -0.1034 -0.2936  0.2528
   52loPI   C3B  831   8.909   3.967   8.461  0.1204 -0.3369 -0.0469
   52loPI   C4B  832   8.852   3.736   8.144 -0.2180  0.2170  0.2302
   53loPI    C1  833   4.949  15.725  10.094 -0.2626 -0.0594  0.1840
   53loPI    C2  834   5.311  15.618  10.224 -0.1379  0.2789  0.1270
   53loPI    C3  835   5.029  15.727  10.486 -0.1840  0.0672  0.1679
   53loPI   PO4  836   4.881  15.618   9.882 -0.2137 -0.0636 -0.0658
   53loPI   GL1  837   5.006  15.404   9.505  0.0771  0.0704  0.0921
   53loPI   GL2  838   5.021  15.094   9.425 -0.3388  0.3189  0.1197
   53loPI   C1A  839   4.802  15.543   9.195 -0.1487 -0.0534  0.1043
   53loPI   C2A  840   4.800  15.565   8.859 -0.0955  0.0615  0.5887
   53loPI   C3A  841   4.712  15.527   8.395 -0.0305 -0.0266 -0.0135
   53loPI   C4A  842   4.676  15.611   7.969 -0.1121  0.1692 -0.0106
   53loPI   C5A  843   4.664  15.720   7.535  0.2415  0.3741 -0.0316
   53loPI   C6A  844   4.886  15.768   7.167 -0.0178  0.0977  0.3008
   53loPI   C1B  845   5.032  14.834   9.038  0.1324  0.2047  0.0124
   53loPI   C2B  846   5.039  14.758   8.550  0.2429  0.2921  0.2922
   53loPI   C3B  847   5.034  14.722   8.118 -0.1140 -0.2975 -0.0285
   53loPI   C4B  848   4.989  14.731   7.693  0.3364  0.1835  0.1755
   54loPI    C1  849  19.185   9.063   9.640  0.1718  0.0255 -0.2191
   54loPI    C2  850  19.562   9.074   9.773  0.0162 -0.1426  0.2557
   54loPI    C3  851  19.373   8.723   9.732 -0.0577 -0.0667 -0.0797
   54loPI   PO4  852  19.194   9.181   9.381  0.4315  0.1069  0.0333
   54loPI   GL1  853  19.303   9.296   9.117 -0.1265  0.2825  0.2836
   54loPI   GL2  854  19.579   9.471   9.123 -0.1178  0.0678  0.2739
   54loPI   C1A  855  19.272   9.238   8.610  0.4069 -0.0664 -0.0685
   54loPI   C2A  856  19.257   9.317   8.149  0.1528  0.0582 -0.0357
   54loPI   C3A  857  19.270   9.338   7.733  0.0706 -0.0114 -0.0371
   54loPI   C4A  858  19.068   9.281   7.324 -0.0517 -0.2785 -0.1633
   54loPI   C5A  859  18.722   9.533   7.228  0.1212  0.0520 -0.2529
   54loPI   C6A  860  18.269   9.463   6.972 -0.0351  0.1104  0.0789
   54loPI   C1B  861  19.759   9.568   8.641  0.0972  0.1242  0.6041
   54loPI   C2B  862  19.777   9.474   8.183 -0.1194  0.3108  0.1202
   54loPI   C3B  863  19.716   9.763   7.769  0.1882  0.1066  0.0598
   54loPI   C4B  864  19.722   9.904   7.324 -0.1384 -0.3904  0.0190
   55loPI    C1  865  10.114  19.033  10.189 -0.0768  0.1495 -0.0956
   55loPI    C2  866   9.949  18.836  10.496  0.0474  0.0182 -0.1119
   55loPI    C3  867  10.346  18.835  10.447  0.0229 -0.0319 -0.3202
   55loPI   PO4  868   9.799  19.209  10.155  0.2396 -0.0508 -0.0033
   55loPI   GL1  869   9.740  19.146   9.705  0.4716  0.1964 -0.0071
   55loPI   GL2  870   9.921  18.878   9.613  0.2133 -0.2280 -0.2218
   55loPI   C1A  871   9.453  19.263   9.388  0.1397 -0.0558  0.0886
   55loPI   C2A  872   9.294  19.360   9.059 -0.1457  0.1549  0.0263
   55loPI   C3A  873   9.309  19.203   8.699 -0.0324  0.2550 -0.1208
   55loPI   C4A  874   9.459  19.223   8.219  0.3033  0.1515 -0.0189
   55loPI   C5A  875   9.385  19.056   7.830 -0.2204  0.2392  0.1493
   55loPI   C6A  876   9.416  19.010   7.405 -0.1794  0.2865 -0.2701
   55loPI   C1B  877  10.105  18.666   9.213  0.2357 -0.0235  0.0881
   55loPI   C2B  878  10.145  18.496   8.782  0.3780 -0.1106  0.2352
   55loPI   C3B  879  10.150  18.484   8.294 -0.1203 -0.0549  0.0119
   55loPI   C4B  880  10.226  18.526   7.870 -0.2036  0.2452  0.1304
   56loPI    C1  881   8.044   7.606   9.561  0.2021  0.1397 -0.1336
   56loPI    C2  882   8.036   7.214   9.479  0.2004  0.1395 -0.1325
   56loPI    C3  883   8.207   7.345   9.816 -0.3278  0.0877  0.1668
   56loPI   PO4  884   7.904   7.714   9.465 -0.2969 -0.0172  0.0299
   56loPI   GL1  885   7.744   7.813   9.099  0.1604 -0.0863 -0.1836
   56loPI   GL2  886   7.503   7.598   9.179 -0.2101 -0.1270 -0.1691
   56loPI   C1A  887   7.605   7.581   8.689 -0.0106 -0.1749  0.1189
   56loPI   C2A  888   7.537   7.556   8.278  0.2459  0.0073 -0.1214
   56loPI   C3A  889   7.741   7.358   8.072  0.2210  0.0328  0.0528
   56loPI   C4A  890   7.806   7.335   7.623  0.0741  0.3729 -0.0529
   56loPI   C5A  891   7.801   7.708   7.396 -0.1095 -0.1506  0.3574
   56loPI   C6A  892   7.391   8.007   7.278 -0.1743  0.1762 -0.2453
   56loPI   C1B  893   7.731   7.290   9.031 -0.0138 -0.1635 -0.1197
   56loPI   C2B  894   8.111   7.051   8.690  0.0031 -0.1032 -0.0661
   56loPI   C3B  895   8.156   7.164   8.236  0.1676 -0.3327 -0.2441
   56loPI   C4B  896   8.258   7.085   7.710  0.1652  0.1680 -0.1014
   57loPI    C1  897   8.691  17.191   9.834 -0.0095  0.1251 -0.0051
   57loPI    C2  898   8.904  17.244  10.168  0.2004  0.2294 -0.1523
   57loPI    C3  899   8.505  17.278  10.177  0.1879  0.0498  0.1231
   57loPI   PO4  900   8.914  17.445   9.608  0.0872  0.1562  0.0968
   57loPI   GL1  901   8.901  17.379   9.118 -0.0303 -0.1182  0.0237
   57loPI   GL2  902   8.881  17.109   8.985 -0.3196  0.4569 -0.1577
   57loPI   C1A  903   8.935  17.667   8.882 -0.1498 -0.2880 -0.4047
   57loPI   C2A  904   8.960  17.764   8.472  0.1068  0.0747 -0.1600
   57loPI   C3A  905   8.901  17.759   8.070 -0.2658 -0.1303 -0.0964
   57loPI   C4A  906   8.788  17.692   7.687 -0.1165 -0.2118 -0.2076
   57loPI   C5A  907   9.039  17.699   7.270  0.3060  0.1479  0.1120
   57loPI   C6A  908   9.219  17.886   7.072 -0.1853 -0.2496 -0.0174
   57loPI   C1B  909   8.821  17.283   8.580 -0.4196 -0.5999  0.0780
   57loPI   C2B  910   8.646  17.294   8.164  0.0341 -0.2083 -0.2590
   57loPI   C3B  911   8.411  17.360   7.846  0.0701  0.2099  0.2329
   57loPI   C4B  912   8.217  17.090   7.452 -0.3810 -0.1877  0.1246
   58loPI    C1  913  19.044   2.654   9.227 -0.0190  0.0645 -0.0283
   58loPI    C2  914  18.779   2.459   9.455 -0.0422  0.1155 -0.0114
   58loPI    C3  915  18.653   2.690   9.154 -0.0186  0.1664  0.0175
   58loPI   PO4  916  19.241   2.551   9.127  0.2119 -0.1740  0.1304
   58loPI   GL1  917  19.448   2.497   8.723  0.0500 -0.3331 -0.4764
   58loPI   GL2  918  19.118   2.487   8.644  0.3631  0.2584 -0.4724
   58loPI   C1A  919  19.575   2.878   8.508 -0.0772 -0.2542 -0.1535
   58loPI   C2A  920  19.464   3.093   8.138  0.4248  0.0897  0.0445
   58loPI   C3A  921  19.359   3.267   7.624 -0.0224  0.0457 -0.1904
   58loPI   C4A  922  19.534   3.317   7.228  0.4180 -0.0563  0.2575
   58loPI   C5A  923  19.536   3.708   6.976 -0.0153 -0.0005  0.0768
   58loPI   C6A  924  19.504   4.053   6.593 -0.2974 -0.0681 -0.0770
   58loPI   C1B  925  19.258   2.568   8.264 -0.2054  0.0708 -0.1130
   58loPI   C2B  926  19.280   2.660   7.878  0.2314  0.2360 -0.0281
   58loPI   C3B  927  19.341   2.751   7.467  0.2254 -0.0086  0.0011
   58loPI   C4B  928  19.597   2.785   7.044  0.1696  0.1872 -0.1170
   59loPI    C1  929   0.603   3.950   9.235 -0.2695 -0.1392  0.0580
   59loPI    C2  930   0.549   4.102   9.601  0.5272 -0.0929  0.1758
   59loPI    C3  931   0.564   3.706   9.549 -0.1413 -0.1198  0.0895
   59loPI   PO4  932   0.776   4.153   9.139  0.1915 -0.0867  0.1770
   59loPI   GL1  933   0.983   4.262   8.724 -0.1195 -0.1688 -0.1149
   59loPI   GL2  934   0.713   4.561   8.792  0.0434 -0.2088 -0.0232
   59loPI   C1A  935   1.185   4.337   8.307 -0.0154 -0.2806  0.0165
   59loPI   C2A  936   1.225   4.270   7.849  0.1624  0.1591  0.0076
   59loPI   C3A  937   1.348   4.470   7.531 -0.0233  0.0720 -0.2649
   59loPI   C4A  938   1.321   4.173   7.239  0.1255 -0.3864 -0.1974
   59loPI   C5A  939   1.586   3.892   7.120 -0.0685 -0.0383 -0.2342
   59loPI   C6A  940   2.058   3.820   7.201  0.0131  0.1686  0.6110
   59loPI   C1B  941   0.588   4.843   8.468  0.0540  0.1696  0.0430
   59loPI   C2B  942   0.279   4.746   8.046 -0.0329  0.0402  0.1117
   59loPI   C3B  943   0.297   4.631   7.650 -0.0886 -0.2682 -0.0252
   59loPI   C4B  944   0.368   4.295   7.397  0.0709  0.1630 -0.0032
   60loPI    C1  945  12.063  16.500   9.664 -0.0303 -0.1870  0.4291
   60loPI    C2  946  12.343  16.438   9.942  0.2501  0.2668  0.2586
   60loPI    C3  947  12.160  16.793   9.919 -0.0500  0.1059  0.1078
   60loPI   PO4  948  11.890  16.277   9.730  0.1907 -0.0026 -0.1764
   60loPI   GL1  949  11.658  16.262   9.320 -0.0825 -0.1137  0.1661
   60loPI   GL2  950  11.615  16.558   9.346 -0.1929 -0.1129  0.2057
   60loPI   C1A  951  11.436  16.415   8.894 -0.2643  0.0744 -0.2108
   60loPI   C2A  952  11.343  16.293   8.444  0.2693  0.0491 -0.0994
   60loPI   C3A  953  11.481  16.206   8.054 -0.2774  0.0752  0.3217
   60loPI   C4A  954  11.608  15.951   7.727 -0.0979 -0.1858 -0.2545
   60loPI   C5A  955  11.775  15.705   7.371 -0.0591  0.4446  0.4501
   60loPI   C6A  956  11.887  15.325   7.158 -0.0388 -0.1677  0.1007
   60loPI   C1B  957  11.958  16.629   9.063  0.0486  0.0228  0.1628
   60loPI   C2B  958  11.922  16.617   8.713  0.2360  0.1887  0.1553
   60loPI   C3B  959  12.264  16.780   8.340 -0.0120 -0.0486  0.0552
   60loPI   C4B  960  12.281  16.644   7.935 -0.0393 -0.3779 -0.2509
   61loPI    C1  961   7.605   5.934  10.144  0.1547  0.1943 -0.0141
   61loPI    C2  962   7.716   5.636  10.387 -0.2063  0.0774  0.0138
   61loPI    C3  963   7.836   6.010  10.461  0.0905 -0.0299  0.0886
   61loPI   PO4  964   7.505   5.679   9.884 -0.1480 -0.0140 -0.3937
   61loPI   GL1  965   7.547   5.578   9.541  0.1190  0.0753 -0.1092
   61loPI   GL2  966   7.479   5.837   9.261 -0.0883 -0.3917  0.0626
   61loPI   C1A  967   7.567   5.501   8.964  0.0333  0.0904  0.1996
   61loPI   C2A  968   7.642   5.626   8.523 -0.2057 -0.1192 -0.0405
   61loPI   C3A  969   7.568   5.529   8.167 -0.5933 -0.1955  0.0911
   61loPI   C4A  970   7.522   5.607   7.765 -0.0405  0.3249  0.0226
   61loPI   C5A  971   7.459   5.885   7.464 -0.3355 -0.0144  0.1860
   61loPI   C6A  972   7.411   6.349   7.252 -0.2124 -0.3254  0.0071
   61loPI   C1B  973   7.334   5.957   8.877 -0.4001  0.0553  0.0248
   61loPI   C2B  974   7.270   5.935   8.401  0.0869  0.3767  0.0683
   61loPI   C3B  975   7.073   5.765   8.042  0.2253  0.0794 -0.1202
   61loPI   C4B  976   7.139   5.359   7.981  0.1655  0.1593  0.0592
   62loPI    C1  977   0.071  12.211   9.520 -0.1547  0.1200 -0.0707
   62loPI    C2  978  -0.064  12.454   9.807  0.0978  0.0643  0.0982
   62loPI    C3  979   0.170  12.144   9.901  0.1931  0.0525 -0.1697
   62loPI   PO4  980   0.069  12.339   9.355 -0.4791 -0.0168 -0.1037
   62loPI   GL1  981   0.165  12.513   9.092  0.1826 -0.0393  0.0995
   62loPI   GL2  982   0.443  12.566   9.108  0.2364  0.0138 -0.1209
   62loPI   C1A  983   0.144  12.900   8.903  0.1160 -0.1176 -0.3766
   62loPI   C2A  984   0.052  13.115   8.625 -0.2720 -0.1188  0.3814
   62loPI   C3A  985  -0.108  13.419   8.541  0.2950 -0.2644  0.1231
   62loPI   C4A  986  -0.093  13.573   8.171 -0.2859 -0.0229 -0.0730
   62loPI   C5A  987  -0.196  13.395   7.753  0.0588  0.0278 -0.0393
   62loPI   C6A  988   0.013  12.933   7.637 -0.0102 -0.1294  0.2102
   62loPI   C1B  989   0.777  12.493   8.787 -0.0816  0.2883  0.4222
   62loPI   C2B  990   0.907  12.373   8.296  0.0121 -0.1240  0.0121
   62loPI   C3B  991   0.774  12.325   7.890  0.0354  0.1916  0.3158
   62loPI   C4B  992   0.522  12.532   7.546 -0.2672  0.0758 -0.2303
   63loPI    C1  993   9.539  16.575   9.953  0.1497  0.1518  0.2484
   63loPI    C2  994   9.636  16.214  10.095 -0.0442 -0.0210 -0.0485
   63loPI    C3  995   9.452  16.479  10.332  0.2068 -0.0694  0.2068
   63loPI   PO4  996   9.408  16.497   9.712  0.1995 -0.0691 -0.3206
   63loPI   GL1  997   9.424  16.733   9.379 -0.0581  0.1444 -0.0852
   63loPI   GL2  998   9.462  16.985   9.312  0.3294 -0.0362  0.1019
   63loPI   C1A  999   9.376  16.391   9.090 -0.1452  0.0855  0.3853
   63loPI   C2A 1000   9.405  16.421   8.633  0.0878  0.0094 -0.1250
   63loPI   C3A 1001   9.383  16.403   8.128  0.0312  0.2976  0.0870
   63loPI   C4A 1002   9.176  16.316   7.744 -0.0525 -0.1352 -0.1185
   63loPI   C5A 1003   8.777  16.193   7.594  0.0277 -0.1295  0.3033
   63loPI   C6A 1004   8.497  16.240   7.282  0.1372  0.2519 -0.2643
   63loPI   C1B 1005   9.361  16.869   8.888 -0.1375  0.0759  0.0698
   63loPI   C2B 1006   9.466  16.890   8.473 -0.0293  0.3080  0.0455
   63loPI   C3B 1007   9.525  16.860   8.058 -0.1605 -0.3969 -0.4053
   63loPI   C4B 1008   9.281  16.751   7.574 -0.0947  0.0550  0.1160
   64loPI    C1 1009   8.976   2.556  10.219  0.2020  0.1114  0.1012
   64loPI    C2 1010   8.975   2.772  10.556 -0.1741  0.3026 -0.0168
   64loPI    C3 1011   9.108   2.394  10.560  0.3283  0.4736  0.2288
   64loPI   PO4 1012   8.670   2.591  10.141  0.3951  0.3146  0.0222
   64loPI   GL1 1013   8.524   2.342   9.812 -0.0588 -0.0823  0.0867
   64loPI   GL2 1014   8.928   2.315   9.800  0.1280  0.0580 -0.1201
   64loPI   C1A 1015   8.583   2.341   9.373  0.2520  0.3101 -0.1043
   64loPI   C2A 1016   8.681   2.287   8.956  0.1842  0.0286  0.3046
   64loPI   C3A 1017   8.756   2.260   8.614  0.1649  0.0065 -0.0732
   64loPI   C4A 1018   8.892   2.247   8.210  0.0657 -0.1645  0.2933
   64loPI   C5A 1019   9.226   2.565   8.016  0.1611  0.0095 -0.4102
   64loPI   C6A 1020   9.523   2.760   7.623  0.1431 -0.0930 -0.0613
   64loPI   C1B 1021   9.055   2.506   9.439 -0.0757  0.0889 -0.1398
   64loPI   C2B 1022   9.192   2.406   8.998 -0.3444  0.2208  0.0969
   64loPI   C3B 1023   9.233   2.310   8.581  0.2910  0.1977 -0.0615
   64loPI   C4B 1024   9.547   2.230   8.310 -0.3421  0.2195  0.0537
   65loPI    C1 1025   9.929  16.848   9.759 -0.0280  0.1773 -0.1777
   65loPI    C2 1026   9.985  16.623  10.085 -0.3368 -0.1453 -0.3399
   65loPI    C3 1027   9.803  16.978  10.116  0.4928  0.2800 -0.0232
   65loPI   PO4 1028   9.957  16.818   9.530  0.1499  0.1071 -0.4365
   65loPI   GL1 1029  10.217  16.968   9.182  0.0576  0.0791  0.0168
   65loPI   GL2 1030   9.902  17.137   9.173  0.0483 -0.0745  0.1980
   65loPI   C1A 1031  10.376  17.098   8.781  0.0067 -0.0501  0.0528
   65loPI   C2A 1032  10.387  17.115   8.301 -0.1495  0.2002 -0.2266
   65loPI   C3A 1033  10.119  17.039   8.009  0.1305 -0.0096  0.0695
   65loPI   C4A 1034   9.926  17.011   7.596  0.1744 -0.2913 -0.1681
   65loPI   C5A 1035   9.686  16.862   7.134 -0.2183 -0.0324 -0.3755
   65loPI   C6A 1036   9.610  16.951   6.792  0.2401 -0.0171  0.0148
   65loPI   C1B 1037   9.802  17.235   8.722 -0.2021  0.1361  0.1007
   65loPI   C2B 1038   9.801  17.332   8.285 -0.3327 -0.0641  0.0941
   65loPI   C3B 1039   9.640  17.336   7.825 -0.0174  0.0973 -0.5076
   65loPI   C4B 1040   9.483  17.588   7.555 -0.0131 -0.0010  0.3156
   66loPI    C1 1041   4.754   8.884   9.902  0.0148  0.1749  0.3116
   66loPI    C2 1042   4.395   8.750  10.014 -0.1256  0.0562 -0.2493
   66loPI    C3 1043   4.524   9.106  10.143 -0.3936  0.0525  0.0445
   66loPI   PO4 1044   4.756   8.919   9.684 -0.0854  0.1831 -0.3429
   66loPI   GL1 1045   4.577   8.911   9.278 -0.0319  0.2560  0.2726
   66loPI   GL2 1046   4.596   9.244   9.090  0.0176  0.0013 -0.2635
   66loPI   C1A 1047   4.660   8.742   8.796 -0.0660  0.0187 -0.0600
   66loPI   C2A 1048   4.565   8.707   8.322 -0.2209 -0.0787 -0.1120
   66loPI   C3A 1049   4.516   8.546   7.950 -0.0461 -0.0587 -0.5612
   66loPI   C4A 1050   4.329   8.863   7.681  0.0494 -0.1608  0.2708
   66loPI   C5A 1051   3.973   8.937   7.478 -0.2877 -0.0428  0.0953
   66loPI   C6A 1052   3.736   9.223   7.369  0.0362  0.0672  0.1368
   66loPI   C1B 1053   4.281   9.110   8.686  0.0835  0.0241  0.0846
   66loPI   C2B 1054   4.321   9.155   8.220 -0.1883  0.1010 -0.1760
   66loPI   C3B 1055   4.425   9.345   7.826  0.1902  0.0636  0.0676
   66loPI   C4B 1056   4.355   9.705   7.542  0.0487  0.2563 -0.2860
   67loPI    C1 1057   5.672   3.314   9.702 -0.2221  0.0249  0.1613
   67loPI    C2 1058   5.690   3.713   9.679 -0.2547  0.0070 -0.2332
   67loPI    C3 1059   5.967   3.512   9.886 -0.3169  0.2410  0.0837
   67loPI   PO4 1060   5.565   3.311   9.382  0.0622 -0.2476 -0.2456
   67loPI   GL1 1061   5.770   3.213   9.058 -0.0945 -0.3070 -0.0483
   67loPI   GL2 1062   5.646   3.478   8.884  0.1360 -0.0300 -0.4133
   67loPI   C1A 1063   5.763   3.020   8.638  0.0285  0.1721 -0.2996
   67loPI   C2A 1064   5.885   3.015   8.201 -0.0602  0.1187  0.2593
   67loPI   C3A 1065   5.728   3.013   7.693 -0.2522  0.2038 -0.0494
   67loPI   C4A 1066   5.717   3.381   7.497 -0.1372 -0.2149  0.0208
   67loPI   C5A 1067   5.695   3.610   7.052  0.0613  0.1488 -0.2608
   67loPI   C6A 1068   5.760   3.770   6.592 -0.0793  0.3331  0.1328
   67loPI   C1B 1069   5.649   3.530   8.396 -0.0241  0.1705 -0.2862
   67loPI   C2B 1070   5.595   3.578   7.922 -0.0325 -0.1338 -0.0190
   67loPI   C3B 1071   5.417   3.791   7.625 -0.3380  0.3509 -0.2687
   67loPI   C4B 1072   5.022   3.822   7.416  0.1267  0.2807  0.1378
   68loPI    C1 1073  14.672   4.126   9.770  0.2773  0.0424 -0.0852
   68loPI    C2 1074  14.365   4.274   9.980  0.2725  0.1053 -0.1361
   68loPI    C3 1075  14.624   4.022  10.153  0.0446 -0.1537 -0.1647
   68loPI   PO4 1076  14.693   4.375   9.631  0.1630  0.1961  0.0040
   68loPI   GL1 1077  14.807   4.359   9.207  0.1785  0.1292 -0.2980
   68loPI   GL2 1078  14.923   4.046   9.133  0.1779 -0.0958 -0.0088
   68loPI   C1A 1079  14.824   4.688   8.930  0.1773  0.0232 -0.0434
   68loPI   C2A 1080  14.934   4.853   8.545 -0.0307 -0.0505 -0.0450
   68loPI   C3A 1081  15.191   4.897   8.140 -0.1643 -0.2696 -0.0901
   68loPI   C4A 1082  15.338   4.580   7.810  0.1164 -0.1048  0.0681
   68loPI   C5A 1083  15.287   4.179   7.583 -0.2284  0.0411  0.1597
   68loPI   C6A 1084  15.701   3.878   7.277 -0.2561 -0.3367  0.0553
   68loPI   C1B 1085  15.261   3.816   8.860 -0.2244 -0.1378 -0.1606
   68loPI   C2B 1086  15.650   3.848   8.524  0.0297  0.0072 -0.1032
   68loPI   C3B 1087  15.695   3.758   8.092 -0.0837  0.1283 -0.0229
   68loPI   C4B 1088  15.738   4.045   7.803  0.4762 -0.2164  0.0526
   69loPI    C1 1089   6.149   9.652   9.757  0.0196  0.0753  0.4169
   69loPI    C2 1090   6.235   9.397   9.461 -0.0243  0.1868  0.3071
   69loPI    C3 1091   6.271   9.281   9.842  0.2022  0.0977  0.2602
   69loPI   PO4 1092   5.949   9.773   9.605 -0.0640 -0.0431  0.0298
   69loPI   GL1 1093   5.840   9.575   9.096  0.1409  0.0395  0.0349
   69loPI   GL2 1094   5.738   9.884   9.159  0.1462 -0.0927  0.2166
   69loPI   C1A 1095   5.514   9.607   8.721 -0.1169  0.0897  0.2158
   69loPI   C2A 1096   5.696   9.574   8.320  0.2813  0.0128  0.3200
   69loPI   C3A 1097   5.940   9.435   8.001  0.1401  0.0530 -0.2078
   69loPI   C4A 1098   5.908   9.650   7.672  0.0009  0.0630  0.0399
   69loPI   C5A 1099   5.809  10.029   7.460 -0.1082  0.1602  0.1409
   69loPI   C6A 1100   5.487  10.288   7.496 -0.0295  0.3242  0.0558
   69loPI   C1B 1101   5.587  10.090   8.785  0.0727  0.2762  0.0467
   69loPI   C2B 1102   5.366   9.946   8.437 -0.0824  0.1111  0.0443
   69loPI   C3B 1103   5.046   9.876   8.206  0.1413  0.3356 -0.2394
   69loPI   C4B 1104   4.681   9.950   8.507  0.1919 -0.2707  0.1003
   70loPI    C1 1105   9.326   7.227  10.028  0.1327  0.0499  0.1169
   70loPI    C2 1106   9.145   7.014  10.314 -0.1660  0.0156 -0.0922
   70loPI    C3 1107   9.186   7.409  10.356 -0.0442 -0.0136  0.0778
   70loPI   PO4 1108   9.122   7.030   9.768  0.0734  0.3561  0.1209
   70loPI   GL1 1109   9.122   7.098   9.264 -0.0036 -0.0235  0.0651
   70loPI   GL2 1110   8.862   7.104   9.300  0.0184 -0.2209  0.1533
   70loPI   C1A 1111   9.432   6.797   9.259  0.0947  0.1567  0.1794
   70loPI   C2A 1112   9.726   6.660   8.871  0.5548 -0.1527 -0.2356
   70loPI   C3A 1113   9.683   6.563   8.475  0.0667  0.2923 -0.0932
   70loPI   C4A 1114   9.602   6.400   8.050 -0.2668  0.1927 -0.1104
   70loPI   C5A 1115   9.235   6.312   7.812 -0.0277  0.1149 -0.1418
   70loPI   C6A 1116   9.204   6.558   7.366 -0.3860  0.1202 -0.0632
   70loPI   C1B 1117   8.733   7.098   8.891 -0.0345  0.0135 -0.0310
   70loPI   C2B 1118   8.562   6.912   8.456 -0.2625 -0.0676 -0.6226
   70loPI   C3B 1119   8.737   6.999   8.043 -0.4062  0.3561 -0.0342
   70loPI   C4B 1120   9.037   6.764   7.799  0.0171 -0.4096  0.2905
   71loPI    C1 1121  16.509   0.031   8.959 -0.1755  0.0157 -0.0008
   71loPI    C2 1122  16.150   0.206   8.962 -0.0770  0.2200  0.0987
   71loPI    C3 1123  16.241  -0.069   9.238 -0.2976 -0.1304 -0.1676
   71loPI   PO4 1124  16.562   0.017   8.708 -0.0297  0.0003  0.1272
   71loPI   GL1 1125  16.425  -0.250   8.377 -0.1540  0.0130  0.2024
   71loPI   GL2 1126  16.580  -0.502   8.342 -0.1891  0.4348  0.0840
   71loPI   C1A 1127  16.402  -0.109   8.040 -0.1321 -0.3045  0.1068
   71loPI   C2A 1128  16.630  -0.427   7.756  0.2393 -0.0170  0.0790
   71loPI   C3A 1129  16.412  -0.702   7.449  0.1980 -0.0025 -0.1640
   71loPI   C4A 1130  16.227  -0.763   7.177 -0.0008 -0.2485 -0.0814
   71loPI   C5A 1131  15.919  -0.790   6.825  0.1246 -0.0528  0.1333
   71loPI   C6A 1132  15.615  -0.667   6.631  0.1785 -0.2430 -0.0437
   71loPI   C1B 1133  16.445  -0.874   8.161  0.0546  0.1575 -0.1935
   71loPI   C2B 1134  16.592  -1.296   7.936 -0.1558  0.1813 -0.0419
   71loPI   C3B 1135  16.856  -1.580   7.617  0.3294 -0.1027  0.0659
   71loPI   C4B 1136  17.146  -1.800   7.349  0.0653 -0.1022 -0.0616
   72loPI    C1 1137  10.191  10.988   9.482 -0.0643 -0.0117 -0.1510
   72loPI    C2 1138  10.504  11.015   9.730 -0.1783  0.4047 -0.0437
   72loPI    C3 1139  10.131  11.026   9.876 -0.2533 -0.2469 -0.1551
   72loPI   PO4 1140  10.302  11.141   9.245 -0.1791 -0.1265 -0.3954
   72loPI   GL1 1141  10.240  11.556   8.971  0.1526  0.0118  0.1152
   72loPI   GL2 1142  10.321  11.251   8.790  0.1141  0.1071 -0.3387
   72loPI   C1A 1143  10.565  11.625   8.521  0.0214  0.3285  0.0583
   72loPI   C2A 1144  10.505  11.534   8.092  0.0297  0.0489 -0.4031
   72loPI   C3A 1145  10.230  11.639   7.770 -0.0421 -0.2836 -0.0627
   72loPI   C4A 1146   9.906  11.807   7.405  0.1257 -0.0725 -0.1168
   72loPI   C5A 1147   9.531  11.655   7.313  0.1409  0.4637 -0.4356
   72loPI   C6A 1148   9.307  11.761   6.968 -0.3867  0.2833  0.3395
   72loPI   C1B 1149  10.132  11.287   8.342  0.2847  0.2029 -0.3246
   72loPI   C2B 1150  10.002  11.176   7.881  0.2332  0.0657  0.0373
   72loPI   C3B 1151   9.781  11.340   7.606  0.1451 -0.3763 -0.1677
   72loPI   C4B 1152   9.773  11.226   7.195 -0.2871 -0.3930 -0.1405
   73loPI    C1 1153  14.499  17.663   9.823 -0.3674 -0.0866 -0.0815
   73loPI    C2 1154  14.215  17.575  10.090 -0.1446  0.0227  0.1968
   73loPI    C3 1155  14.592  17.455  10.152 -0.0603  0.1850  0.0089
   73loPI   PO4 1156  14.414  17.934   9.745  0.0077  0.0777  0.0976
   73loPI   GL1 1157  14.344  18.169   9.406  0.1513 -0.0968  0.1408
   73loPI   GL2 1158  14.045  18.255   9.420 -0.2149 -0.2605 -0.1459
   73loPI   C1A 1159  14.410  18.141   8.945 -0.1527 -0.2101 -0.2690
   73loPI   C2A 1160  14.488  18.143   8.376  0.0857 -0.3115  0.1538
   73loPI   C3A 1161  14.656  18.291   7.959  0.1340 -0.0541 -0.0983
   73loPI   C4A 1162  14.414  18.425   7.603  0.1212  0.2407 -0.2636
   73loPI   C5A 1163  14.121  18.708   7.342  0.4331  0.4054  0.2514
   73loPI   C6A 1164  13.908  19.140   7.359  0.2525  0.1173  0.1478
   73loPI   C1B 1165  13.970  18.342   9.028 -0.5061  0.1320  0.4130
   73loPI   C2B 1166  13.927  18.408   8.554  0.3256  0.1717 -0.3095
   73loPI   C3B 1167  13.990  18.324   8.018  0.6935  0.1231  0.0080
   73loPI   C4B 1168  13.926  18.338   7.609 -0.0630 -0.0068  0.2305
   74loPI    C1 1169  17.821  13.629   9.937  0.4380 -0.0048 -0.1528
   74loPI    C2 1170  18.211  13.654   9.853  0.3774  0.4461 -0.3321
   74loPI    C3 1171  18.009  13.982   9.961  0.0724  0.1929 -0.1168
   74loPI   PO4 1172  17.644  13.595   9.724 -0.0054 -0.0225  0.0197
   74loPI   GL1 1173  17.516  13.549   9.262  0.1194 -0.0533 -0.2764
   74loPI   GL2 1174  17.403  13.768   9.140 -0.1358  0.1781  0.0423
   74loPI   C1A 1175  17.320  13.366   8.818 -0.0092  0.1527 -0.0161
   74loPI   C2A 1176  17.359  13.506   8.441  0.0769 -0.3193  0.0693
   74loPI   C3A 1177  17.453  13.398   7.987 -0.3415 -0.1970  0.0681
   74loPI   C4A 1178  17.742  13.320   7.609 -0.0035 -0.0689  0.0308
   74loPI   C5A 1179  18.074  13.443   7.281 -0.1858  0.1614 -0.3176
   74loPI   C6A 1180  18.234  13.866   6.958 -0.2609  0.2645 -0.0933
   74loPI   C1B 1181  17.336  13.970   8.674 -0.0662  0.1303  0.3081
   74loPI   C2B 1182  17.491  13.989   8.283  0.2270  0.0881 -0.1444
   74loPI   C3B 1183  17.391  13.875   7.888  0.1415 -0.1485 -0.0562
   74loPI   C4B 1184  17.256  13.878   7.552 -0.2369 -0.1336  0.2075
   75loPI    C1 1185  14.598  19.170   9.590  0.1992  0.1979 -0.2105
   75loPI    C2 1186  14.752  19.206   9.957 -0.0398  0.0303 -0.0907
   75loPI    C3 1187  14.767  18.854   9.768  0.2019  0.1488 -0.2997
   75loPI   PO4 1188  14.350  19.275   9.596 -0.0394 -0.1947  0.2667
   75loPI   GL1 1189  14.061  19.257   9.226  0.0764 -0.2686  0.0839
   75loPI   GL2 1190  14.309  19.190   9.121  0.0334 -0.1895 -0.1052
   75loPI   C1A 1191  13.693  19.350   8.959 -0.1709 -0.0659  0.2036
   75loPI   C2A 1192  13.461  19.630   8.659 -0.1995  0.3715  0.1250
   75loPI   C3A 1193  13.382  19.924   8.320 -0.2699 -0.0936  0.0627
   75loPI   C4A 1194  13.599  19.884   7.962  0.3242  0.3554 -0.0091
   75loPI   C5A 1195  13.637  19.688   7.499  0.3399  0.0590 -0.2545
   75loPI   C6A 1196  13.437  19.442   7.100 -0.0989 -0.0384  0.1759
   75loPI   C1B 1197  14.181  19.100   8.735 -0.0348 -0.1175  0.2019
   75loPI   C2B 1198  14.020  18.882   8.409 -0.1364  0.1379 -0.0708
   75loPI   C3B 1199  13.749  19.156   8.118 -0.3672 -0.0802 -0.2165
   75loPI   C4B 1200  13.512  19.200   7.686  0.0122 -0.0312  0.0046
   76loPI    C1 1201  13.270   4.348   9.418 -0.1737 -0.1930  0.2314
   76loPI    C2 1202  13.002   4.553   9.632 -0.1172 -0.0354  0.1527
   76loPI    C3 1203  13.323   4.739   9.483 -0.1595 -0.1419 -0.0746
   76loPI   PO4 1204  13.044   4.194   9.289  0.0012 -0.3783 -0.2655
   76loPI   GL1 1205  12.943   4.202   8.907  0.0471 -0.0939 -0.0487
   76loPI   GL2 1206  12.983   4.587   9.048  0.0343  0.1704  0.0496
   76loPI   C1A 1207  12.776   4.135   8.529 -0.2208  0.2318 -0.0477
   76loPI   C2A 1208  12.585   4.086   8.035 -0.2088  0.2557  0.2189
   76loPI   C3A 1209  12.399   4.046   7.559 -0.1929  0.0505 -0.0876
   76loPI   C4A 1210  12.400   3.773   7.243  0.3306  0.1736 -0.2611
   76loPI   C5A 1211  12.568   3.619   6.874  0.0110  0.0294  0.0631
   76loPI   C6A 1212  12.725   3.227   6.840 -0.1505 -0.0554  0.0906
   76loPI   C1B 1213  12.729   4.610   8.699  0.1648  0.0066 -0.1958
   76loPI   C2B 1214  12.765   4.647   8.320  0.0637 -0.2922  0.0508
   76loPI   C3B 1215  12.643   4.810   7.967 -0.0267 -0.3600 -0.0448
   76loPI   C4B 1216  12.559   5.164   7.625 -0.0317 -0.2412 -0.1458
   77loPI    C1 1217   3.284  16.527   9.796  0.0801 -0.3127 -0.0631
   77loPI    C2 1218   3.284  16.854  10.026 -0.0808 -0.1807 -0.2478
   77loPI    C3 1219   3.065  16.536  10.131 -0.2962 -0.0549 -0.3085
   77loPI   PO4 1220   3.255  16.612   9.572 -0.2517 -0.0036 -0.1204
   77loPI   GL1 1221   3.034  16.809   9.149 -0.0111  0.3007 -0.2302
   77loPI   GL2 1222   3.163  16.565   9.103  0.1405  0.1444  0.2366
   77loPI   C1A 1223   2.690  16.641   8.831 -0.2686 -0.0469 -0.1678
   77loPI   C2A 1224   2.793  16.676   8.387  0.0861  0.3626  0.2575
   77loPI   C3A 1225   2.847  16.729   7.948 -0.2458  0.0496 -0.0286
   77loPI   C4A 1226   2.871  16.871   7.496  0.0957 -0.0225  0.0335
   77loPI   C5A 1227   2.848  16.849   7.053 -0.3112 -0.3236 -0.1873
   77loPI   C6A 1228   2.860  16.507   6.809 -0.1717  0.4371  0.0433
   77loPI   C1B 1229   3.163  16.398   8.691  0.2410 -0.0457  0.0687
   77loPI   C2B 1230   3.207  16.380   8.295 -0.2355  0.3129 -0.1251
   77loPI   C3B 1231   3.298  16.433   7.930 -0.2011  0.1688 -0.1330
   77loPI   C4B 1232   3.286  16.213   7.572 -0.1778 -0.0772 -0.2185
   78loPI    C1 1233   2.203   2.480   9.676 -0.2630 -0.2152  0.0050
   78loPI    C2 1234   2.295   2.106   9.781 -0.3619 -0.1804  0.2201
   78loPI    C3 1235   2.314   2.400  10.051  0.0269  0.0276 -0.0255
   78loPI   PO4 1236   2.118   2.407   9.370 -0.1765  0.1823  0.1972
   78loPI   GL1 1237   2.225   2.322   8.895 -0.3905  0.0419  0.1422
   78loPI   GL2 1238   2.008   2.501   8.915 -0.2352 -0.0500 -0.2292
   78loPI   C1A 1239   2.569   2.451   8.673 -0.1174  0.2556  0.1712
   78loPI   C2A 1240   2.769   2.261   8.333  0.1220  0.1540  0.0969
   78loPI   C3A 1241   2.837   2.329   7.997  0.1920 -0.0583 -0.1256
   78loPI   C4A 1242   2.890   2.209   7.598 -0.3992 -0.1375 -0.0504
   78loPI   C5A 1243   3.231   2.310   7.298  0.0752  0.1201  0.1447
   78loPI   C6A 1244   3.360   2.629   6.961  0.1073  0.2344  0.2611
   78loPI   C1B 1245   2.164   2.612   8.503  0.1173  0.3037  0.0930
   78loPI   C2B 1246   1.999   2.738   7.984 -0.0908 -0.0653 -0.3103
   78loPI   C3B 1247   2.104   2.781   7.511 -0.1161  0.0238 -0.2237
   78loPI   C4B 1248   2.190   2.474   7.264 -0.0724 -0.3507  0.2024
   79loPI    C1 1249   8.566  18.261  10.399  0.1167  0.0068 -0.0443
   79loPI    C2 1250   8.472  18.589  10.608  0.0977  0.0970 -0.1928
   79loPI    C3 1251   8.719  18.316  10.764 -0.0571  0.0756  0.0190
   79loPI   PO4 1252   8.493  18.433  10.143 -0.1255 -0.0949 -0.2132
   79loPI   GL1 1253   8.487  18.201   9.672  0.3281  0.1192  0.0254
   79loPI   GL2 1254   8.362  18.322   9.373  0.0781  0.0711  0.0939
   79loPI   C1A 1255   8.911  18.317   9.235  0.1961 -0.1758 -0.3146
   79loPI   C2A 1256   9.102  18.178   8.748  0.0878  0.2484 -0.2168
   79loPI   C3A 1257   9.269  18.266   8.258 -0.0745  0.0874 -0.0529
   79loPI   C4A 1258   9.250  18.341   7.893 -0.1852 -0.0835 -0.1732
   79loPI   C5A 1259   9.046  18.573   7.510  0.1587 -0.3996 -0.3068
   79loPI   C6A 1260   8.812  18.952   7.391  0.1197  0.0780  0.2096
   79loPI   C1B 1261   8.480  18.162   8.934  0.0104  0.0375  0.0817
   79loPI   C2B 1262   8.514  18.033   8.524 -0.0076 -0.3372 -0.0888
   79loPI   C3B 1263   8.365  18.140   8.141  0.1092  0.0636 -0.3084
   79loPI   C4B 1264   8.336  18.219   7.709  0.1216  0.0083 -0.1151
   80loPI    C1 1265  10.981   9.435   9.918 -0.0297  0.0896  0.1421
   80loPI    C2 1266  11.130   9.532  10.276 -0.3317 -0.1679  0.3427
   80loPI    C3 1267  11.105   9.148  10.167 -0.1770 -0.0882  0.0128
   80loPI   PO4 1268  11.130   9.638   9.790  0.1729  0.0586 -0.2112
   80loPI   GL1 1269  11.096   9.846   9.390 -0.2666 -0.5298 -0.1388
   80loPI   GL2 1270  11.377   9.815   9.143  0.0415  0.1349 -0.0540
   80loPI   C1A 1271  10.846   9.759   9.015  0.0776 -0.1738  0.3718
   80loPI   C2A 1272  10.561   9.689   8.679 -0.0405 -0.2686 -0.2057
   80loPI   C3A 1273  10.567   9.899   8.358 -0.3022  0.0457  0.1132
   80loPI   C4A 1274  10.644  10.008   7.857  0.1550  0.2124 -0.0440
   80loPI   C5A 1275  10.639  10.216   7.443 -0.1331 -0.2677 -0.1539
   80loPI   C6A 1276  10.438  10.090   7.193 -0.1428 -0.1205  0.0712
   80loPI   C1B 1277  11.446   9.770   8.688  0.2363 -0.1723 -0.3965
   80loPI   C2B 1278  11.562   9.984   8.305  0.2539 -0.1290 -0.5100
   80loPI   C3B 1279  11.295  10.240   8.084  0.1586 -0.0230  0.0723
   80loPI   C4B 1280  11.182  10.261   7.739  0.1880  0.0130 -0.0502
   81loPI    C1 1281   8.662  14.898   9.695  0.0945  0.1169 -0.0425
   81loPI    C2 1282   8.565  14.760  10.057  0.0070 -0.0872 -0.1421
   81loPI    C3 1283   8.616  15.153  10.000  0.2771 -0.0760  0.1491
   81loPI   PO4 1284   8.793  14.677   9.596 -0.0091  0.1404  0.0845
   81loPI   GL1 1285   8.728  14.521   9.224 -0.2934 -0.0478 -0.1527
   81loPI   GL2 1286   8.998  14.627   9.133 -0.4838 -0.0043 -0.3607
   81loPI   C1A 1287   8.626  14.678   8.809 -0.1195 -0.1351  0.2803
   81loPI   C2A 1288   8.672  14.675   8.412  0.3158 -0.0480  0.4578
   81loPI   C3A 1289   8.758  14.455   8.027  0.1350  0.0702 -0.0879
   81loPI   C4A 1290   8.702  14.311   7.556 -0.1746 -0.0155 -0.0471
   81loPI   C5A 1291   8.818  14.180   7.253  0.1184  0.2239  0.3022
   81loPI   C6A 1292   8.591  13.899   6.893  0.1719 -0.3492  0.1058
   81loPI   C1B 1293   9.097  14.902   8.729 -0.1658  0.2176  0.2113
   81loPI   C2B 1294   9.080  15.007   8.241  0.2396 -0.0310 -0.0424
   81loPI   C3B 1295   8.898  14.909   7.853  0.0496 -0.2296  0.0005
   81loPI   C4B 1296   9.001  14.699   7.422 -0.4382  0.1308 -0.1343
   82loPI    C1 1297  17.642  10.287   9.581 -0.1944  0.0412 -0.2595
   82loPI    C2 1298  17.485  10.342   9.945  0.0468  0.0681 -0.1578
   82loPI    C3 1299  17.385  10.587   9.645 -0.0856  0.0992 -0.0887
   82loPI   PO4 1300  17.907  10.103   9.598 -0.0043 -0.3620  0.1111
   82loPI   GL1 1301  18.062   9.908   9.207 -0.0045  0.1350 -0.0437
   82loPI   GL2 1302  18.300   9.971   9.054  0.1079  0.0373 -0.1828
   82loPI   C1A 1303  17.904   9.640   8.924 -0.0691 -0.0928  0.0303
   82loPI   C2A 1304  17.789   9.557   8.489  0.1349  0.2178  0.1901
   82loPI   C3A 1305  17.648   9.513   8.098  0.3380 -0.0168  0.0298
   82loPI   C4A 1306  17.452   9.599   7.716 -0.2498  0.3742  0.0470
   82loPI   C5A 1307  17.493   9.850   7.295 -0.0072 -0.0812  0.1750
   82loPI   C6A 1308  17.419  10.190   6.889  0.1589  0.0544 -0.4750
   82loPI   C1B 1309  18.237   9.843   8.592  0.1198 -0.0984  0.0069
   82loPI   C2B 1310  18.556   9.913   8.348 -0.0521 -0.2137  0.0828
   82loPI   C3B 1311  18.603   9.987   7.896  0.3054  0.4001  0.1579
   82loPI   C4B 1312  18.411   9.683   7.626  0.2324 -0.2775  0.1037
   83loPI    C1 1313   9.077  13.819   9.796 -0.3629  0.1282  0.0409
   83loPI    C2 1314   9.082  13.536  10.078  0.5272  0.2621  0.1879
   83loPI    C3 1315   9.075  13.921  10.183  0.0259  0.3108 -0.0003
   83loPI   PO4 1316   8.865  13.743   9.608 -0.1302 -0.0300 -0.2222
   83loPI   GL1 1317   8.855  13.427   9.192  0.1088 -0.4696 -0.2712
   83loPI   GL2 1318   8.603  13.558   9.124  0.0533 -0.0390 -0.2313
   83loPI   C1A 1319   8.828  13.179   8.834 -0.1247  0.2526  0.1697
   83loPI   C2A 1320   8.710  13.267   8.391  0.2005 -0.1153  0.0915
   83loPI   C3A 1321   8.829  13.450   8.089 -0.3151 -0.0167  0.0084
   83loPI   C4A 1322   9.144  13.584   7.821 -0.0214  0.3357  0.1543
   83loPI   C5A 1323   9.239  13.940   7.579 -0.1286 -0.1874 -0.0320
   83loPI   C6A 1324   9.320  14.219   7.274 -0.3042  0.1715  0.1911
   83loPI   C1B 1325   8.604  13.699   8.655  0.0517  0.0389 -0.3084
   83loPI   C2B 1326   8.383  13.620   8.346  0.2915  0.1131  0.4506
   83loPI   C3B 1327   8.405  13.444   7.775 -0.0370 -0.0630 -0.1816
   83loPI   C4B 1328   8.427  13.126   7.423  0.0122 -0.1198  0.1992
   84loPI    C1 1329  10.824   7.996   9.682 -0.0891  0.1065  0.1144
   84loPI    C2 1330  10.894   7.878  10.058  0.0600 -0.0418  0.0415
   84loPI    C3 1331  10.577   7.736   9.859  0.0673 -0.0825  0.0588
   84loPI   PO4 1332  11.125   8.010   9.591 -0.1371 -0.2254 -0.0006
   84loPI   GL1 1333  11.210   8.108   9.244  0.0892  0.3282  0.4723
   84loPI   GL2 1334  11.133   8.394   9.111  0.1412 -0.4983 -0.1272
   84loPI   C1A 1335  11.158   7.991   8.797 -0.1318  0.2377 -0.3803
   84loPI   C2A 1336  10.983   8.049   8.465 -0.1502  0.1255 -0.0751
   84loPI   C3A 1337  10.746   8.304   8.146 -0.2354  0.0401  0.0275
   84loPI   C4A 1338  10.649   8.233   7.778  0.0297 -0.0588  0.0549
   84loPI   C5A 1339  10.454   8.086   7.407 -0.1172 -0.1394 -0.0815
   84loPI   C6A 1340   9.985   7.818   7.383  0.1626 -0.2648 -0.1472
   84loPI   C1B 1341  10.691   8.161   8.940  0.1316  0.2622 -0.5702
   84loPI   C2B 1342  10.424   8.065   8.521  0.0095  0.1004  0.0852
   84loPI   C3B 1343  10.213   8.193   8.221  0.1837  0.2695  0.1651
   84loPI   C4B 1344   9.820   8.163   7.914  0.4492  0.1165 -0.0719
   85loPI    C1 1345   7.979  14.017  10.159 -0.0336 -0.0306 -0.0934
   85loPI    C2 1346   7.925  13.685  10.376  0.1560 -0.1775 -0.2674
   85loPI    C3 1347   8.266  13.892  10.408 -0.1200  0.2324  0.1433
   85loPI   PO4 1348   8.040  13.906   9.887  0.0448  0.0923  0.0875
   85loPI   GL1 1349   8.310  13.900   9.483 -0.0029 -0.2715 -0.2989
   85loPI   GL2 1350   8.539  14.057   9.327 -0.1187  0.0190  0.1552
   85loPI   C1A 1351   8.117  13.755   9.145  0.2627 -0.0730  0.2979
   85loPI   C2A 1352   8.019  13.744   8.701 -0.1374  0.3278 -0.1073
   85loPI   C3A 1353   7.867  13.602   8.248  0.0706 -0.0957 -0.2048
   85loPI   C4A 1354   8.009  13.716   7.712  0.2632  0.1599 -0.1863
   85loPI   C5A 1355   8.315  14.035   7.430  0.2916  0.1518  0.3031
   85loPI   C6A 1356   8.361  14.298   7.137  0.1036 -0.0029 -0.4309
   85loPI   C1B 1357   8.443  14.101   8.949  0.0594  0.1016  0.1802
   85loPI   C2B 1358   8.529  14.258   8.562 -0.1347  0.2382  0.1331
   85loPI   C3B 1359   8.610  14.061   8.276 -0.0589  0.1554  0.0679
   85loPI   C4B 1360   8.578  13.930   7.869 -0.0017 -0.0872  0.3082
   86loPI    C1 1361   3.049  15.135   9.920  0.1120  0.1170 -0.0786
   86loPI    C2 1362   3.324  15.382  10.073  0.2254 -0.0163 -0.0656
   86loPI    C3 1363   3.100  15.158  10.316  0.1076  0.0889 -0.0766
   86loPI   PO4 1364   3.169  14.994   9.690 -0.1003 -0.1878 -0.1843
   86loPI   GL1 1365   3.269  15.002   9.282  0.0839  0.1129 -0.0964
   86loPI   GL2 1366   2.897  14.854   9.313 -0.1985  0.5802 -0.0796
   86loPI   C1A 1367   3.409  15.128   8.928  0.0161 -0.0427  0.0632
   86loPI   C2A 1368   3.316  15.229   8.607 -0.4446  0.5030  0.0462
   86loPI   C3A 1369   3.297  15.263   8.136 -0.0804  0.1492  0.2835
   86loPI   C4A 1370   3.106  15.175   7.748  0.0306 -0.1532 -0.2796
   86loPI   C5A 1371   3.129  15.361   7.357  0.0711 -0.0757 -0.3874
   86loPI   C6A 1372   2.780  15.613   7.052 -0.0238  0.2068  0.4042
   86loPI   C1B 1373   3.078  14.767   8.898  0.1309 -0.0782  0.0240
   86loPI   C2B 1374   3.194  14.714   8.466 -0.1555  0.0785  0.2800
   86loPI   C3B 1375   3.322  14.432   8.163 -0.0359  0.2740  0.2304
   86loPI   C4B 1376   3.591  14.410   7.787 -0.2398  0.0393  0.0711
   87loPI    C1 1377   7.267  17.866   9.715  0.1659  0.1902  0.0438
   87loPI    C2 1378   7.150  17.627  10.014  0.2870  0.0504 -0.0193
   87loPI    C3 1379   7.389  17.939  10.089 -0.0281  0.2697  0.0927
   87loPI   PO4 1380   7.015  17.946   9.653  0.2513 -0.0503 -0.0484
   87loPI   GL1 1381   6.839  17.906   9.201 -0.0103 -0.0169 -0.2421
   87loPI   GL2 1382   7.099  17.957   9.120 -0.0433  0.0662  0.1643
   87loPI   C1A 1383   6.752  17.824   8.717  0.2862  0.2026 -0.3808
   87loPI   C2A 1384   6.841  17.802   8.350 -0.1984  0.0609 -0.1779
   87loPI   C3A 1385   6.803  17.744   7.910  0.0541  0.2308 -0.0750
   87loPI   C4A 1386   6.778  17.635   7.510 -0.3473  0.1743 -0.0891
   87loPI   C5A 1387   6.652  17.478   7.228  0.3260 -0.2481 -0.2609
   87loPI   C6A 1388   6.314  17.203   7.292  0.1292  0.1812 -0.2138
   87loPI   C1B 1389   7.425  18.201   8.996 -0.0461  0.0322  0.0827
   87loPI   C2B 1390   7.635  18.319   8.683  0.1514 -0.0423  0.0493
   87loPI   C3B 1391   7.738  18.268   8.286  0.1196  0.0343 -0.1564
   87loPI   C4B 1392   7.885  18.438   7.945  0.2674  0.4296  0.3860
   88loPI    C1 1393   6.065  17.989   9.695  0.1972 -0.0977 -0.1213
   88loPI    C2 1394   5.778  17.904   9.960  0.1203 -0.0928 -0.2025
   88loPI    C3 1395   6.012  18.224  10.014 -0.1212  0.1079 -0.3188
   88loPI   PO4 1396   5.981  18.043   9.430  0.2111  0.0450 -0.0439
   88loPI   GL1 1397   5.982  18.220   9.021  0.0672 -0.0982 -0.0491
   88loPI   GL2 1398   5.814  18.541   9.125 -0.2962  0.2848  0.0043
   88loPI   C1A 1399   6.310  18.136   8.821  0.0110  0.0203 -0.1246
   88loPI   C2A 1400   6.580  18.274   8.511 -0.0189  0.3816  0.1673
   88loPI   C3A 1401   6.683  18.327   8.069 -0.0702  0.0085  0.2089
   88loPI   C4A 1402   7.056  18.397   7.884 -0.0543  0.2794 -0.0015
   88loPI   C5A 1403   7.100  18.543   7.506 -0.1635  0.2703  0.3853
   88loPI   C6A 1404   7.429  18.789   7.266  0.3301 -0.0971 -0.0615
   88loPI   C1B 1405   6.073  18.550   8.684 -0.0936  0.1388  0.2429
   88loPI   C2B 1406   6.047  18.414   8.314  0.2733  0.0786  0.1578
   88loPI   C3B 1407   6.130  18.460   7.906 -0.4265 -0.1437  0.1206
   88loPI   C4B 1408   5.946  18.217   7.616  0.0625 -0.1145 -0.2792
   89loPI    C1 1409   0.800  17.627   9.606 -0.2158  0.0384  0.0219
   89loPI    C2 1410   0.900  17.902   9.879 -0.0903 -0.0679  0.0839
   89loPI    C3 1411   0.987  17.516   9.942 -0.2265 -0.1169 -0.0226
   89loPI   PO4 1412   0.742  17.724   9.405  0.3967  0.2982 -0.0532
   89loPI   GL1 1413   1.011  17.498   9.113 -0.0096 -0.3350  0.2885
   89loPI   GL2 1414   1.132  17.796   8.982 -0.1823 -0.3778 -0.2312
   89loPI   C1A 1415   1.010  17.188   8.809  0.2029 -0.1418 -0.2473
   89loPI   C2A 1416   1.029  17.262   8.372 -0.0179  0.0091  0.0374
   89loPI   C3A 1417   0.900  17.329   7.937 -0.0818  0.0672  0.3544
   89loPI   C4A 1418   1.053  17.106   7.575 -0.2606  0.0576  0.1562
   89loPI   C5A 1419   1.224  17.212   7.240  0.2086  0.1116 -0.1482
   89loPI   C6A 1420   1.387  16.903   6.984  0.0626 -0.0419 -0.3429
   89loPI   C1B 1421   1.228  17.754   8.558  0.3969  0.0846  0.1884
   89loPI   C2B 1422   1.477  17.583   8.258 -0.0410  0.0237 -0.0592
   89loPI   C3B 1423   1.438  17.611   7.756 -0.0720  0.1365  0.0516
   89loPI   C4B 1424   1.373  17.872   7.500 -0.0085 -0.2105  0.1640
   90loPI    C1 1425  12.771  14.804   9.675 -0.0394 -0.0594 -0.0715
   90loPI    C2 1426  12.428  14.692   9.503 -0.1011 -0.0096  0.0178
   90loPI    C3 1427  12.633  14.433   9.727  0.1861 -0.2020 -0.4524
   90loPI   PO4 1428  12.864  14.945   9.500 -0.0946  0.0498  0.1915
   90loPI   GL1 1429  13.031  15.100   9.085 -0.0229  0.1119  0.1492
   90loPI   GL2 1430  13.205  15.275   9.284 -0.1126 -0.1862  0.0991
   90loPI   C1A 1431  12.912  14.861   8.796  0.4196 -0.3654 -0.2018
   90loPI   C2A 1432  12.760  14.771   8.462 -0.1791  0.2701 -0.0612
   90loPI   C3A 1433  12.767  14.788   7.931 -0.0949  0.0169  0.0415
   90loPI   C4A 1434  12.747  14.771   7.502 -0.1225 -0.0964 -0.0956
   90loPI   C5A 1435  12.434  15.083   7.236  0.1225  0.2144 -0.2183
   90loPI   C6A 1436  12.074  14.951   6.955  0.0625  0.1256 -0.3563
   90loPI   C1B 1437  13.321  15.403   8.803  0.3074  0.1423 -0.0854
   90loPI   C2B 1438  13.261  15.601   8.369  0.5532 -0.3250  0.2191
   90loPI   C3B 1439  13.230  15.406   8.112 -0.0778 -0.0866 -0.0902
   90loPI   C4B 1440  13.334  15.429   7.663  0.1879  0.1982 -0.0016
   91loPI    C1 1441   3.611  18.195   9.687 -0.2388  0.0081 -0.0616
   91loPI    C2 1442   3.355  18.492   9.765 -0.0192  0.1614  0.0882
   91loPI    C3 1443   3.721  18.496   9.925  0.1131 -0.0056 -0.2006
   91loPI   PO4 1444   3.409  18.076   9.464  0.2017  0.1791 -0.1158
   91loPI   GL1 1445   3.104  18.337   9.166 -0.2359  0.0774 -0.1724
   91loPI   GL2 1446   2.917  18.704   8.993  0.1501  0.0758  0.1148
   91loPI   C1A 1447   3.332  17.984   8.802 -0.1989  0.0397  0.2946
   91loPI   C2A 1448   3.334  18.025   8.356 -0.0352  0.0154  0.0336
   91loPI   C3A 1449   3.439  17.964   7.889 -0.2454  0.3525  0.2607
   91loPI   C4A 1450   3.731  17.790   7.930  0.0493 -0.0993  0.1571
   91loPI   C5A 1451   3.806  17.796   8.349  0.1921  0.0028  0.3044
   91loPI   C6A 1452   3.868  17.899   8.711  0.0265 -0.2493  0.1296
   91loPI   C1B 1453   2.938  18.288   8.646 -0.2396 -0.1147 -0.1905
   91loPI   C2B 1454   2.904  18.223   8.184  0.1290  0.3099 -0.0102
   91loPI   C3B 1455   2.681  18.438   7.888  0.3362  0.3657 -0.1702
   91loPI   C4B 1456   2.358  18.544   7.455  0.1226 -0.3013 -0.0099
   92loPI    C1 1457   6.911   1.273  10.258  0.0576 -0.1216  0.0138
   92loPI    C2 1458   7.271   1.361  10.407 -0.0192  0.1149  0.0635
   92loPI    C3 1459   6.967   1.616  10.455 -0.1405  0.0163 -0.1654
   92loPI   PO4 1460   6.977   1.317   9.938  0.1133  0.0637  0.0878
   92loPI   GL1 1461   7.067   1.568   9.615 -0.1973  0.0162  0.1771
   92loPI   GL2 1462   6.778   1.828   9.533  0.1541 -0.2633 -0.2279
   92loPI   C1A 1463   7.249   1.838   9.240  0.1371  0.1144  0.0601
   92loPI   C2A 1464   7.378   1.945   8.801  0.3558  0.0984  0.0525
   92loPI   C3A 1465   7.335   1.972   8.310  0.0766 -0.1444  0.0737
   92loPI   C4A 1466   7.354   2.049   7.833 -0.1330  0.0753 -0.4250
   92loPI   C5A 1467   7.220   1.949   7.411  0.0263 -0.0827 -0.1528
   92loPI   C6A 1468   7.035   1.763   7.093  0.1587  0.1195  0.0827
   92loPI   C1B 1469   6.818   1.645   9.131  0.1511  0.0277 -0.1434
   92loPI   C2B 1470   6.724   1.691   8.691 -0.0336  0.1385 -0.0168
   92loPI   C3B 1471   6.898   1.753   8.411  0.0067 -0.1730  0.2692
   92loPI   C4B 1472   6.869   1.735   7.977 -0.0949 -0.3264 -0.1436
   93loPI    C1 1473   8.741   6.161  10.200  0.0720  0.0712 -0.0830
   93loPI    C2 1474   8.451   6.409  10.318  0.1628  0.1928 -0.1131
   93loPI    C3 1475   8.766   6.342  10.556  0.1420  0.1118 -0.1083
   93loPI   PO4 1476   8.753   6.269   9.892 -0.2849  0.1099 -0.0999
   93loPI   GL1 1477   8.766   6.102   9.515 -0.1505  0.0071  0.0451
   93loPI   GL2 1478   8.874   5.812   9.407  0.1064  0.0276  0.0849
   93loPI   C1A 1479   9.080   6.194   9.211  0.2025 -0.3254 -0.1314
   93loPI   C2A 1480   9.101   6.563   8.984 -0.0533  0.2457 -0.1126
   93loPI   C3A 1481   9.270   6.790   8.694 -0.1687  0.0893 -0.1475
   93loPI   C4A 1482   9.324   6.800   8.239  0.2019 -0.1176 -0.3057
   93loPI   C5A 1483   9.629   6.887   7.844  0.1357  0.2818  0.0237
   93loPI   C6A 1484   9.657   6.528   7.591  0.0683  0.0286  0.2173
   93loPI   C1B 1485   8.937   5.603   9.008  0.0269 -0.1333 -0.0712
   93loPI   C2B 1486   9.129   5.540   8.605 -0.0584  0.1504  0.2201
   93loPI   C3B 1487   9.089   5.409   8.139  0.1361  0.0182  0.0698
   93loPI   C4B 1488   9.033   5.171   7.787 -0.2117  0.0084  0.1068
   94loPI    C1 1489   7.526   2.159  10.230  0.0756  0.0472  0.1161
   94loPI    C2 1490   7.397   2.256  10.596  0.0664  0.1264  0.0924
   94loPI    C3 1491   7.394   1.874  10.477 -0.2321  0.1367  0.0594
   94loPI   PO4 1492   7.398   2.348  10.052  0.0580 -0.0357  0.4878
   94loPI   GL1 1493   7.603   2.523   9.600 -0.1001  0.0311  0.0009
   94loPI   GL2 1494   7.711   2.131   9.668 -0.1127 -0.0729  0.0159
   94loPI   C1A 1495   7.699   2.798   9.269 -0.1178 -0.0653  0.3405
   94loPI   C2A 1496   7.748   2.813   8.865  0.1939 -0.1598 -0.0073
   94loPI   C3A 1497   7.855   2.796   8.429  0.3442 -0.0389 -0.1342
   94loPI   C4A 1498   7.982   2.751   7.982  0.2961 -0.0135 -0.0918
   94loPI   C5A 1499   7.785   2.851   7.610  0.3163 -0.1379 -0.2165
   94loPI   C6A 1500   7.826   2.704   7.259 -0.3554 -0.0404  0.0912
   94loPI   C1B 1501   7.792   1.881   9.322 -0.2029 -0.0768  0.0035
   94loPI   C2B 1502   8.055   1.702   8.909  0.3942  0.0422  0.2809
   94loPI   C3B 1503   8.214   1.617   8.521  0.1208 -0.0674 -0.0415
   94loPI   C4B 1504   8.306   1.456   8.066 -0.0678 -0.4286  0.1780
   95loPI    C1 1505   7.837  14.506  10.151 -0.0440 -0.2287  0.1842
   95loPI    C2 1506   8.224  14.486  10.250 -0.0258  0.1619  0.2073
   95loPI    C3 1507   7.943  14.386  10.518  0.0509  0.1936  0.3000
   95loPI   PO4 1508   7.965  14.391   9.828 -0.3345  0.1979  0.1283
   95loPI   GL1 1509   7.801  14.235   9.454 -0.4235 -0.0192 -0.0825
   95loPI   GL2 1510   7.739  13.978   9.408 -0.1954 -0.3605 -0.3523
   95loPI   C1A 1511   8.021  14.369   9.067  0.1171 -0.1153 -0.1842
   95loPI   C2A 1512   8.061  14.209   8.597  0.0348 -0.0847 -0.0650
   95loPI   C3A 1513   8.140  14.080   8.179 -0.2636 -0.0412 -0.2662
   95loPI   C4A 1514   8.157  14.341   7.813  0.2647 -0.2748 -0.1377
   95loPI   C5A 1515   7.890  14.700   7.539  0.0058  0.1458 -0.4483
   95loPI   C6A 1516   7.632  15.105   7.659 -0.0437  0.0162  0.1199
   95loPI   C1B 1517   7.627  13.981   8.963  0.2239 -0.3745  0.1060
   95loPI   C2B 1518   7.180  14.093   8.835  0.1055 -0.1124 -0.3049
   95loPI   C3B 1519   6.881  14.113   8.480  0.0837 -0.2075  0.0051
   95loPI   C4B 1520   6.737  14.359   8.295  0.2783  0.4574  0.3470
   96loPI    C1 1521  13.895   2.315   9.802 -0.0957  0.0422  0.2041
   96loPI    C2 1522  14.226   2.129   9.928 -0.0299 -0.0325 -0.0713
   96loPI    C3 1523  13.967   2.279  10.193  0.0876 -0.2146  0.1494
   96loPI   PO4 1524  13.923   2.116   9.490  0.0830 -0.1231  0.0739
   96loPI   GL1 1525  14.015   2.428   9.137  0.0191  0.2638 -0.1540
   96loPI   GL2 1526  14.120   2.211   8.974  0.1030  0.0530  0.2803
   96loPI   C1A 1527  13.878   2.679   8.758  0.0980 -0.4190 -0.0414
   96loPI   C2A 1528  13.924   2.764   8.397 -0.1708 -0.1485 -0.1896
   96loPI   C3A 1529  13.988   2.757   7.917  0.1025  0.3017 -0.1519
   96loPI   C4A 1530  14.241   2.925   7.553 -0.2393 -0.4835 -0.2173
   96loPI   C5A 1531  14.475   3.232   7.464 -0.0881  0.1270 -0.2162
   96loPI   C6A 1532  14.467   3.624   7.493 -0.2615  0.0226 -0.1746
   96loPI   C1B 1533  14.161   2.184   8.599 -0.2280 -0.4555 -0.2592
   96loPI   C2B 1534  14.203   2.354   8.127 -0.0013 -0.1756  0.2136
   96loPI   C3B 1535  14.341   2.435   7.749 -0.0053 -0.3129 -0.1098
   96loPI   C4B 1536  14.435   2.492   7.340  0.0909  0.2437  0.0435
   97loPI    C1 1537   1.456   7.187   9.465 -0.0127  0.0818  0.0274
   97loPI    C2 1538   1.190   7.480   9.408  0.1403  0.1959 -0.1145
   97loPI    C3 1539   1.165   7.246   9.732 -0.0900  0.2491 -0.0920
   97loPI   PO4 1540   1.478   7.110   9.209 -0.3871  0.4262 -0.1728
   97loPI   GL1 1541   1.463   7.233   8.843  0.0660  0.2646 -0.0815
   97loPI   GL2 1542   1.823   7.064   8.786 -0.0681 -0.0043 -0.3835
   97loPI   C1A 1543   1.406   7.472   8.482 -0.0735  0.0723  0.1667
   97loPI   C2A 1544   1.400   7.498   7.971 -0.0402  0.3358 -0.0660
   97loPI   C3A 1545   1.165   7.459   7.605  0.1076 -0.1952 -0.1851
   97loPI   C4A 1546   0.915   7.352   7.323 -0.3849 -0.1290  0.3332
   97loPI   C5A 1547   0.505   7.670   7.030 -0.2072 -0.0436 -0.2215
   97loPI   C6A 1548   0.380   7.598   6.570 -0.1051 -0.0595  0.1656
   97loPI   C1B 1549   1.693   6.994   8.464  0.0429 -0.4956 -0.5621
   97loPI   C2B 1550   1.347   6.994   8.326  0.0054 -0.5209  0.1754
   97loPI   C3B 1551   1.122   7.082   7.980 -0.3872 -0.0260  0.0180
   97loPI   C4B 1552   0.820   6.717   7.964 -0.4736  0.1492  0.0247
   98loPI    C1 1553  15.156   8.441   9.686  0.2728  0.0968  0.2622
   98loPI    C2 1554  14.910   8.182   9.866  0.2219  0.0362  0.1069
   98loPI    C3 1555  14.972   8.543  10.026 -0.0727  0.1022  0.0785
   98loPI   PO4 1556  15.149   8.343   9.401 -0.1740  0.3167 -0.1497
   98loPI   GL1 1557  15.238   8.148   9.049  0.0905 -0.3558 -0.0061
   98loPI   GL2 1558  15.212   7.800   9.047 -0.0821 -0.0189  0.1972
   98loPI   C1A 1559  15.398   8.093   8.607  0.1576 -0.1290 -0.4270
   98loPI   C2A 1560  15.371   7.962   8.233  0.0615  0.1727  0.1464
   98loPI   C3A 1561  15.407   7.692   7.834  0.0857 -0.1755 -0.2174
   98loPI   C4A 1562  15.192   7.332   7.648  0.3824 -0.2741 -0.1418
   98loPI   C5A 1563  14.885   7.253   7.446  0.0972  0.0184  0.1607
   98loPI   C6A 1564  14.891   6.836   7.111 -0.0951 -0.0415  0.3053
   98loPI   C1B 1565  15.228   7.625   8.642  0.0135  0.1278 -0.1137
   98loPI   C2B 1566  15.084   7.493   8.243 -0.2098 -0.1699 -0.0328
   98loPI   C3B 1567  14.750   7.430   7.995  0.2533  0.0390  0.6594
   98loPI   C4B 1568  14.429   7.578   8.016 -0.1179  0.0160  0.1560
   99loPI    C1 1569   1.677  11.785  10.236 -0.3616 -0.0166  0.1164
   99loPI    C2 1570   1.454  11.532  10.452 -0.1715  0.0281  0.3698
   99loPI    C3 1571   1.821  11.632  10.577 -0.0503  0.0422  0.0140
   99loPI   PO4 1572   1.715  11.660  10.025  0.2037  0.1938  0.0323
   99loPI   GL1 1573   1.544  11.502   9.764 -0.0002 -0.1028 -0.1618
   99loPI   GL2 1574   1.341  11.655   9.596 -0.0402 -0.0355 -0.2357
   99loPI   C1A 1575   1.811  11.399   9.371 -0.1287 -0.2142  0.1203
   99loPI   C2A 1576   2.138  11.277   9.055 -0.2043 -0.1284  0.0418
   99loPI   C3A 1577   2.234  11.240   8.576  0.0791  0.1085  0.1365
   99loPI   C4A 1578   2.347  11.306   8.111  0.0750 -0.3287  0.1097
   99loPI   C5A 1579   2.235  11.215   7.671  0.0253  0.0731 -0.0086
   99loPI   C6A 1580   2.001  11.111   7.267 -0.1088  0.2440 -0.1631
   99loPI   C1B 1581   1.475  11.750   9.188  0.1807 -0.1677 -0.0194
   99loPI   C2B 1582   1.575  11.812   8.790 -0.1363 -0.0329 -0.1838
   99loPI   C3B 1583   1.538  11.936   8.380 -0.1250  0.3074 -0.0288
   99loPI   C4B 1584   1.672  11.929   7.970  0.0353 -0.1241 -0.0041
  100loPI    C1 1585   3.263   2.512   9.620 -0.0064  0.1608 -0.0995
  100loPI    C2 1586   3.104   2.849   9.764 -0.0669  0.0741  0.0382
  100loPI    C3 1587   3.166   2.538  10.007  0.0899  0.0234 -0.0656
  100loPI   PO4 1588   3.432   2.501   9.351 -0.0234  0.2273 -0.2768
  100loPI   GL1 1589   3.497   2.730   9.003 -0.0709 -0.1984  0.0636
  100loPI   GL2 1590   3.916   2.844   9.104  0.0731 -0.1849  0.1821
  100loPI   C1A 1591   3.511   2.652   8.605 -0.1814 -0.1057  0.0397
  100loPI   C2A 1592   3.625   2.596   8.151  0.2351 -0.2135  0.1260
  100loPI   C3A 1593   3.626   2.417   7.722 -0.3814 -0.0707  0.2987
  100loPI   C4A 1594   3.730   2.507   7.281 -0.0400  0.5129  0.1956
  100loPI   C5A 1595   3.954   2.504   6.934 -0.1128  0.0860  0.1749
  100loPI   C6A 1596   4.032   2.847   6.656  0.0023  0.4111 -0.0752
  100loPI   C1B 1597   3.891   3.009   8.707  0.4102 -0.2812  0.4151
  100loPI   C2B 1598   3.957   2.988   8.243 -0.4528 -0.0823 -0.1563
  100loPI   C3B 1599   4.281   3.006   8.034 -0.0750  0.1194 -0.0172
  100loPI   C4B 1600   4.650   2.984   7.873 -0.2817  0.3393  0.1011
  101loPI    C1 1601   6.555  15.734  10.032  0.0815 -0.1750 -0.3531
  101loPI    C2 1602   6.942  15.735   9.931  0.2413 -0.0651  0.2216
  101loPI    C3 1603   6.808  15.480  10.209 -0.1028 -0.1000  0.0300
  101loPI   PO4 1604   6.437  15.718   9.809  0.0551  0.0546 -0.1042
  101loPI   GL1 1605   6.617  15.702   9.364  0.2488  0.0305 -0.0421
  101loPI   GL2 1606   6.922  15.539   9.389  0.2328 -0.0832  0.1070
  101loPI   C1A 1607   6.507  15.382   9.147  0.2712  0.0661  0.0867
  101loPI   C2A 1608   6.270  15.325   8.851 -0.1416 -0.0259  0.3954
  101loPI   C3A 1609   6.310  15.305   8.488  0.2009 -0.0558  0.0164
  101loPI   C4A 1610   5.940  15.277   8.181 -0.0095  0.1923  0.0011
  101loPI   C5A 1611   5.776  15.291   7.719  0.2135 -0.0313 -0.0889
  101loPI   C6A 1612   5.517  15.108   7.361 -0.1914 -0.0810  0.2880
  101loPI   C1B 1613   6.838  15.751   8.917 -0.2359 -0.1389  0.2601
  101loPI   C2B 1614   6.783  15.769   8.532 -0.0156 -0.0434  0.0186
  101loPI   C3B 1615   6.569  15.607   8.139  0.4573 -0.1478  0.1968
  101loPI   C4B 1616   6.192  15.624   7.868  0.0321 -0.1755  0.2342
  102loPI    C1 1617   0.599   6.724   9.583 -0.1552  0.1136  0.1049
  102loPI    C2 1618   0.826   6.883   9.871  0.1749 -0.2299  0.0416
  102loPI    C3 1619   0.780   6.486   9.849  0.0725 -0.2014 -0.3189
  102loPI   PO4 1620   0.649   6.907   9.340 -0.1287 -0.0357  0.0927
  102loPI   GL1 1621   0.908   7.120   9.021 -0.1203 -0.0703 -0.0965
  102loPI   GL2 1622   0.586   7.188   8.868 -0.0423  0.0135 -0.1358
  102loPI   C1A 1623   0.924   7.291   8.564  0.0411 -0.0951 -0.2482
  102loPI   C2A 1624   0.690   7.084   8.230 -0.2718 -0.1813  0.0296
  102loPI   C3A 1625   0.661   7.141   7.715  0.3993 -0.0042 -0.2487
  102loPI   C4A 1626   0.919   6.903   7.413  0.0264 -0.0142 -0.2424
  102loPI   C5A 1627   1.029   6.823   6.967 -0.0068 -0.4415  0.0473
  102loPI   C6A 1628   1.370   6.936   6.734  0.2806 -0.1400  0.0138
  102loPI   C1B 1629   0.301   7.196   8.567 -0.0061 -0.0814  0.1125
  102loPI   C2B 1630   0.221   7.197   8.068 -0.3555 -0.2624 -0.3697
  102loPI   C3B 1631   0.305   7.525   7.687  0.0197  0.0258  0.0227
  102loPI   C4B 1632   0.161   7.554   7.354 -0.0268 -0.0909 -0.3529
  103loPI    C1 1633   4.445   4.624   9.412  0.0370  0.2380  0.1172
  103loPI    C2 1634   4.549   4.763   9.773 -0.0191  0.1001  0.1873
  103loPI    C3 1635   4.163   4.734   9.673 -0.0199 -0.2725  0.2825
  103loPI   PO4 1636   4.588   4.723   9.245  0.0122  0.0611 -0.0757
  103loPI   GL1 1637   4.668   4.540   8.852 -0.0612 -0.3464  0.0418
  103loPI   GL2 1638   4.514   4.822   8.762  0.0590  0.2231 -0.2271
  103loPI   C1A 1639   4.968   4.741   8.530 -0.2077 -0.2750  0.0773
  103loPI   C2A 1640   5.199   4.832   8.209 -0.0764  0.0854 -0.1239
  103loPI   C3A 1641   5.182   4.778   7.747  0.0771 -0.1289 -0.1603
  103loPI   C4A 1642   5.176   4.704   7.341  0.2720  0.0691  0.0882
  103loPI   C5A 1643   5.054   4.848   7.035 -0.2748  0.2166  0.0745
  103loPI   C6A 1644   4.790   4.862   6.684  0.0408  0.0066  0.3200
  103loPI   C1B 1645   4.525   4.886   8.328 -0.1143 -0.1059  0.0155
  103loPI   C2B 1646   4.663   4.873   7.912  0.2026  0.4253 -0.1470
  103loPI   C3B 1647   4.631   4.514   7.524 -0.1063 -0.1152  0.2779
  103loPI   C4B 1648   4.614   4.141   7.283 -0.2815 -0.0762  0.3205
  104loPI    C1 1649   2.670   4.784   9.289  0.0779 -0.0998 -0.1604
  104loPI    C2 1650   2.799   4.411   9.224 -0.0421 -0.1720  0.0089
  104loPI    C3 1651   2.714   4.531   9.596  0.0046  0.0276 -0.0440
  104loPI   PO4 1652   2.911   4.893   9.051 -0.0177 -0.0420 -0.0284
  104loPI   GL1 1653   2.834   4.641   8.750  0.0043 -0.0485  0.3169
  104loPI   GL2 1654   3.042   4.342   8.809  0.1088 -0.0673  0.2196
  104loPI   C1A 1655   2.482   4.683   8.377  0.0782 -0.1616 -0.1287
  104loPI   C2A 1656   2.281   4.480   8.122  0.1829  0.2273 -0.2435
  104loPI   C3A 1657   2.094   4.035   7.954  0.3160 -0.1104 -0.0313
  104loPI   C4A 1658   2.182   3.742   7.695  0.1370 -0.3701 -0.2942
  104loPI   C5A 1659   2.217   3.383   7.455 -0.2143 -0.0619 -0.0250
  104loPI   C6A 1660   2.397   3.387   7.036 -0.0955  0.0929  0.2009
  104loPI   C1B 1661   3.293   4.233   8.527 -0.2717 -0.1519 -0.0739
  104loPI   C2B 1662   3.339   4.214   8.115 -0.0713 -0.1754 -0.0180
  104loPI   C3B 1663   3.293   4.172   7.719 -0.1181 -0.1521  0.2613
  104loPI   C4B 1664   2.934   4.218   7.481  0.0669  0.0099 -0.0955
  105loPI    C1 1665   0.425  15.508   9.646 -0.1959  0.2252 -0.1357
  105loPI    C2 1666   0.518  15.795   9.908 -0.0678  0.1889 -0.1406
  105loPI    C3 1667   0.135  15.711   9.831 -0.1062  0.2271  0.0047
  105loPI   PO4 1668   0.618  15.479   9.445 -0.0724  0.1943 -0.0696
  105loPI   GL1 1669   0.627  15.344   9.016  0.2654  0.3117  0.1921
  105loPI   GL2 1670   0.352  15.506   9.043  0.0674  0.1738  0.1827
  105loPI   C1A 1671   0.614  15.285   8.474  0.2227  0.4559 -0.0889
  105loPI   C2A 1672   0.708  15.108   8.132 -0.3005  0.0685 -0.0491
  105loPI   C3A 1673   1.073  15.287   7.996 -0.0064  0.3567 -0.1621
  105loPI   C4A 1674   1.319  15.652   7.757  0.0832  0.0921 -0.0001
  105loPI   C5A 1675   1.616  15.714   7.458  0.0138  0.0329  0.1965
  105loPI   C6A 1676   1.772  15.498   7.133 -0.2264 -0.2036 -0.5263
  105loPI   C1B 1677   0.179  15.548   8.634 -0.1666 -0.0125 -0.1716
  105loPI   C2B 1678  -0.021  15.719   8.219  0.0494 -0.2347 -0.1453
  105loPI   C3B 1679   0.042  15.569   7.725 -0.2083  0.0263  0.1832
  105loPI   C4B 1680   0.009  15.733   7.248 -0.0009  0.0317 -0.1874
  106loPI    C1 1681  17.131  13.576   9.667 -0.0842 -0.0485  0.0443
  106loPI    C2 1682  16.911  13.459   9.980  0.0687 -0.0020  0.1702
  106loPI    C3 1683  17.070  13.826   9.973  0.2905 -0.0967  0.1632
  106loPI   PO4 1684  16.948  13.569   9.471 -0.1496 -0.2096  0.1290
  106loPI   GL1 1685  16.908  13.737   9.080 -0.0595  0.0930  0.0740
  106loPI   GL2 1686  16.972  14.056   9.023  0.3342  0.0410  0.1066
  106loPI   C1A 1687  16.835  13.761   8.578 -0.0201  0.1154 -0.0441
  106loPI   C2A 1688  16.990  13.917   8.194 -0.1073  0.1030 -0.3747
  106loPI   C3A 1689  16.997  14.264   7.919  0.2229  0.0004 -0.0376
  106loPI   C4A 1690  17.018  14.340   7.508 -0.1751 -0.1795 -0.0830
  106loPI   C5A 1691  17.188  14.574   7.181  0.4717 -0.0050  0.1800
  106loPI   C6A 1692  17.385  14.670   6.754  0.1344  0.1518  0.0532
  106loPI   C1B 1693  16.779  14.296   8.617 -0.0089  0.1349 -0.5225
  106loPI   C2B 1694  16.802  14.601   8.359 -0.0609 -0.2863 -0.0741
  106loPI   C3B 1695  17.127  14.791   8.013  0.0614  0.2060 -0.2647
  106loPI   C4B 1696  17.299  14.713   7.681  0.3737 -0.2503 -0.1922
  107loPI    C1 1697  15.634   2.091  10.041  0.1490 -0.1032 -0.0082
  107loPI    C2 1698  15.722   1.702  10.016  0.0238 -0.1271 -0.0881
  107loPI    C3 1699  16.013   1.969  10.080  0.1194 -0.2270 -0.1012
  107loPI   PO4 1700  15.486   2.135   9.795  0.2793  0.2444  0.1154
  107loPI   GL1 1701  15.514   2.249   9.293 -0.1783 -0.1683  0.5228
  107loPI   GL2 1702  15.297   2.376   9.047 -0.1507 -0.0051  0.0027
  107loPI   C1A 1703  15.726   2.232   8.906 -0.0794 -0.4204 -0.0832
  107loPI   C2A 1704  15.823   2.176   8.542  0.0885 -0.0338 -0.2410
  107loPI   C3A 1705  15.900   2.240   8.140 -0.1847 -0.1074  0.2330
  107loPI   C4A 1706  15.912   2.425   7.791 -0.2547  0.1943 -0.2064
  107loPI   C5A 1707  15.799   2.501   7.333  0.1004  0.1119 -0.0338
  107loPI   C6A 1708  15.822   2.440   6.969  0.0898 -0.3213  0.0955
  107loPI   C1B 1709  15.378   2.388   8.516 -0.3499 -0.0168 -0.2412
  107loPI   C2B 1710  15.286   2.315   8.118  0.0709  0.1294  0.2461
  107loPI   C3B 1711  15.424   2.154   7.806  0.3750 -0.0557  0.1430
  107loPI   C4B 1712  15.449   2.121   7.362  0.1613  0.0461  0.0633
  108loPI    C1 1713  14.010   1.357  10.228  0.1147 -0.0664 -0.2626
  108loPI    C2 1714  14.041   1.756  10.216  0.0838 -0.0456  0.1929
  108loPI    C3 1715  14.289   1.543  10.446  0.0869 -0.2904 -0.0323
  108loPI   PO4 1716  14.053   1.216   9.912  0.0644 -0.1698 -0.2814
  108loPI   GL1 1717  13.931   1.278   9.414 -0.1155  0.0102  0.1862
  108loPI   GL2 1718  13.757   1.653   9.293  0.0872 -0.0568  0.1224
  108loPI   C1A 1719  13.871   1.178   8.976  0.1583  0.0432 -0.4194
  108loPI   C2A 1720  13.693   1.244   8.580  0.1961 -0.0182 -0.2154
  108loPI   C3A 1721  13.397   1.137   8.368 -0.2520  0.1230 -0.2105
  108loPI   C4A 1722  13.204   0.963   8.014  0.0736  0.1248 -0.1357
  108loPI   C5A 1723  13.332   0.897   7.597 -0.1742 -0.0837 -0.5188
  108loPI   C6A 1724  13.238   0.539   7.277 -0.4175  0.1739 -0.2316
  108loPI   C1B 1725  13.941   1.690   8.779  0.0451  0.4378  0.0910
  108loPI   C2B 1726  13.873   1.852   8.324 -0.1668 -0.0693 -0.1074
  108loPI   C3B 1727  13.967   1.791   7.873  0.1348 -0.0642  0.0328
  108loPI   C4B 1728  13.802   1.721   7.507 -0.0910 -0.0692 -0.0533
  109loPI    C1 1729   5.129   0.968   9.689 -0.1762 -0.1710 -0.0775
  109loPI    C2 1730   5.308   1.298   9.827  0.0544 -0.3587  0.0793
  109loPI    C3 1731   5.291   0.969  10.054 -0.1034 -0.4810 -0.1060
  109loPI   PO4 1732   5.181   0.948   9.464  0.0358 -0.0948  0.3691
  109loPI   GL1 1733   5.163   0.854   8.981 -0.0746  0.1711  0.0496
  109loPI   GL2 1734   5.226   0.442   8.835  0.0338 -0.2558  0.0839
  109loPI   C1A 1735   5.389   0.818   8.603  0.2765  0.1630  0.1615
  109loPI   C2A 1736   5.375   0.723   8.219  0.3641 -0.1419  0.0697
  109loPI   C3A 1737   5.615   0.631   7.836 -0.0249  0.1177 -0.0361
  109loPI   C4A 1738   5.731   0.443   7.499 -0.1786  0.1218 -0.0184
  109loPI   C5A 1739   6.021   0.139   7.139 -0.0057 -0.0403  0.0750
  109loPI   C6A 1740   6.220  -0.098   6.789 -0.1828  0.4875 -0.2257
  109loPI   C1B 1741   5.221   0.307   8.385  0.1317  0.1168  0.3762
  109loPI   C2B 1742   5.201   0.358   7.980 -0.0501  0.3122 -0.0368
  109loPI   C3B 1743   5.218   0.372   7.506 -0.0581 -0.1470 -0.1414
  109loPI   C4B 1744   4.963   0.399   7.155  0.3481  0.2543  0.2228
  110loPI    C1 1745  15.735  16.017   9.552  0.2121  0.0055 -0.0070
  110loPI    C2 1746  15.793  16.256   9.867  0.1077  0.0920 -0.0528
  110loPI    C3 1747  15.584  15.918   9.909  0.0650  0.1205 -0.0362
  110loPI   PO4 1748  15.621  16.183   9.377 -0.0747 -0.1987 -0.0035
  110loPI   GL1 1749  15.571  16.212   8.914  0.1040 -0.1924  0.0937
  110loPI   GL2 1750  15.842  16.449   8.930 -0.3501 -0.0796  0.0315
  110loPI   C1A 1751  15.886  16.006   8.596  0.0037  0.3032  0.1266
  110loPI   C2A 1752  15.953  15.525   8.387 -0.0037  0.2227 -0.1686
  110loPI   C3A 1753  16.105  15.288   8.045  0.3769  0.1373 -0.0727
  110loPI   C4A 1754  16.098  15.325   7.598  0.2087  0.2508 -0.2260
  110loPI   C5A 1755  16.028  15.038   7.259  0.0763  0.2841  0.0665
  110loPI   C6A 1756  15.871  15.005   6.889  0.1636  0.4085 -0.0544
  110loPI   C1B 1757  15.864  16.547   8.542 -0.3104 -0.2501 -0.0100
  110loPI   C2B 1758  15.614  16.812   8.292  0.1556  0.1099 -0.3139
  110loPI   C3B 1759  15.343  16.942   7.991  0.1694 -0.0557  0.1163
  110loPI   C4B 1760  15.118  16.959   7.561  0.1485 -0.1293 -0.0479
  111loPI    C1 1761   0.878  16.656   9.631 -0.1488 -0.1129  0.0136
  111loPI    C2 1762   0.677  16.313   9.669  0.1216 -0.2894 -0.1239
  111loPI    C3 1763   1.059  16.335   9.784  0.1516 -0.0778 -0.2585
  111loPI   PO4 1764   0.685  16.686   9.375 -0.0095 -0.3679 -0.1806
  111loPI   GL1 1765   0.493  16.888   9.083 -0.2268  0.3011 -0.0625
  111loPI   GL2 1766   0.651  16.862   8.904  0.0411 -0.1194 -0.2577
  111loPI   C1A 1767   0.171  16.917   8.709 -0.0027  0.1518  0.1019
  111loPI   C2A 1768   0.168  16.820   8.331 -0.1156 -0.1247 -0.3499
  111loPI   C3A 1769   0.170  16.673   7.927  0.0440 -0.2133 -0.0598
  111loPI   C4A 1770   0.256  16.643   7.353 -0.0617  0.0060 -0.3625
  111loPI   C5A 1771   0.550  16.621   7.063  0.0387 -0.2319  0.0114
  111loPI   C6A 1772   0.909  16.850   7.063  0.1908 -0.0535  0.1005
  111loPI   C1B 1773   0.755  16.844   8.458  0.4143  0.0145  0.1364
  111loPI   C2B 1774   0.919  16.804   8.040  0.0891  0.3266 -0.0270
  111loPI   C3B 1775   1.220  16.589   7.722 -0.1788  0.0187 -0.0440
  111loPI   C4B 1776   1.380  16.719   7.498 -0.2478 -0.2083 -0.2173
  112loPI    C1 1777  18.316   3.216   9.714 -0.0480  0.1022 -0.1009
  112loPI    C2 1778  17.930   3.320   9.708 -0.0330  0.1983  0.3109
  112loPI    C3 1779  18.097   3.188  10.047  0.1809 -0.3003  0.0238
  112loPI   PO4 1780  18.313   3.062   9.469 -0.3777  0.2199  0.0002
  112loPI   GL1 1781  18.279   2.996   9.038  0.1377 -0.0536 -0.0977
  112loPI   GL2 1782  17.964   2.928   8.974  0.1169 -0.0631  0.1896
  112loPI   C1A 1783  18.588   2.861   8.688 -0.3849 -0.0868  0.2111
  112loPI   C2A 1784  18.561   2.747   8.208 -0.1498  0.1736  0.0375
  112loPI   C3A 1785  18.702   2.659   7.761  0.0648 -0.0492 -0.1849
  112loPI   C4A 1786  18.797   2.655   7.340 -0.0200  0.0878 -0.1571
  112loPI   C5A 1787  18.727   2.534   6.976  0.1855  0.2354  0.0339
  112loPI   C6A 1788  18.588   2.316   6.633 -0.0699 -0.1122 -0.1278
  112loPI   C1B 1789  18.083   3.087   8.553 -0.3186 -0.2476 -0.0194
  112loPI   C2B 1790  17.970   3.152   8.163 -0.1705 -0.0082  0.3173
  112loPI   C3B 1791  17.943   3.156   7.752  0.0228  0.0951  0.0834
  112loPI   C4B 1792  17.968   2.896   7.295  0.1382 -0.2822 -0.3868
  113loPI    C1 1793   9.536  13.891   9.664 -0.2123  0.2468 -0.0648
  113loPI    C2 1794   9.854  13.901   9.906 -0.2359  0.2993 -0.0357
  113loPI    C3 1795   9.528  13.697  10.014 -0.1250  0.0450 -0.1736
  113loPI   PO4 1796   9.604  14.193   9.544  0.1908 -0.3579 -0.1599
  113loPI   GL1 1797   9.471  14.421   9.150 -0.0928  0.0442  0.2717
  113loPI   GL2 1798   9.629  14.125   9.024  0.2459 -0.0587  0.2013
  113loPI   C1A 1799   9.499  14.489   8.688 -0.2668 -0.2658 -0.4519
  113loPI   C2A 1800   9.782  14.660   8.393 -0.3286 -0.3405 -0.0101
  113loPI   C3A 1801   9.900  14.646   7.974  0.1700  0.2049 -0.2609
  113loPI   C4A 1802  10.028  14.602   7.559 -0.0458 -0.0672  0.1860
  113loPI   C5A 1803  10.128  14.296   7.197  0.2985  0.0698  0.0427
  113loPI   C6A 1804  10.349  14.033   6.952 -0.1615 -0.0682  0.0944
  113loPI   C1B 1805   9.591  13.860   8.697  0.0507 -0.0972  0.2451
  113loPI   C2B 1806   9.536  14.033   8.377 -0.0536  0.0056 -0.1376
  113loPI   C3B 1807   9.676  14.150   7.991 -0.0993  0.1498  0.0640
  113loPI   C4B 1808   9.816  14.171   7.603  0.0142  0.0536 -0.0060
  114loPI    C1 1809  16.288   8.608   9.843  0.1983  0.0076  0.1156
  114loPI    C2 1810  15.894   8.675   9.856  0.1502 -0.2548  0.0600
  114loPI    C3 1811  16.090   8.570  10.188  0.1737 -0.1236  0.0878
  114loPI   PO4 1812  16.315   8.511   9.637 -0.2431  0.0230  0.0067
  114loPI   GL1 1813  16.297   8.474   9.211  0.0324  0.4169 -0.2465
  114loPI   GL2 1814  16.665   8.505   9.215  0.0389 -0.0658  0.2150
  114loPI   C1A 1815  15.928   8.288   9.050  0.0583 -0.1267  0.3648
  114loPI   C2A 1816  15.878   8.169   8.638  0.0222  0.1120 -0.2288
  114loPI   C3A 1817  16.262   8.316   8.329  0.0757  0.1355  0.1613
  114loPI   C4A 1818  16.144   8.378   7.865  0.0467  0.0394 -0.1291
  114loPI   C5A 1819  16.100   8.757   7.433  0.3141  0.3222 -0.0522
  114loPI   C6A 1820  15.903   9.158   7.326 -0.7473 -0.0945 -0.0542
  114loPI   C1B 1821  16.577   8.293   8.752 -0.2160  0.0484 -0.1022
  114loPI   C2B 1822  16.740   8.138   8.369  0.1456  0.1381  0.1976
  114loPI   C3B 1823  16.595   8.212   7.944  0.2470 -0.0392 -0.1896
  114loPI   C4B 1824  16.544   8.453   7.509 -0.0410  0.0290  0.4858
  115loPI    C1 1825  11.285  15.545  10.059 -0.1946 -0.0897 -0.0787
  115loPI    C2 1826  11.161  15.239  10.285  0.2458  0.0409  0.3586
  115loPI    C3 1827  11.237  15.594  10.453  0.0616  0.3020 -0.0903
  115loPI   PO4 1828  11.351  15.382   9.780  0.1878 -0.0725 -0.0893
  115loPI   GL1 1829  11.304  15.424   9.261 -0.1699  0.1749 -0.2259
  115loPI   GL2 1830  11.347  15.842   9.295 -0.3376  0.3009 -0.0941
  115loPI   C1A 1831  11.527  15.397   8.969  0.1743 -0.0216  0.0459
  115loPI   C2A 1832  11.805  15.508   8.683 -0.2660 -0.0173  0.3428
  115loPI   C3A 1833  11.896  15.588   8.329 -0.0790 -0.3991 -0.2315
  115loPI   C4A 1834  11.977  15.920   8.109  0.0622  0.0337  0.3694
  115loPI   C5A 1835  12.018  16.243   7.847  0.3621 -0.0295  0.0569
  115loPI   C6A 1836  11.959  16.651   7.521 -0.2835  0.1175  0.0217
  115loPI   C1B 1837  11.301  15.952   8.844 -0.2250 -0.1829  0.0633
  115loPI   C2B 1838  11.459  15.808   8.460  0.2618 -0.1355  0.0600
  115loPI   C3B 1839  11.372  15.734   8.095 -0.0305 -0.1296  0.2126
  115loPI   C4B 1840  11.587  15.545   7.949 -0.1555 -0.1707  0.1212
  116loPI    C1 1841  18.455   9.498   9.663  0.1498  0.0321  0.1037
  116loPI    C2 1842  18.275   9.155   9.762  0.0614 -0.0051 -0.1766
  116loPI    C3 1843  18.413   9.398  10.048 -0.2781 -0.0583  0.0389
  116loPI   PO4 1844  18.430   9.557   9.353  0.0095 -0.1019 -0.1558
  116loPI   GL1 1845  18.716   9.429   9.141  0.0057 -0.2709  0.1708
  116loPI   GL2 1846  18.766   9.222   8.938  0.3388 -0.0372  0.2225
  116loPI   C1A 1847  18.393   9.422   8.745 -0.1031  0.1541  0.0790
  116loPI   C2A 1848  18.284   9.516   8.266  0.1742  0.2398 -0.0412
  116loPI   C3A 1849  18.054   9.845   8.100  0.1939 -0.0386 -0.0325
  116loPI   C4A 1850  17.862   9.925   7.677  0.0530  0.1514 -0.2460
  116loPI   C5A 1851  17.584  10.179   7.678  0.0952  0.0579  0.0362
  116loPI   C6A 1852  17.250  10.519   7.799 -0.1591  0.0303  0.3082
  116loPI   C1B 1853  18.862   8.982   8.619  0.5030 -0.0182  0.2041
  116loPI   C2B 1854  18.731   8.626   8.499  0.0798  0.0107 -0.0549
  116loPI   C3B 1855  18.460   8.597   8.182  0.0755  0.3852 -0.0647
  116loPI   C4B 1856  18.386   8.849   7.831 -0.0329 -0.0325  0.0058
  117loPI    C1 1857   6.190   7.200   9.900  0.0388 -0.0327  0.1421
  117loPI    C2 1858   5.836   7.154  10.080 -0.0484  0.0488 -0.0075
  117loPI    C3 1859   6.045   7.491  10.133  0.0081 -0.0000  0.0822
  117loPI   PO4 1860   6.222   7.066   9.649 -0.0141 -0.4021  0.1092
  117loPI   GL1 1861   6.132   7.048   9.187 -0.0979  0.1356 -0.1595
  117loPI   GL2 1862   5.841   6.978   9.055  0.3480  0.2212 -0.4315
  117loPI   C1A 1863   6.306   7.204   8.955 -0.1342  0.0118 -0.2592
  117loPI   C2A 1864   6.631   7.236   8.571  0.0745  0.3206 -0.3139
  117loPI   C3A 1865   6.701   7.110   8.104 -0.0631 -0.1157  0.0209
  117loPI   C4A 1866   6.769   6.962   7.879 -0.1988  0.2479 -0.2585
  117loPI   C5A 1867   7.006   7.114   7.535 -0.2609  0.0185  0.2857
  117loPI   C6A 1868   7.265   7.487   7.282  0.1001  0.1228 -0.0805
  117loPI   C1B 1869   5.919   6.974   8.630  0.0903  0.1344 -0.1112
  117loPI   C2B 1870   5.813   6.889   8.169  0.1353 -0.2891  0.0293
  117loPI   C3B 1871   5.703   6.797   7.839 -0.1245  0.0333  0.2699
  117loPI   C4B 1872   5.563   7.091   7.447  0.0125 -0.1633  0.2683
  118loPI    C1 1873  15.377   6.541   9.666 -0.2324  0.1845  0.0735
  118loPI    C2 1874  15.472   6.288   9.961 -0.0155  0.1757 -0.0026
  118loPI    C3 1875  15.349   6.659  10.047 -0.1831  0.0963  0.1046
  118loPI   PO4 1876  15.485   6.504   9.462  0.0159  0.2906  0.3891
  118loPI   GL1 1877  15.617   6.296   9.094 -0.0874  0.2175 -0.0543
  118loPI   GL2 1878  15.796   6.284   8.993 -0.0638 -0.3164  0.2524
  118loPI   C1A 1879  15.390   6.177   8.687 -0.0295 -0.0506  0.2224
  118loPI   C2A 1880  15.328   6.077   8.307 -0.2750  0.2504  0.3231
  118loPI   C3A 1881  14.998   5.830   8.184 -0.0332 -0.0004 -0.1048
  118loPI   C4A 1882  14.954   5.671   7.870 -0.2287 -0.2006 -0.1609
  118loPI   C5A 1883  15.014   5.413   7.602 -0.1661  0.0589  0.1458
  118loPI   C6A 1884  15.008   5.200   7.170 -0.1156  0.1140 -0.0865
  118loPI   C1B 1885  15.885   6.152   8.514  0.3945  0.2026  0.1222
  118loPI   C2B 1886  15.689   6.274   8.100  0.1380 -0.2261 -0.1002
  118loPI   C3B 1887  15.658   6.306   7.655 -0.1756 -0.0385  0.0441
  118loPI   C4B 1888  15.354   6.354   7.352 -0.2752  0.1411 -0.0352
  119loPI    C1 1889  11.834   8.037   9.891  0.2032  0.1452 -0.0840
  119loPI    C2 1890  11.677   8.380  10.023  0.0252  0.0042  0.0763
  119loPI    C3 1891  12.037   8.262  10.151  0.0527  0.0928  0.0809
  119loPI   PO4 1892  11.774   7.948   9.693  0.2898 -0.2613 -0.2366
  119loPI   GL1 1893  11.902   7.994   9.321  0.3538 -0.2021  0.0633
  119loPI   GL2 1894  12.067   8.039   9.112 -0.0216 -0.0823  0.1029
  119loPI   C1A 1895  11.640   7.971   8.909  0.0946 -0.0023  0.3983
  119loPI   C2A 1896  11.536   8.084   8.477  0.0585  0.1820 -0.0124
  119loPI   C3A 1897  11.253   7.910   8.103 -0.1127  0.0167  0.4277
  119loPI   C4A 1898  11.433   7.721   7.699  0.0499  0.0850 -0.0025
  119loPI   C5A 1899  11.447   7.544   7.246  0.2255  0.0773 -0.0218
  119loPI   C6A 1900  11.679   7.406   6.960 -0.2812  0.1310  0.0431
  119loPI   C1B 1901  12.076   8.166   8.715  0.0210  0.0541  0.0303
  119loPI   C2B 1902  12.012   8.019   8.232  0.2059  0.0749 -0.1666
  119loPI   C3B 1903  11.669   8.102   7.953 -0.1386 -0.0019 -0.1299
  119loPI   C4B 1904  11.632   8.088   7.466  0.0576 -0.1953 -0.0129
  120loPI    C1 1905  13.156   8.971   9.617 -0.0851 -0.3536 -0.1073
  120loPI    C2 1906  13.443   8.716   9.729  0.1269 -0.0668  0.0168
  120loPI    C3 1907  13.116   8.761   9.954  0.2007 -0.0516  0.1214
  120loPI   PO4 1908  13.124   8.913   9.333 -0.2762 -0.1463 -0.2739
  120loPI   GL1 1909  12.812   8.746   9.085  0.3775  0.0412  0.0005
  120loPI   GL2 1910  13.031   8.458   9.006  0.2278  0.0604  0.3622
  120loPI   C1A 1911  12.571   8.581   8.762  0.2064  0.2265 -0.1256
  120loPI   C2A 1912  12.359   8.399   8.375 -0.1741  0.3157  0.1325
  120loPI   C3A 1913  12.378   8.365   8.009  0.0290 -0.0207 -0.0934
  120loPI   C4A 1914  12.091   8.283   7.671 -0.0830  0.1032 -0.4364
  120loPI   C5A 1915  12.121   8.089   7.241 -0.3803 -0.3311  0.1755
  120loPI   C6A 1916  12.503   8.048   6.867  0.3780 -0.1143  0.1318
  120loPI   C1B 1917  13.114   8.528   8.657  0.2112 -0.0922 -0.6972
  120loPI   C2B 1918  12.875   8.407   8.309 -0.3575  0.1880  0.3001
  120loPI   C3B 1919  12.862   8.333   7.857  0.2628  0.1197  0.0688
  120loPI   C4B 1920  12.688   8.174   7.435 -0.1413 -0.0413 -0.0029
  121loPI    C1 1921  18.884   0.681   9.426  0.0387 -0.0180  0.2454
  121loPI    C2 1922  19.160   0.737   9.709  0.2791 -0.1402  0.0398
  121loPI    C3 1923  19.004   0.374   9.651  0.2546 -0.1224 -0.0064
  121loPI   PO4 1924  18.679   0.863   9.463 -0.1328  0.1697  0.0812
  121loPI   GL1 1925  18.618   1.045   9.195  0.1625 -0.2651 -0.1369
  121loPI   GL2 1926  18.899   1.169   9.147  0.2612  0.2319 -0.1765
  121loPI   C1A 1927  18.428   0.848   8.811 -0.0763 -0.0380  0.0592
  121loPI   C2A 1928  18.521   0.916   8.485 -0.2837  0.1230  0.0120
  121loPI   C3A 1929  18.520   0.852   7.977  0.0414  0.0120  0.1920
  121loPI   C4A 1930  18.675   1.002   7.592  0.1988 -0.1957  0.2076
  121loPI   C5A 1931  19.074   1.232   7.373 -0.1071 -0.1502  0.3647
  121loPI   C6A 1932  19.499   1.202   7.198  0.1500 -0.0997  0.0362
  121loPI   C1B 1933  18.781   1.233   8.750  0.2145  0.0663  0.0891
  121loPI   C2B 1934  18.901   1.081   8.242 -0.2828  0.1398  0.1402
  121loPI   C3B 1935  19.095   1.266   7.896  0.0274 -0.2289 -0.0230
  121loPI   C4B 1936  19.431   1.187   7.750  0.1018  0.1897 -0.1818
  122loPI    C1 1937  16.624   1.161   9.501  0.1420 -0.1254  0.0456
  122loPI    C2 1938  16.379   0.999   9.772 -0.1566  0.1940 -0.0276
  122loPI    C3 1939  16.725   0.819   9.683 -0.1060  0.0257  0.4796
  122loPI   PO4 1940  16.492   1.205   9.233 -0.0728  0.0558  0.0116
  122loPI   GL1 1941  16.518   1.298   8.879 -0.0154 -0.1433  0.0003
  122loPI   GL2 1942  16.456   1.021   8.746 -0.0733  0.3209  0.0511
  122loPI   C1A 1943  16.258   1.415   8.476 -0.0593  0.1992  0.0006
  122loPI   C2A 1944  16.275   1.512   8.035 -0.3467  0.2390  0.2692
  122loPI   C3A 1945  16.170   1.618   7.588  0.2638  0.1276  0.0828
  122loPI   C4A 1946  16.245   1.585   7.190 -0.2932 -0.0758 -0.3590
  122loPI   C5A 1947  16.690   1.520   7.089 -0.0613 -0.1341  0.2264
  122loPI   C6A 1948  17.084   1.489   6.863  0.2032 -0.5069  0.1222
  122loPI   C1B 1949  16.300   0.875   8.223  0.1941  0.1181  0.1428
  122loPI   C2B 1950  16.329   1.071   7.787  0.2180 -0.1933 -0.2502
  122loPI   C3B 1951  16.296   1.114   7.348  0.1654 -0.5439 -0.0787
  122loPI   C4B 1952  16.259   1.255   6.833 -0.0790 -0.0173 -0.1416
  123loPI    C1 1953  13.764  17.822  10.019  0.0200 -0.1247  0.1763
  123loPI    C2 1954  13.680  18.141  10.246 -0.1568 -0.0029 -0.0557
  123loPI    C3 1955  13.476  17.800  10.295 -0.1946  0.0231 -0.0316
  123loPI   PO4 1956  13.834  17.997   9.769 -0.2054  0.1228 -0.0341
  123loPI   GL1 1957  13.680  17.913   9.328  0.0503 -0.3078 -0.0594
  123loPI   GL2 1958  13.296  17.787   9.225  0.0081  0.2392  0.1289
  123loPI   C1A 1959  13.465  18.237   9.040  0.0017 -0.0087  0.0460
  123loPI   C2A 1960  13.295  18.655   8.964 -0.1127 -0.1516 -0.0547
  123loPI   C3A 1961  13.032  18.692   8.636  0.0868  0.0385 -0.0207
  123loPI   C4A 1962  13.103  18.878   8.198  0.0735 -0.1555 -0.1109
  123loPI   C5A 1963  13.082  19.198   7.870  0.0985  0.0867  0.0120
  123loPI   C6A 1964  12.711  19.474   7.763  0.2168  0.1784 -0.1600
  123loPI   C1B 1965  13.059  17.960   8.849  0.1335 -0.1561 -0.0682
  123loPI   C2B 1966  13.153  18.229   8.557 -0.1045  0.0263 -0.1932
  123loPI   C3B 1967  13.170  18.364   8.045  0.0821 -0.0112 -0.0074
  123loPI   C4B 1968  13.142  18.678   7.700 -0.1912 -0.1608  0.1088
  124loPI    C1 1969   0.475   4.844   9.763  0.0150 -0.4863 -0.1396
  124loPI    C2 1970   0.217   4.735  10.049 -0.0033 -0.1190 -0.0109
  124loPI    C3 1971   0.583   4.863  10.148  0.1244 -0.3476 -0.1766
  124loPI   PO4 1972   0.318   4.746   9.554  0.2375  0.0684  0.0352
  124loPI   GL1 1973   0.262   4.925   9.190 -0.1755 -0.0565  0.1087
  124loPI   GL2 1974   0.067   5.211   9.216 -0.2306  0.0204  0.3407
  124loPI   C1A 1975   0.220   4.843   8.823  0.1215 -0.5240 -0.0107
  124loPI   C2A 1976   0.154   4.553   8.556  0.2501 -0.0564 -0.0321
  124loPI   C3A 1977  -0.114   4.475   8.300 -0.0496  0.0869 -0.0898
  124loPI   C4A 1978  -0.165   4.571   7.897 -0.1651 -0.2035 -0.1683
  124loPI   C5A 1979  -0.094   4.524   7.409  0.1844 -0.2849  0.3478
  124loPI   C6A 1980   0.040   4.361   7.007  0.1339  0.0821  0.0177
  124loPI   C1B 1981  -0.030   5.273   8.822 -0.0000  0.1027  0.1228
  124loPI   C2B 1982  -0.010   5.250   8.325 -0.0901 -0.0630 -0.1116
  124loPI   C3B 1983   0.067   5.103   7.847 -0.1248 -0.5673 -0.1579
  124loPI   C4B 1984  -0.228   5.061   7.618 -0.4401  0.2781 -0.2500
  125loPI    C1 1985  17.020   2.959   9.569  0.3533 -0.2410 -0.0950
  125loPI    C2 1986  17.309   2.800   9.795  0.2901 -0.0691  0.1106
  125loPI    C3 1987  17.367   3.152   9.614  0.2664 -0.1096  0.0237
  125loPI   PO4 1988  16.935   2.729   9.365  0.0642 -0.2234 -0.3152
  125loPI   GL1 1989  17.013   2.794   8.914  0.1386 -0.1399 -0.2582
  125loPI   GL2 1990  16.783   3.002   9.001 -0.3525  0.0903 -0.2446
  125loPI   C1A 1991  17.037   2.615   8.532 -0.3447  0.0127  0.2981
  125loPI   C2A 1992  17.187   2.700   8.035  0.1384  0.0512 -0.2310
  125loPI   C3A 1993  17.235   2.770   7.599 -0.1435  0.1097  0.1697
  125loPI   C4A 1994  17.098   2.830   7.129  0.3177 -0.1613  0.2034
  125loPI   C5A 1995  16.964   3.091   6.823  0.0001  0.1058  0.0488
  125loPI   C6A 1996  16.841   3.532   6.832 -0.0074 -0.0064 -0.1716
  125loPI   C1B 1997  17.039   3.135   8.590 -0.0836  0.2890 -0.1064
  125loPI   C2B 1998  17.105   3.280   8.158  0.1166  0.0880 -0.1372
  125loPI   C3B 1999  16.866   3.440   7.836 -0.2990 -0.0453 -0.3065
  125loPI   C4B 2000  17.090   3.655   7.455  0.1025  0.0154 -0.1688
  126loPI    C1 2001   7.299  15.462  10.053  0.0993  0.0539 -0.0413
  126loPI    C2 2002   7.472  15.822  10.055  0.1155  0.0459  0.0495
  126loPI    C3 2003   7.271  15.696  10.377 -0.1050  0.0770 -0.0745
  126loPI   PO4 2004   7.269  15.388   9.743  0.0370 -0.2050 -0.4502
  126loPI   GL1 2005   7.369  15.356   9.413 -0.2220  0.1625  0.0730
  126loPI   GL2 2006   7.712  15.323   9.407  0.0519 -0.0786 -0.0514
  126loPI   C1A 2007   7.246  15.389   8.984 -0.2543 -0.1016 -0.0578
  126loPI   C2A 2008   7.262  15.630   8.596 -0.2673  0.3310 -0.0531
  126loPI   C3A 2009   7.081  15.799   8.148 -0.0869 -0.0180  0.1082
  126loPI   C4A 2010   6.938  16.091   7.845  0.0819  0.2062 -0.0492
  126loPI   C5A 2011   7.087  16.276   7.372  0.2940 -0.4492  0.1675
  126loPI   C6A 2012   7.075  16.469   6.917 -0.3235 -0.1040  0.0184
  126loPI   C1B 2013   7.785  15.105   9.098 -0.0456 -0.2649  0.1131
  126loPI   C2B 2014   7.904  15.058   8.735  0.1046 -0.1219 -0.0545
  126loPI   C3B 2015   7.988  15.105   8.327  0.3691 -0.2198  0.0749
  126loPI   C4B 2016   7.992  15.281   7.890  0.0212  0.0720  0.1359
  127loPI    C1 2017   8.707  17.696  10.034 -0.0208 -0.2724  0.1122
  127loPI    C2 2018   8.819  18.079  10.006 -0.3181 -0.1985 -0.1213
  127loPI    C3 2019   9.065  17.810  10.171 -0.0605  0.0704 -0.0591
  127loPI   PO4 2020   8.507  17.648   9.791  0.0755  0.2646  0.3143
  127loPI   GL1 2021   8.395  17.524   9.489 -0.1490 -0.1856  0.0444
  127loPI   GL2 2022   7.989  17.328   9.531 -0.0264  0.0668 -0.1889
  127loPI   C1A 2023   8.427  17.580   9.071 -0.1757  0.0375 -0.2657
  127loPI   C2A 2024   8.315  17.509   8.688  0.0391 -0.3729  0.1287
  127loPI   C3A 2025   8.350  17.664   8.231 -0.2857  0.0192  0.2433
  127loPI   C4A 2026   8.092  17.787   7.814  0.4420  0.1697  0.3220
  127loPI   C5A 2027   7.936  18.004   7.412  0.2173 -0.0221  0.1452
  127loPI   C6A 2028   8.079  18.073   7.011  0.1709  0.4504 -0.0809
  127loPI   C1B 2029   7.975  17.450   9.125 -0.0253  0.0574 -0.2357
  127loPI   C2B 2030   7.844  17.287   8.698  0.0916 -0.2228  0.2298
  127loPI   C3B 2031   7.449  17.271   8.446  0.0412  0.1425  0.0693
  127loPI   C4B 2032   7.207  17.419   8.200 -0.0544  0.0693 -0.0655
  128loPI    C1 2033   0.992   6.162   9.462  0.1404  0.1478 -0.0713
  128loPI    C2 2034   1.241   6.311   9.737 -0.1328  0.0732  0.2214
  128loPI    C3 2035   1.275   5.930   9.622  0.0727  0.1435  0.0432
  128loPI   PO4 2036   0.749   6.196   9.477 -0.0029 -0.1585  0.0202
  128loPI   GL1 2037   0.578   6.278   9.131 -0.3312 -0.0983  0.0699
  128loPI   GL2 2038   0.810   6.563   8.981 -0.0863  0.0457  0.0439
  128loPI   C1A 2039   0.681   5.965   8.803  0.2243 -0.2205 -0.1995
  128loPI   C2A 2040   0.480   5.779   8.460  0.2746  0.2001 -0.1293
  128loPI   C3A 2041   0.611   5.712   7.978  0.4470 -0.1078 -0.1434
  128loPI   C4A 2042   0.537   5.457   7.599  0.3378 -0.1796 -0.0681
  128loPI   C5A 2043   0.251   5.076   7.396  0.0755 -0.2036 -0.0150
  128loPI   C6A 2044   0.314   4.765   7.171  0.3614 -0.1991  0.1708
  128loPI   C1B 2045   0.440   6.653   8.732  0.2682 -0.2956  0.1798
  128loPI   C2B 2046   0.349   6.760   8.268 -0.1316  0.0638 -0.2909
  128loPI   C3B 2047   0.368   6.664   7.795 -0.1684 -0.2579 -0.2228
  128loPI   C4B 2048   0.177   7.022   7.603  0.2178  0.1406  0.2701
  129loPI    C1 2049   2.464   1.617   9.680 -0.0571 -0.1752  0.0050
  129loPI    C2 2050   2.575   1.296   9.892  0.2078 -0.0479  0.0635
  129loPI    C3 2051   2.654   1.663  10.030  0.0686  0.0406 -0.0900
  129loPI   PO4 2052   2.518   1.547   9.426 -0.0521  0.0853 -0.0950
  129loPI   GL1 2053   2.595   1.583   9.073  0.0321  0.1974 -0.0174
  129loPI   GL2 2054   2.431   1.853   8.914  0.1447  0.0103  0.1005
  129loPI   C1A 2055   2.865   1.422   8.747  0.0535 -0.0874 -0.1193
  129loPI   C2A 2056   2.978   1.309   8.379 -0.2862 -0.1950  0.3329
  129loPI   C3A 2057   3.165   1.210   8.114 -0.0729  0.2976 -0.0186
  129loPI   C4A 2058   3.079   1.388   7.761 -0.0501  0.5532  0.0984
  129loPI   C5A 2059   2.984   1.249   7.346  0.0343  0.2596  0.3373
  129loPI   C6A 2060   2.870   1.288   6.907 -0.1854 -0.0068 -0.0565
  129loPI   C1B 2061   2.247   2.016   8.475  0.1505 -0.1487 -0.1209
  129loPI   C2B 2062   2.193   2.272   8.164 -0.0531 -0.0141 -0.2101
  129loPI   C3B 2063   1.990   2.248   7.816  0.1412 -0.0471 -0.1118
  129loPI   C4B 2064   1.724   2.346   7.407  0.3066 -0.0661 -0.1614
  130loPI    C1 2065  18.813   4.282   9.691  0.0906 -0.0493  0.2040
  130loPI    C2 2066  19.013   3.936   9.684 -0.0304 -0.1175  0.0907
  130loPI    C3 2067  18.690   3.975   9.916 -0.2307 -0.2019 -0.1680
  130loPI   PO4 2068  18.988   4.401   9.426  0.3453 -0.0224  0.0136
  130loPI   GL1 2069  18.762   4.344   9.048 -0.1091 -0.0608 -0.0257
  130loPI   GL2 2070  19.097   4.106   9.041  0.3304  0.5479 -0.0112
  130loPI   C1A 2071  18.698   4.291   8.663  0.2027  0.2286  0.1325
  130loPI   C2A 2072  18.569   4.391   8.214 -0.2249  0.1411 -0.0062
  130loPI   C3A 2073  18.551   4.110   7.788  0.2109  0.0573  0.1668
  130loPI   C4A 2074  18.278   4.017   7.420 -0.2127 -0.0362 -0.0152
  130loPI   C5A 2075  18.166   3.936   7.001 -0.0737 -0.1218  0.2795
  130loPI   C6A 2076  18.366   3.804   6.684  0.0197 -0.2093  0.1032
  130loPI   C1B 2077  19.156   4.093   8.625 -0.0854 -0.1574  0.5689
  130loPI   C2B 2078  18.988   4.085   8.117  0.3557  0.4395 -0.0667
  130loPI   C3B 2079  18.995   4.150   7.669  0.1751  0.2286  0.0446
  130loPI   C4B 2080  19.252   4.027   7.353  0.3408  0.0657  0.1502
  131loPI    C1 2081  15.879  16.978   9.517 -0.0081  0.2378 -0.0062
  131loPI    C2 2082  15.694  16.740   9.781  0.1149 -0.0897 -0.2092
  131loPI    C3 2083  15.937  17.030   9.910  0.2107 -0.2765  0.0383
  131loPI   PO4 2084  15.920  16.891   9.306  0.1125  0.0912  0.0079
  131loPI   GL1 2085  15.850  16.973   8.937  0.0334 -0.2316 -0.0984
  131loPI   GL2 2086  15.599  16.922   8.884 -0.2085 -0.1256  0.2243
  131loPI   C1A 2087  15.816  17.270   8.536 -0.0293 -0.0102 -0.2701
  131loPI   C2A 2088  15.707  17.335   8.108 -0.0160  0.0360  0.4371
  131loPI   C3A 2089  15.918  17.409   7.732  0.1112  0.3693 -0.1527
  131loPI   C4A 2090  15.890  17.612   7.387  0.0868 -0.0835  0.2921
  131loPI   C5A 2091  16.075  17.729   7.012  0.3114 -0.0914  0.3501
  131loPI   C6A 2092  16.337  18.149   6.906 -0.0332 -0.2517  0.1979
  131loPI   C1B 2093  15.364  17.162   8.675 -0.0353 -0.2789  0.1104
  131loPI   C2B 2094  15.295  17.389   8.257  0.3088  0.2822 -0.0266
  131loPI   C3B 2095  15.289  17.451   7.804 -0.5708  0.0768  0.1569
  131loPI   C4B 2096  15.344  17.612   7.450 -0.2409  0.1767 -0.0557
  132loPI    C1 2097  11.634  10.280   9.770 -0.1272  0.1973 -0.0346
  132loPI    C2 2098  11.989  10.295   9.953 -0.1418  0.1056  0.0020
  132loPI    C3 2099  11.653  10.331  10.167 -0.1541  0.2227 -0.0366
  132loPI   PO4 2100  11.689  10.369   9.493 -0.1360 -0.0242  0.1638
  132loPI   GL1 2101  11.787  10.484   9.149 -0.0437  0.4589  0.3383
  132loPI   GL2 2102  11.611  10.192   8.993  0.0960  0.1136  0.0795
  132loPI   C1A 2103  12.065  10.474   8.759  0.1940 -0.0609  0.1664
  132loPI   C2A 2104  11.915  10.424   8.339 -0.0385  0.0955 -0.1634
  132loPI   C3A 2105  11.756  10.321   7.982 -0.2720  0.3158  0.5549
  132loPI   C4A 2106  11.640  10.226   7.568 -0.1945  0.2034 -0.2939
  132loPI   C5A 2107  11.335  10.205   7.203  0.0574  0.0545  0.1122
  132loPI   C6A 2108  10.933  10.127   7.074  0.1269 -0.0712 -0.0020
  132loPI   C1B 2109  11.267  10.219   8.639  0.0692 -0.1288  0.0154
  132loPI   C2B 2110  11.062   9.958   8.426  0.0746  0.1448  0.1809
  132loPI   C3B 2111  10.862   9.620   8.004  0.0153  0.2675 -0.1838
  132loPI   C4B 2112  11.013   9.402   7.696 -0.0211  0.3610 -0.0709
  133loPI    C1 2113  16.671   7.228   9.693  0.2752  0.0409 -0.0965
  133loPI    C2 2114  16.644   7.397  10.055  0.0106 -0.1338 -0.0324
  133loPI    C3 2115  16.965   7.178   9.960  0.1392  0.0170  0.0505
  133loPI   PO4 2116  16.701   7.386   9.505 -0.2004  0.1435 -0.1267
  133loPI   GL1 2117  16.747   7.342   9.085 -0.0120  0.1207 -0.5207
  133loPI   GL2 2118  16.664   7.074   8.965 -0.0198  0.0754  0.2213
  133loPI   C1A 2119  16.305   7.422   8.746 -0.3085  0.1956  0.0525
  133loPI   C2A 2120  16.231   7.410   8.350  0.1007  0.4194 -0.0310
  133loPI   C3A 2121  16.447   7.355   7.952  0.0158 -0.3767  0.0242
  133loPI   C4A 2122  16.711   7.524   7.646 -0.0066  0.0704  0.1227
  133loPI   C5A 2123  17.118   7.371   7.583 -0.2178 -0.2245  0.2327
  133loPI   C6A 2124  17.249   7.057   7.338 -0.2230 -0.1720 -0.0808
  133loPI   C1B 2125  16.601   7.118   8.543 -0.0535 -0.1294 -0.1078
  133loPI   C2B 2126  16.507   6.905   8.216  0.2485 -0.0167 -0.2070
  133loPI   C3B 2127  16.307   6.835   7.867 -0.0077  0.0364  0.4549
  133loPI   C4B 2128  16.123   6.438   7.662  0.1883 -0.2939 -0.3066
  134loPI    C1 2129   5.276   8.945   9.666  0.0385 -0.0838 -0.0693
  134loPI    C2 2130   5.438   8.660   9.895  0.2246  0.1087  0.0416
  134loPI    C3 2131   5.404   9.033  10.035  0.2296  0.2014 -0.2009
  134loPI   PO4 2132   5.445   8.882   9.443 -0.1372 -0.3341  0.0433
  134loPI   GL1 2133   5.274   8.604   9.104  0.0879 -0.0141 -0.0653
  134loPI   GL2 2134   5.035   8.769   9.098  0.1847  0.1313  0.0901
  134loPI   C1A 2135   5.263   8.413   8.693 -0.2200  0.0475  0.3735
  134loPI   C2A 2136   5.174   8.535   8.309 -0.1932  0.1190 -0.0289
  134loPI   C3A 2137   5.098   8.599   7.918  0.1195 -0.1564 -0.2624
  134loPI   C4A 2138   4.856   8.592   7.599  0.2267 -0.0508  0.6870
  134loPI   C5A 2139   4.621   8.724   7.223 -0.1503 -0.0952  0.3007
  134loPI   C6A 2140   4.430   8.483   6.929 -0.0672 -0.2202  0.2143
  134loPI   C1B 2141   5.072   9.068   8.731  0.2787 -0.1303 -0.2680
  134loPI   C2B 2142   4.950   9.003   8.337  0.2740  0.1869  0.6863
  134loPI   C3B 2143   5.033   9.094   7.908 -0.0271 -0.1077  0.0334
  134loPI   C4B 2144   4.821   9.137   7.520 -0.0188  0.1872  0.1476
  135loPI    C1 2145  19.130   7.072   9.742  0.0925  0.1841 -0.0278
  135loPI    C2 2146  18.807   7.123   9.973  0.2408 -0.2088  0.2786
  135loPI    C3 2147  19.098   7.398   9.972  0.0039  0.0462  0.1577
  135loPI   PO4 2148  19.112   6.980   9.488 -0.1582  0.0708  0.1388
  135loPI   GL1 2149  19.066   7.175   9.112  0.2139 -0.1945  0.2488
  135loPI   GL2 2150  18.815   7.043   9.030  0.0037 -0.0002 -0.1132
  135loPI   C1A 2151  19.228   7.449   8.841  0.2639  0.0643 -0.1411
  135loPI   C2A 2152  19.290   7.678   8.480 -0.2205  0.0603  0.1315
  135loPI   C3A 2153  19.304   7.699   8.134 -0.0687  0.2281  0.3347
  135loPI   C4A 2154  19.202   7.790   7.708  0.1835  0.0908  0.3573
  135loPI   C5A 2155  18.955   7.504   7.404 -0.0700  0.1249 -0.1294
  135loPI   C6A 2156  18.743   7.411   7.084 -0.0348  0.4453 -0.0460
  135loPI   C1B 2157  18.694   7.186   8.739  0.2612  0.1294  0.1214
  135loPI   C2B 2158  18.481   7.221   8.410  0.2236  0.0374 -0.2471
  135loPI   C3B 2159  18.532   7.256   8.017 -0.1428 -0.3757 -0.2866
  135loPI   C4B 2160  18.496   7.273   7.552  0.0007  0.0099 -0.1684
  136loPI    C1 2161   5.702  15.176  10.331  0.0572  0.1243 -0.4062
  136loPI    C2 2162   5.657  14.862  10.088 -0.1558 -0.0695 -0.1236
  136loPI    C3 2163   5.741  14.805  10.475 -0.4868  0.2087 -0.0056
  136loPI   PO4 2164   5.713  15.376  10.046  0.1505 -0.0776  0.2089
  136loPI   GL1 2165   5.581  15.223   9.577 -0.2034 -0.1745 -0.1256
  136loPI   GL2 2166   5.781  15.000   9.587 -0.1073  0.1333  0.0859
  136loPI   C1A 2167   5.473  15.208   9.128 -0.1885 -0.0280  0.0400
  136loPI   C2A 2168   5.197  15.274   8.753  0.0325  0.0635 -0.0748
  136loPI   C3A 2169   5.046  15.190   8.387 -0.2965  0.0520  0.0344
  136loPI   C4A 2170   4.988  15.258   8.047 -0.1348  0.3763  0.2532
  136loPI   C5A 2171   5.126  15.298   7.652 -0.1370 -0.1418 -0.1760
  136loPI   C6A 2172   5.059  15.184   7.170 -0.1518  0.2286 -0.1850
  136loPI   C1B 2173   5.991  14.998   9.187 -0.0135  0.2655 -0.1199
  136loPI   C2B 2174   5.887  14.982   8.777 -0.1693 -0.0469  0.0734
  136loPI   C3B 2175   5.615  15.095   8.487  0.2431 -0.4724  0.1476
  136loPI   C4B 2176   5.472  15.013   7.968 -0.0374  0.0292 -0.0508
  137loPI    C1 2177  14.225  15.945   9.994  0.1568 -0.0786  0.0881
  137loPI    C2 2178  13.926  15.682   9.958 -0.0523  0.1472  0.1485
  137loPI    C3 2179  14.153  15.681  10.287  0.1588 -0.1696  0.0071
  137loPI   PO4 2180  14.328  15.897   9.762  0.0998 -0.0057 -0.0597
  137loPI   GL1 2181  14.542  15.660   9.418 -0.0609 -0.4022 -0.2600
  137loPI   GL2 2182  14.359  15.408   9.337  0.1890  0.2638 -0.2586
  137loPI   C1A 2183  14.766  15.946   9.153 -0.1053 -0.1456 -0.0768
  137loPI   C2A 2184  15.172  15.944   8.937  0.1299  0.0918 -0.0415
  137loPI   C3A 2185  15.262  16.100   8.523 -0.0729 -0.0275 -0.0870
  137loPI   C4A 2186  15.569  16.187   8.216 -0.1528  0.2429 -0.1565
  137loPI   C5A 2187  15.521  16.041   7.774 -0.1692 -0.0127 -0.1682
  137loPI   C6A 2188  15.500  15.862   7.340 -0.2085  0.1532 -0.1747
  137loPI   C1B 2189  14.454  15.603   8.914  0.0858 -0.0867 -0.1321
  137loPI   C2B 2190  14.718  15.742   8.657 -0.1534 -0.2687  0.1050
  137loPI   C3B 2191  14.614  15.693   8.186 -0.2290  0.1698  0.0939
  137loPI   C4B 2192  14.609  16.012   7.837  0.0026 -0.1668 -0.0225
  138loPI    C1 2193   9.774  13.090   9.758  0.0379  0.0168  0.0955
  138loPI    C2 2194   9.997  13.286  10.027  0.1286  0.0666 -0.0154
  138loPI    C3 2195  10.085  12.907   9.932  0.2043  0.1059 -0.1044
  138loPI   PO4 2196   9.739  13.339   9.570  0.2783 -0.1427  0.2412
  138loPI   GL1 2197   9.797  13.340   9.253 -0.2806  0.0609  0.2797
  138loPI   GL2 2198   9.505  13.517   9.072 -0.1363  0.3414 -0.1209
  138loPI   C1A 2199   9.844  13.290   8.852 -0.2755  0.0262 -0.0655
  138loPI   C2A 2200   9.750  13.315   8.408 -0.0730 -0.1043 -0.0645
  138loPI   C3A 2201   9.593  13.105   8.024 -0.1048  0.2949  0.0220
  138loPI   C4A 2202   9.165  13.085   7.862 -0.2125  0.4228 -0.1316
  138loPI   C5A 2203   9.104  13.143   7.467 -0.1095 -0.0024  0.2572
  138loPI   C6A 2204   9.385  13.021   7.035 -0.1554  0.2528 -0.0500
  138loPI   C1B 2205   9.205  13.556   8.739 -0.2412  0.0552  0.2281
  138loPI   C2B 2206   8.999  13.773   8.444  0.0799 -0.2453 -0.1294
  138loPI   C3B 2207   9.104  13.978   8.086  0.0785  0.1480  0.0527
  138loPI   C4B 2208   9.156  14.397   7.795  0.0496 -0.0185  0.0760
  139loPI    C1 2209   3.903  14.825   9.941 -0.0319  0.0764 -0.0915
  139loPI    C2 2210   3.542  14.969  10.035  0.0560  0.1554  0.1332
  139loPI    C3 2211   3.670  14.628  10.200  0.0492  0.0798 -0.0156
  139loPI   PO4 2212   3.926  14.953   9.718 -0.1437 -0.3489  0.4623
  139loPI   GL1 2213   4.074  15.082   9.388 -0.0911  0.2638 -0.1500
  139loPI   GL2 2214   3.918  15.267   9.198 -0.0024 -0.0073  0.3313
  139loPI   C1A 2215   4.144  14.782   9.005 -0.2874  0.2766 -0.0855
  139loPI   C2A 2216   4.121  14.818   8.633 -0.1172  0.2379  0.0863
  139loPI   C3A 2217   4.103  14.765   8.223  0.1191  0.1393  0.2462
  139loPI   C4A 2218   4.095  14.802   7.760  0.3428 -0.0879  0.2997
  139loPI   C5A 2219   4.283  14.873   7.419  0.0295 -0.2048 -0.0877
  139loPI   C6A 2220   4.319  14.698   7.055 -0.2534  0.0258  0.1045
  139loPI   C1B 2221   3.915  15.196   8.824  0.0346 -0.0212  0.0716
  139loPI   C2B 2222   3.761  15.131   8.402  0.3736  0.0311  0.1944
  139loPI   C3B 2223   3.682  14.939   8.004 -0.0130  0.0118 -0.1452
  139loPI   C4B 2224   3.506  14.885   7.585  0.0937 -0.1492 -0.0455
  140loPI    C1 2225   8.074  10.850   9.735  0.0704 -0.2075  0.0227
  140loPI    C2 2226   7.861  11.188   9.718  0.0343 -0.2384 -0.1613
  140loPI    C3 2227   7.965  11.034  10.073  0.0586 -0.0303 -0.0769
  140loPI   PO4 2228   7.999  10.735   9.509  0.0285 -0.1933  0.2375
  140loPI   GL1 2229   7.898  10.892   9.170 -0.1629  0.1721  0.0684
  140loPI   GL2 2230   7.585  10.836   9.163  0.0332 -0.3524  0.0620
  140loPI   C1A 2231   8.200  10.924   8.898  0.0162  0.2013  0.0412
  140loPI   C2A 2232   8.400  11.055   8.544 -0.1484 -0.2248  0.3677
  140loPI   C3A 2233   8.621  11.322   8.305 -0.0163 -0.1995 -0.1479
  140loPI   C4A 2234   8.793  11.291   7.868 -0.0920 -0.4120 -0.1222
  140loPI   C5A 2235   8.987  10.908   7.778  0.4322 -0.4156 -0.0164
  140loPI   C6A 2236   9.099  10.754   7.280  0.1939 -0.0485 -0.1029
  140loPI   C1B 2237   7.747  10.772   8.697 -0.2870 -0.0382 -0.0190
  140loPI   C2B 2238   7.964  10.978   8.354  0.0266 -0.3693  0.1706
  140loPI   C3B 2239   7.960  10.964   7.917 -0.0617 -0.0546 -0.1773
  140loPI   C4B 2240   7.959  11.215   7.451  0.0846  0.3035 -0.3912
  141loPI    C1 2241   4.376  10.530   9.755 -0.0585  0.1951  0.2276
  141loPI    C2 2242   4.202  10.520  10.115 -0.0210 -0.0053  0.2412
  141loPI    C3 2243   4.499  10.266  10.029 -0.0237  0.0476  0.0715
  141loPI   PO4 2244   4.317  10.833   9.597 -0.1625  0.0134  0.1186
  141loPI   GL1 2245   4.136  11.007   9.371  0.1505  0.1346 -0.2341
  141loPI   GL2 2246   4.408  10.890   9.144 -0.2695  0.0336 -0.0754
  141loPI   C1A 2247   3.927  10.891   8.990 -0.2233 -0.2545  0.0060
  141loPI   C2A 2248   3.975  10.931   8.530  0.0945  0.1843 -0.3012
  141loPI   C3A 2249   4.084  11.124   8.089  0.3291  0.4206 -0.1650
  141loPI   C4A 2250   4.042  11.264   7.633 -0.1204 -0.0594  0.0897
  141loPI   C5A 2251   4.266  11.405   7.264 -0.0888 -0.1128 -0.0449
  141loPI   C6A 2252   4.145  11.777   7.040 -0.0373  0.2207  0.2043
  141loPI   C1B 2253   4.429  10.923   8.703 -0.1618  0.2985 -0.2919
  141loPI   C2B 2254   4.530  11.021   8.318  0.3062  0.0224 -0.2167
  141loPI   C3B 2255   4.551  11.138   7.832 -0.1144  0.3497  0.1295
  141loPI   C4B 2256   4.608  11.046   7.400 -0.0786 -0.0688  0.0188
  142loPI    C1 2257   3.299   5.611   9.329 -0.1608 -0.0040  0.2107
  142loPI    C2 2258   3.364   6.005   9.354 -0.1986  0.0232 -0.0835
  142loPI    C3 2259   3.075   5.836   9.573 -0.1128  0.1400  0.1234
  142loPI   PO4 2260   3.274   5.594   9.036  0.3193  0.1905  0.1557
  142loPI   GL1 2261   3.445   5.414   8.701  0.1564  0.1330  0.0379
  142loPI   GL2 2262   3.822   5.371   8.562  0.2651 -0.0101  0.0687
  142loPI   C1A 2263   3.414   5.169   8.383  0.2483  0.2991 -0.0809
  142loPI   C2A 2264   3.521   5.011   7.929  0.0392  0.4241 -0.4655
  142loPI   C3A 2265   3.647   5.002   7.522 -0.0983 -0.1890 -0.0678
  142loPI   C4A 2266   3.941   4.781   7.271 -0.0462  0.0765 -0.1758
  142loPI   C5A 2267   4.260   4.789   6.892 -0.1153 -0.1405 -0.1210
  142loPI   C6A 2268   4.194   4.545   6.539  0.2468  0.0149 -0.4187
  142loPI   C1B 2269   3.760   5.414   8.118 -0.1769 -0.0328 -0.0737
  142loPI   C2B 2270   3.980   5.415   7.703 -0.1508 -0.3394  0.0013
  142loPI   C3B 2271   4.019   5.255   7.273  0.1800  0.0495  0.0265
  142loPI   C4B 2272   3.853   5.403   6.850 -0.0314  0.1264 -0.0379
  143loPI    C1 2273   1.045   4.777   9.664  0.2342 -0.1954 -0.1182
  143loPI    C2 2274   1.269   4.486   9.822  0.0679 -0.2342  0.0495
  143loPI    C3 2275   0.874   4.434   9.779  0.0735 -0.1252 -0.1441
  143loPI   PO4 2276   1.207   4.904   9.393 -0.0808  0.1651 -0.3591
  143loPI   GL1 2277   1.223   4.916   9.018 -0.0897  0.1783 -0.4912
  143loPI   GL2 2278   1.240   5.174   8.863  0.1722  0.3224  0.2205
  143loPI   C1A 2279   1.083   4.835   8.581 -0.0426  0.0453  0.0440
  143loPI   C2A 2280   0.984   5.073   8.282 -0.1754 -0.1138  0.2388
  143loPI   C3A 2281   0.998   5.415   8.058  0.0105  0.2438  0.0135
  143loPI   C4A 2282   0.999   5.724   7.671 -0.1250 -0.1665 -0.0713
  143loPI   C5A 2283   1.039   5.809   7.246 -0.3714 -0.1024 -0.0867
  143loPI   C6A 2284   0.765   6.086   6.909  0.1217  0.3677  0.1232
  143loPI   C1B 2285   1.408   5.247   8.441  0.0527  0.3006 -0.0777
  143loPI   C2B 2286   1.659   5.169   8.006 -0.0461 -0.4024 -0.3102
  143loPI   C3B 2287   1.680   4.963   7.622 -0.4103  0.0931 -0.1488
  143loPI   C4B 2288   1.684   4.675   7.261  0.1421  0.0361  0.1114
  144loPI    C1 2289   1.686  17.933   9.628 -0.2012  0.0871 -0.1324
  144loPI    C2 2290   1.714  18.175   9.945  0.0586 -0.0791 -0.0253
  144loPI    C3 2291   1.434  17.889   9.935 -0.0125 -0.0110  0.0105
  144loPI   PO4 2292   1.709  18.228   9.444  0.1075  0.4922  0.1984
  144loPI   GL1 2293   1.690  18.250   9.025 -0.2964 -0.2452 -0.0050
  144loPI   GL2 2294   1.969  18.462   9.044 -0.1725 -0.1771 -0.0286
  144loPI   C1A 2295   1.543  18.536   8.644  0.1529 -0.1634 -0.2885
  144loPI   C2A 2296   1.678  18.591   8.186 -0.2557  0.1600 -0.0145
  144loPI   C3A 2297   1.652  18.729   7.752 -0.0929  0.2113 -0.1804
  144loPI   C4A 2298   1.480  18.689   7.346  0.2413 -0.0984  0.0047
  144loPI   C5A 2299   1.741  19.041   7.071  0.1552 -0.2967  0.2806
  144loPI   C6A 2300   1.971  19.038   6.705  0.1672 -0.1242 -0.1204
  144loPI   C1B 2301   2.062  18.494   8.676 -0.0516  0.1520 -0.0664
  144loPI   C2B 2302   2.389  18.564   8.394 -0.2190 -0.1046 -0.0921
  144loPI   C3B 2303   2.768  18.673   8.356 -0.3698  0.2020  0.0539
  144loPI   C4B 2304   3.031  18.765   8.119  0.1336  0.2710  0.1157
  145loPI    C1 2305  17.745   2.693   9.634 -0.3591 -0.0250 -0.0576
  145loPI    C2 2306  18.092   2.771   9.817 -0.3041  0.1789 -0.2449
  145loPI    C3 2307  17.766   2.691  10.033 -0.0912 -0.2454 -0.0695
  145loPI   PO4 2308  17.805   2.917   9.427 -0.1515  0.0618  0.0134
  145loPI   GL1 2309  17.412   3.085   9.128 -0.0800 -0.3298  0.4550
  145loPI   GL2 2310  17.684   3.275   8.899 -0.1406 -0.4743  0.2613
  145loPI   C1A 2311  17.440   2.908   8.778  0.0141  0.3705 -0.0397
  145loPI   C2A 2312  17.594   2.873   8.330  0.0852 -0.0958  0.1280
  145loPI   C3A 2313  17.500   3.062   7.953 -0.1992 -0.1938  0.1217
  145loPI   C4A 2314  17.438   3.327   7.647  0.0777 -0.2543  0.2687
  145loPI   C5A 2315  17.361   3.298   7.192  0.4202  0.2245 -0.0946
  145loPI   C6A 2316  16.880   3.247   7.340  0.1536  0.5125  0.1537
  145loPI   C1B 2317  17.503   3.326   8.443 -0.2099  0.2888 -0.0350
  145loPI   C2B 2318  17.618   3.556   8.140  0.2123  0.0183  0.3691
  145loPI   C3B 2319  17.197   3.800   8.005  0.1003 -0.2733  0.2774
  145loPI   C4B 2320  17.003   4.113   8.215  0.2499  0.0991  0.0216
  146loPI    C1 2321  16.842   8.765   9.682 -0.2563  0.1418 -0.1526
  146loPI    C2 2322  16.736   8.870  10.053 -0.1336  0.0370 -0.0868
  146loPI    C3 2323  16.733   8.485   9.946  0.0749  0.0421 -0.1163
  146loPI   PO4 2324  16.701   8.874   9.520  0.2787  0.2420 -0.3317
  146loPI   GL1 2325  16.556   9.062   9.207  0.0977  0.0465 -0.0939
  146loPI   GL2 2326  16.544   9.258   8.973 -0.0754 -0.1789 -0.2763
  146loPI   C1A 2327  16.387   8.774   8.837  0.0071 -0.3485  0.0502
  146loPI   C2A 2328  16.330   8.774   8.339  0.0809  0.2534 -0.0844
  146loPI   C3A 2329  16.352   8.840   7.923 -0.1405 -0.1319 -0.0443
  146loPI   C4A 2330  16.349   9.151   7.651 -0.1473 -0.0071 -0.0320
  146loPI   C5A 2331  16.374   9.155   7.134  0.0503  0.5021  0.1396
  146loPI   C6A 2332  16.409   9.047   6.711 -0.2773  0.0352 -0.0627
  146loPI   C1B 2333  16.565   9.162   8.586 -0.0614 -0.2394 -0.0198
  146loPI   C2B 2334  16.476   9.226   8.230 -0.2912 -0.0142 -0.4674
  146loPI   C3B 2335  16.812   9.208   7.859  0.4279 -0.0253  0.1400
  146loPI   C4B 2336  16.816   9.235   7.448  0.1147  0.3108 -0.1621
  147loPI    C1 2337  16.571   3.224   9.641 -0.1057  0.1150  0.0446
  147loPI    C2 2338  16.864   3.494   9.675  0.0587 -0.0948  0.3387
  147loPI    C3 2339  16.583   3.466   9.959 -0.2305  0.0804  0.0766
  147loPI   PO4 2340  16.538   3.265   9.349  0.0720  0.3549 -0.1312
  147loPI   GL1 2341  16.623   3.620   9.084 -0.1803 -0.0738 -0.0666
  147loPI   GL2 2342  16.568   3.905   9.047  0.0535 -0.1051 -0.0104
  147loPI   C1A 2343  16.534   3.413   8.627  0.5585 -0.1278 -0.1721
  147loPI   C2A 2344  16.331   3.281   8.145  0.2340  0.1547  0.1159
  147loPI   C3A 2345  16.327   3.222   7.727  0.2916 -0.1496 -0.2175
  147loPI   C4A 2346  16.484   3.518   7.475 -0.1381  0.0024 -0.1945
  147loPI   C5A 2347  16.605   3.817   7.187 -0.0598 -0.1202  0.0165
  147loPI   C6A 2348  16.483   4.195   7.194  0.2283 -0.1269 -0.0872
  147loPI   C1B 2349  16.198   3.880   8.745  0.1997 -0.0568 -0.1128
  147loPI   C2B 2350  16.215   3.789   8.311 -0.3675  0.1180 -0.2490
  147loPI   C3B 2351  16.195   3.723   7.894 -0.1026 -0.2409 -0.1776
  147loPI   C4B 2352  16.153   3.954   7.549 -0.0793  0.0763 -0.0554
  148loPI    C1 2353   9.247   0.862  10.427  0.1278  0.0456  0.0832
  148loPI    C2 2354   9.548   0.598  10.434  0.0544 -0.0460 -0.1381
  148loPI    C3 2355   9.267   0.588  10.718  0.2426  0.0216  0.0534
  148loPI   PO4 2356   9.182   0.866  10.187 -0.0285  0.3155 -0.3688
  148loPI   GL1 2357   9.410   1.151   9.828 -0.1508 -0.0430 -0.1850
  148loPI   GL2 2358   9.041   1.129   9.713 -0.0786  0.0606  0.0162
  148loPI   C1A 2359   9.647   1.116   9.370  0.0160  0.1426  0.2042
  148loPI   C2A 2360   9.958   1.052   9.031 -0.2379  0.3427  0.2544
  148loPI   C3A 2361   9.994   1.013   8.712 -0.0412  0.1125 -0.1777
  148loPI   C4A 2362   9.929   0.967   8.284 -0.0785 -0.3019  0.1931
  148loPI   C5A 2363   9.939   0.859   7.924  0.1094 -0.1123 -0.0951
  148loPI   C6A 2364   9.757   1.038   7.636  0.1664  0.1249  0.3275
  148loPI   C1B 2365   9.179   1.077   9.271  0.3390  0.1834 -0.2860
  148loPI   C2B 2366   9.388   0.977   8.953 -0.0418  0.0066 -0.1928
  148loPI   C3B 2367   9.552   0.763   8.580 -0.2462  0.1160  0.0005
  148loPI   C4B 2368   9.440   0.834   8.092 -0.1744 -0.2874  0.0276
  149loPI    C1 2369  15.392   5.279   9.573 -0.0869 -0.1739 -0.0640
  149loPI    C2 2370  15.612   5.557   9.759 -0.0993 -0.2235  0.0252
  149loPI    C3 2371  15.540   5.206   9.937  0.0212 -0.3332 -0.1388
  149loPI   PO4 2372  15.259   5.571   9.422  0.0043  0.3412 -0.1970
  149loPI   GL1 2373  15.229   5.747   8.949  0.1123 -0.0095  0.2977
  149loPI   GL2 2374  14.858   5.908   9.006  0.1171  0.1376 -0.0039
  149loPI   C1A 2375  14.884   5.545   8.626  0.2039  0.1494 -0.0832
  149loPI   C2A 2376  14.715   5.336   8.329 -0.2949  0.1664 -0.0031
  149loPI   C3A 2377  14.538   5.257   7.901  0.1281  0.0060  0.0199
  149loPI   C4A 2378  14.412   5.372   7.373 -0.3960  0.2138 -0.1468
  149loPI   C5A 2379  14.533   5.313   6.917  0.0819  0.3568 -0.1343
  149loPI   C6A 2380  14.527   5.337   6.386 -0.1422 -0.1439 -0.2549
  149loPI   C1B 2381  14.793   6.124   8.656 -0.0000  0.0924  0.1090
  149loPI   C2B 2382  14.594   6.152   8.262 -0.1443  0.0746 -0.1242
  149loPI   C3B 2383  14.595   6.046   7.836 -0.1115  0.0004 -0.3096
  149loPI   C4B 2384  14.564   5.744   7.603 -0.3729  0.2270  0.1290
  150loPI    C1 2385   1.823   9.080  10.077  0.0493  0.1608 -0.0479
  150loPI    C2 2386   2.176   9.156   9.906  0.2556  0.0805  0.3298
  150loPI    C3 2387   2.065   9.358  10.233 -0.0503  0.1032  0.2155
  150loPI   PO4 2388   1.666   9.120   9.874  0.0378  0.1033  0.5420
  150loPI   GL1 2389   1.630   8.937   9.482  0.1706  0.0348 -0.0265
  150loPI   GL2 2390   1.395   8.884   9.278  0.4247 -0.0765  0.2751
  150loPI   C1A 2391   1.820   9.196   9.044 -0.1394 -0.1714  0.2688
  150loPI   C2A 2392   1.846   9.159   8.553  0.1785 -0.0903  0.7276
  150loPI   C3A 2393   1.834   9.008   8.139  0.2796 -0.0301 -0.0553
  150loPI   C4A 2394   1.755   9.270   7.741 -0.1855  0.1289 -0.0960
  150loPI   C5A 2395   1.938   9.542   7.465 -0.3144  0.3357  0.0613
  150loPI   C6A 2396   1.821   9.958   7.221 -0.0617  0.3179  0.2024
  150loPI   C1B 2397   1.437   8.932   8.783 -0.3356 -0.0018  0.0504
  150loPI   C2B 2398   1.282   9.000   8.439  0.0158  0.0926  0.1957
  150loPI   C3B 2399   1.333   8.941   7.991  0.2352  0.1595 -0.0167
  150loPI   C4B 2400   1.560   8.787   7.549 -0.2579 -0.0330  0.2127
  151loPI    C1 2401  10.637  14.803   9.616  0.1392 -0.0624 -0.0728
  151loPI    C2 2402  10.292  14.603   9.579  0.1199 -0.0037 -0.2155
  151loPI    C3 2403  10.530  14.534   9.893 -0.0344 -0.0249 -0.1021
  151loPI   PO4 2404  10.690  14.855   9.262  0.0885 -0.1896 -0.0336
  151loPI   GL1 2405  10.576  14.862   8.934  0.0788  0.1689 -0.0623
  151loPI   GL2 2406  10.239  14.853   9.103  0.3261  0.2712 -0.0240
  151loPI   C1A 2407  10.694  14.538   8.717  0.0407 -0.0035 -0.4148
  151loPI   C2A 2408  10.773  14.352   8.445 -0.0450 -0.0191  0.0893
  151loPI   C3A 2409  10.753  14.286   7.947  0.2533 -0.0758 -0.0921
  151loPI   C4A 2410  10.903  14.178   7.493 -0.1980 -0.1824 -0.0774
  151loPI   C5A 2411  11.216  14.158   7.310 -0.1215  0.0590  0.1717
  151loPI   C6A 2412  11.512  14.045   7.155 -0.3746 -0.2101 -0.1687
  151loPI   C1B 2413  10.197  14.659   8.783  0.2296 -0.2568  0.0587
  151loPI   C2B 2414  10.396  14.675   8.347 -0.0056 -0.0727  0.1406
  151loPI   C3B 2415  10.413  14.645   7.955  0.0329 -0.0837 -0.1145
  151loPI   C4B 2416  10.539  14.557   7.611 -0.0033  0.0402  0.0255
  152loPI    C1 2417  15.342  19.244   9.596 -0.3715 -0.1869 -0.1177
  152loPI    C2 2418  15.320  19.404   9.962 -0.2365 -0.0424 -0.1717
  152loPI    C3 2419  15.676  19.350   9.789 -0.2914 -0.2454 -0.2235
  152loPI   PO4 2420  15.152  19.097   9.533 -0.1590  0.1151  0.2575
  152loPI   GL1 2421  14.813  19.175   9.142 -0.0347  0.0293 -0.0373
  152loPI   GL2 2422  14.667  19.470   9.189  0.0061 -0.1056 -0.3344
  152loPI   C1A 2423  14.711  18.973   8.770 -0.1585 -0.1112 -0.1877
  152loPI   C2A 2424  14.538  19.116   8.415 -0.2340 -0.2351 -0.1804
  152loPI   C3A 2425  14.467  19.254   7.965  0.0939 -0.0941  0.1160
  152loPI   C4A 2426  14.413  19.226   7.542 -0.0583 -0.2185  0.0413
  152loPI   C5A 2427  14.316  19.445   7.154  0.1559 -0.2556  0.1194
  152loPI   C6A 2428  14.650  19.280   6.944 -0.2708  0.1473  0.0391
  152loPI   C1B 2429  14.708  19.482   8.768  0.1865 -0.0274 -0.2506
  152loPI   C2B 2430  14.603  19.608   8.266  0.0237 -0.1090 -0.2924
  152loPI   C3B 2431  14.621  19.710   7.832 -0.2581  0.2483 -0.0954
  152loPI   C4B 2432  14.492  19.839   7.434 -0.0727 -0.2973 -0.4584
  153loPI    C1 2433   1.640   1.688   9.446  0.1631 -0.0017 -0.1030
  153loPI    C2 2434   1.560   1.431   9.742  0.0579 -0.1144 -0.2281
  153loPI    C3 2435   1.483   1.820   9.790 -0.0349 -0.1436 -0.1370
  153loPI   PO4 2436   1.567   1.593   9.272 -0.0086 -0.3107 -0.0878
  153loPI   GL1 2437   1.340   1.361   8.926  0.0892  0.1390  0.0272
  153loPI   GL2 2438   1.491   1.650   8.733 -0.1369 -0.0924  0.2530
  153loPI   C1A 2439   1.317   1.135   8.503  0.1504  0.1184 -0.0064
  153loPI   C2A 2440   1.445   1.082   8.134 -0.3094 -0.1370 -0.0950
  153loPI   C3A 2441   1.662   1.069   7.779  0.0544 -0.0866 -0.2247
  153loPI   C4A 2442   1.639   1.024   7.403  0.1180 -0.1351 -0.1513
  153loPI   C5A 2443   1.945   1.079   7.089 -0.2094  0.0992 -0.3115
  153loPI   C6A 2444   2.298   0.951   6.756 -0.1008 -0.0448 -0.0938
  153loPI   C1B 2445   1.501   1.595   8.282  0.1559  0.1058  0.1901
  153loPI   C2B 2446   1.545   1.582   7.871 -0.0768 -0.1408  0.0711
  153loPI   C3B 2447   1.438   1.742   7.411  0.0541 -0.2176 -0.1829
  153loPI   C4B 2448   1.382   2.036   7.094  0.1574  0.0787  0.0344
  154loPI    C1 2449   8.960  18.745  10.103  0.0532  0.0483 -0.0317
  154loPI    C2 2450   9.038  18.428  10.333  0.3301  0.0658 -0.0986
  154loPI    C3 2451   8.914  18.770  10.499  0.1145 -0.0494 -0.0183
  154loPI   PO4 2452   8.819  18.591   9.854 -0.1630 -0.2496 -0.0554
  154loPI   GL1 2453   9.015  18.719   9.497  0.2826 -0.2330 -0.0518
  154loPI   GL2 2454   9.154  18.991   9.633 -0.2426 -0.2673  0.0093
  154loPI   C1A 2455   9.106  18.864   9.098 -0.0263 -0.0880  0.1025
  154loPI   C2A 2456   9.211  18.716   8.639  0.2269 -0.4576  0.2847
  154loPI   C3A 2457   9.110  18.699   8.162 -0.3028 -0.1793 -0.0247
  154loPI   C4A 2458   8.751  18.710   7.892 -0.0790  0.0122  0.0315
  154loPI   C5A 2459   8.405  18.977   7.746 -0.1416 -0.0370 -0.1626
  154loPI   C6A 2460   8.335  19.406   7.621 -0.2290 -0.1713  0.1256
  154loPI   C1B 2461   9.524  18.687   9.378 -0.2439 -0.1569 -0.4118
  154loPI   C2B 2462   9.646  18.879   9.040 -0.0739  0.0120  0.2723
  154loPI   C3B 2463   9.703  18.841   8.618 -0.1071  0.1256 -0.0595
  154loPI   C4B 2464   9.616  18.732   8.183 -0.0508 -0.2483  0.1401
  155loPI    C1 2465  15.322   3.442   9.702 -0.0396 -0.0043 -0.2374
  155loPI    C2 2466  15.431   3.070   9.799 -0.2756  0.0019  0.0678
  155loPI    C3 2467  15.540   3.377  10.031 -0.1001  0.1228 -0.1714
  155loPI   PO4 2468  15.095   3.282   9.524 -0.0499  0.0300  0.0853
  155loPI   GL1 2469  15.245   3.414   9.082 -0.1629  0.1408  0.1841
  155loPI   GL2 2470  15.255   3.083   9.032 -0.0300  0.2815  0.0498
  155loPI   C1A 2471  15.373   3.350   8.662  0.0321 -0.4650  0.2178
  155loPI   C2A 2472  15.272   3.308   8.272 -0.0147  0.3229  0.1583
  155loPI   C3A 2473  15.348   3.206   7.840 -0.0165 -0.0036  0.2076
  155loPI   C4A 2474  15.366   3.169   7.406  0.1837 -0.1058  0.1390
  155loPI   C5A 2475  15.217   3.227   6.995 -0.1654  0.4322  0.4362
  155loPI   C6A 2476  14.852   3.428   7.048  0.1742 -0.1771  0.0828
  155loPI   C1B 2477  14.925   3.152   8.698 -0.0543 -0.3742 -0.1204
  155loPI   C2B 2478  14.665   3.406   8.334 -0.1787 -0.0619 -0.0863
  155loPI   C3B 2479  14.881   3.302   7.860 -0.2642  0.2813  0.2313
  155loPI   C4B 2480  14.999   3.514   7.591  0.2005 -0.0097  0.3090
  156loPI    C1 2481  12.887   6.306   9.896  0.3607 -0.0713 -0.2125
  156loPI    C2 2482  13.143   6.183  10.178  0.4365  0.0941 -0.2083
  156loPI    C3 2483  12.984   5.919   9.923  0.2718 -0.0765  0.0657
  156loPI   PO4 2484  12.980   6.490   9.758 -0.1572  0.3387 -0.3968
  156loPI   GL1 2485  12.795   6.436   9.410 -0.1218 -0.5329  0.0576
  156loPI   GL2 2486  12.813   6.139   9.379 -0.1826  0.0751  0.0464
  156loPI   C1A 2487  12.792   6.444   8.930  0.3846  0.0652  0.1969
  156loPI   C2A 2488  12.757   6.628   8.652  0.1729 -0.0572 -0.1205
  156loPI   C3A 2489  12.691   6.525   8.202 -0.2368  0.0923  0.3148
  156loPI   C4A 2490  12.730   6.449   7.761  0.1321  0.0996 -0.1195
  156loPI   C5A 2491  12.971   6.354   7.400  0.0404 -0.1146  0.0102
  156loPI   C6A 2492  13.080   5.943   7.162 -0.2575  0.3654  0.0799
  156loPI   C1B 2493  12.529   6.002   8.937  0.0907 -0.0187 -0.0331
  156loPI   C2B 2494  12.387   5.691   8.613 -0.4440  0.0866  0.0314
  156loPI   C3B 2495  12.189   5.640   8.191 -0.2763  0.1610 -0.0202
  156loPI   C4B 2496  12.170   5.545   7.799 -0.1719 -0.0665  0.1232
  157loPI    C1 2497  16.400  15.713   9.578  0.1095  0.1610  0.0024
  157loPI    C2 2498  16.301  15.403   9.810  0.1464  0.0117 -0.1794
  157loPI    C3 2499  16.051  15.712   9.772  0.1596  0.0581  0.0930
  157loPI   PO4 2500  16.536  15.618   9.337  0.3229 -0.1345 -0.2651
  157loPI   GL1 2501  16.506  15.519   8.975  0.1802 -0.2387  0.2022
  157loPI   GL2 2502  16.199  15.560   8.794  0.0167 -0.4130  0.0273
  157loPI   C1A 2503  16.730  15.452   8.612 -0.0840  0.0196 -0.0317
  157loPI   C2A 2504  16.912  15.618   8.234  0.1000  0.2749  0.1530
  157loPI   C3A 2505  17.011  15.789   7.772 -0.1372  0.0228 -0.0629
  157loPI   C4A 2506  16.681  15.709   7.365  0.2041  0.1281  0.0756
  157loPI   C5A 2507  16.430  15.779   7.021 -0.1174 -0.0241  0.2802
  157loPI   C6A 2508  16.316  15.619   6.625 -0.0588 -0.1733 -0.1589
  157loPI   C1B 2509  16.334  15.774   8.532 -0.0275  0.0903 -0.0401
  157loPI   C2B 2510  16.361  15.629   8.227 -0.1577 -0.3496  0.0556
  157loPI   C3B 2511  16.460  15.661   7.786  0.0681 -0.1557  0.0021
  157loPI   C4B 2512  16.148  15.794   7.491  0.0469 -0.0058 -0.1242
  158loPI    C1 2513   0.694   2.999   9.803  0.0971 -0.0292 -0.0406
  158loPI    C2 2514   0.655   3.381   9.917  0.0717 -0.0468  0.0100
  158loPI    C3 2515   0.682   3.092  10.192 -0.2647 -0.1180 -0.0267
  158loPI   PO4 2516   0.959   3.081   9.572  0.1707  0.1579 -0.1881
  158loPI   GL1 2517   1.058   3.026   9.201  0.0665  0.4766 -0.2024
  158loPI   GL2 2518   1.158   2.832   8.931  0.1412 -0.1020 -0.3397
  158loPI   C1A 2519   0.987   3.269   8.840  0.1974  0.0250 -0.2252
  158loPI   C2A 2520   1.076   3.391   8.430  0.0096  0.0900  0.1918
  158loPI   C3A 2521   1.084   3.421   8.008  0.0139  0.4180 -0.3020
  158loPI   C4A 2522   1.210   3.551   7.644 -0.1587 -0.0875 -0.1271
  158loPI   C5A 2523   1.157   3.641   7.222 -0.0425 -0.1059  0.2776
  158loPI   C6A 2524   1.027   3.959   6.945 -0.0275  0.1113 -0.0920
  158loPI   C1B 2525   1.137   2.911   8.537  0.3898 -0.0630  0.2681
  158loPI   C2B 2526   1.125   2.878   8.065  0.4197 -0.3217  0.4146
  158loPI   C3B 2527   0.917   3.011   7.708 -0.1215  0.1390 -0.2395
  158loPI   C4B 2528   1.082   3.137   7.393  0.6001 -0.1095  0.0079
  159loPI    C1 2529   6.760   9.271   9.671 -0.0558 -0.1090 -0.1312
  159loPI    C2 2530   7.037   9.527   9.804 -0.1025 -0.0949 -0.0607
  159loPI    C3 2531   6.881   9.255  10.052 -0.1139 -0.1368 -0.1138
  159loPI   PO4 2532   6.830   9.359   9.392  0.0963  0.0808 -0.2731
  159loPI   GL1 2533   6.801   9.751   9.127 -0.1392  0.2111  0.1564
  159loPI   GL2 2534   7.023   9.594   8.971  0.2584  0.2426  0.0945
  159loPI   C1A 2535   6.583   9.720   8.762 -0.0631  0.2363 -0.0330
  159loPI   C2A 2536   6.597   9.841   8.385 -0.1592  0.0757  0.2073
  159loPI   C3A 2537   6.370  10.179   8.212 -0.1057 -0.2867  0.3257
  159loPI   C4A 2538   6.381  10.516   8.000  0.2240  0.1234 -0.1663
  159loPI   C5A 2539   6.592  10.629   7.675  0.2259  0.0093 -0.2309
  159loPI   C6A 2540   6.431  10.908   7.421  0.1526 -0.0693 -0.1269
  159loPI   C1B 2541   7.013   9.568   8.486  0.1695  0.1412 -0.2303
  159loPI   C2B 2542   6.965   9.817   8.082 -0.1377  0.4461 -0.1720
  159loPI   C3B 2543   6.686  10.023   7.793 -0.2655  0.0841  0.1855
  159loPI   C4B 2544   6.336  10.157   7.663 -0.0527 -0.1589 -0.0759
  160loPI    C1 2545  10.900   4.315  10.539  0.0262 -0.0879  0.0759
  160loPI    C2 2546  10.575   4.543  10.488  0.1176  0.0197 -0.0296
  160loPI    C3 2547  10.636   4.358  10.837 -0.0885 -0.0513 -0.0303
  160loPI   PO4 2548  10.960   4.325  10.343 -0.1291  0.0876 -0.1707
  160loPI   GL1 2549  11.145   4.373   9.995  0.0339  0.0502  0.1681
  160loPI   GL2 2550  11.434   4.266   9.870 -0.2368 -0.0633 -0.3899
  160loPI   C1A 2551  10.991   4.236   9.580 -0.1555 -0.2408  0.1095
  160loPI   C2A 2552  10.689   4.044   9.294 -0.1923  0.0010  0.2491
  160loPI   C3A 2553  10.703   3.758   8.923  0.2322  0.1487 -0.2875
  160loPI   C4A 2554  10.711   3.568   8.511  0.3057 -0.0714  0.2235
  160loPI   C5A 2555  10.637   3.665   8.035  0.1667  0.1706  0.0460
  160loPI   C6A 2556  10.330   3.756   7.733 -0.0159  0.1536 -0.0608
  160loPI   C1B 2557  11.418   4.098   9.528  0.0237 -0.1104  0.1707
  160loPI   C2B 2558  11.202   4.190   9.129  0.0819  0.0791  0.1114
  160loPI   C3B 2559  11.180   4.070   8.783 -0.1779 -0.2305  0.0358
  160loPI   C4B 2560  11.002   4.162   8.375  0.2923 -0.1183  0.3663
  161loPI    C1 2561   7.817   6.291   9.704  0.3482 -0.1275 -0.1050
  161loPI    C2 2562   7.909   6.443  10.062  0.1267 -0.0954 -0.0601
  161loPI    C3 2563   7.530   6.448   9.934  0.2113 -0.0644 -0.3153
  161loPI   PO4 2564   7.943   6.094   9.703  0.2089  0.1276 -0.0688
  161loPI   GL1 2565   8.055   5.898   9.343 -0.3523 -0.3678 -0.0215
  161loPI   GL2 2566   8.301   6.158   9.353 -0.1916 -0.0079 -0.0948
  161loPI   C1A 2567   7.929   5.902   8.940  0.0941  0.3419 -0.2773
  161loPI   C2A 2568   8.127   5.778   8.608  0.2031 -0.1357 -0.0145
  161loPI   C3A 2569   8.114   5.694   8.296 -0.0883  0.1011 -0.0269
  161loPI   C4A 2570   7.973   5.810   7.913  0.1082  0.0435 -0.0971
  161loPI   C5A 2571   7.952   6.041   7.576  0.0899  0.3618  0.0435
  161loPI   C6A 2572   7.839   6.491   7.552  0.1503  0.0444 -0.1078
  161loPI   C1B 2573   8.521   6.007   9.034 -0.3414  0.0490  0.1082
  161loPI   C2B 2574   8.631   5.956   8.629 -0.2088  0.1053 -0.2068
  161loPI   C3B 2575   8.740   5.701   8.266 -0.1292  0.1151 -0.0565
  161loPI   C4B 2576   8.486   5.626   7.947 -0.0652  0.0331 -0.4722
  162loPI    C1 2577   4.536   0.958   9.686 -0.1973  0.1558 -0.0227
  162loPI    C2 2578   4.264   0.752   9.896 -0.0129 -0.0615  0.0072
  162loPI    C3 2579   4.654   0.688   9.956  0.0445  0.0720 -0.2088
  162loPI   PO4 2580   4.576   0.876   9.451 -0.0810  0.1710 -0.0653
  162loPI   GL1 2581   4.742   1.042   9.046  0.0823  0.1031 -0.0822
  162loPI   GL2 2582   4.370   0.869   8.981 -0.0795 -0.3503 -0.4045
  162loPI   C1A 2583   4.919   1.301   8.739  0.1066 -0.2898 -0.0336
  162loPI   C2A 2584   5.063   1.294   8.362 -0.2728  0.1012  0.1160
  162loPI   C3A 2585   5.296   1.144   7.957 -0.0217 -0.0941  0.0932
  162loPI   C4A 2586   5.290   0.953   7.668 -0.2293  0.1185 -0.2224
  162loPI   C5A 2587   5.423   0.765   7.260  0.3244  0.1032 -0.2563
  162loPI   C6A 2588   5.811   0.679   7.064  0.3512 -0.2195  0.0533
  162loPI   C1B 2589   4.343   0.868   8.512 -0.1206  0.0163  0.0847
  162loPI   C2B 2590   4.365   1.051   8.125  0.0609 -0.0176 -0.1990
  162loPI   C3B 2591   4.429   0.880   7.746 -0.0147  0.0050  0.0185
  162loPI   C4B 2592   4.287   0.799   7.337  0.1728  0.0145 -0.2447
  163loPI    C1 2593   9.861  15.762   9.953 -0.1314 -0.0639  0.1748
  163loPI    C2 2594   9.516  15.765  10.157 -0.0523  0.0415  0.3083
  163loPI    C3 2595   9.857  15.870  10.338  0.0500 -0.0587  0.1759
  163loPI   PO4 2596   9.813  15.859   9.780  0.0573  0.1097  0.2199
  163loPI   GL1 2597   9.872  15.915   9.372 -0.1277 -0.1266  0.0210
  163loPI   GL2 2598  10.117  15.693   9.190  0.1533 -0.2064 -0.0252
  163loPI   C1A 2599   9.716  16.062   8.989 -0.0855  0.2475 -0.3634
  163loPI   C2A 2600   9.768  16.056   8.630  0.1801 -0.0984 -0.3301
  163loPI   C3A 2601   9.741  16.057   8.239 -0.1826 -0.3338  0.1221
  163loPI   C4A 2602   9.627  16.030   7.810 -0.6231 -0.0644 -0.2172
  163loPI   C5A 2603  10.013  16.163   7.531 -0.1462  0.0377 -0.4018
  163loPI   C6A 2604  10.539  16.267   7.420  0.0630 -0.3393  0.1057
  163loPI   C1B 2605  10.038  15.677   8.735 -0.2479  0.1026 -0.3961
  163loPI   C2B 2606  10.095  15.766   8.290 -0.2063  0.0078 -0.2719
  163loPI   C3B 2607  10.226  15.761   7.920 -0.2379 -0.2987 -0.4135
  163loPI   C4B 2608  10.618  15.759   7.642  0.1035  0.0389  0.1325
  164loPI    C1 2609   7.986   5.600   9.967  0.1890  0.1557  0.0118
  164loPI    C2 2610   7.850   5.230  10.030  0.0967  0.1713 -0.0936
  164loPI    C3 2611   8.151   5.372  10.251  0.0717  0.0665  0.0090
  164loPI   PO4 2612   8.008   5.548   9.688  0.2956  0.1157  0.0723
  164loPI   GL1 2613   8.208   5.382   9.322 -0.1765  0.3196 -0.3698
  164loPI   GL2 2614   8.486   5.550   9.274 -0.0091  0.2116  0.2230
  164loPI   C1A 2615   7.993   5.313   8.848  0.3072 -0.3188 -0.1417
  164loPI   C2A 2616   8.017   5.202   8.385 -0.0075 -0.0949  0.3205
  164loPI   C3A 2617   8.121   5.229   7.890 -0.2055  0.1214 -0.0920
  164loPI   C4A 2618   8.340   5.134   7.538 -0.0284  0.0045 -0.1296
  164loPI   C5A 2619   8.208   5.060   7.126  0.2819  0.0880 -0.3161
  164loPI   C6A 2620   8.244   5.131   6.730  0.1286  0.1986 -0.2120
  164loPI   C1B 2621   8.431   5.502   8.823 -0.0708  0.1069 -0.1381
  164loPI   C2B 2622   8.653   5.277   8.496 -0.0284 -0.3142 -0.0070
  164loPI   C3B 2623   8.551   5.072   8.045  0.0865  0.1168 -0.2358
  164loPI   C4B 2624   8.636   4.821   7.812 -0.1835  0.3276 -0.0000
  165loPI    C1 2625   0.388   1.823   9.432  0.1734 -0.1645 -0.0974
  165loPI    C2 2626   0.436   2.158   9.644 -0.2335 -0.0928 -0.1106
  165loPI    C3 2627   0.618   1.821   9.759  0.0520  0.0925 -0.0083
  165loPI   PO4 2628   0.446   1.877   9.208  0.1013  0.0069  0.0265
  165loPI   GL1 2629   0.605   1.989   8.876 -0.0437 -0.2134  0.1165
  165loPI   GL2 2630   0.339   2.088   8.764  0.1887  0.2474 -0.0262
  165loPI   C1A 2631   0.719   2.016   8.407  0.0354 -0.0109 -0.0110
  165loPI   C2A 2632   0.687   2.097   8.046  0.1352  0.2250 -0.0335
  165loPI   C3A 2633   0.644   2.020   7.593  0.1532 -0.0619 -0.2432
  165loPI   C4A 2634   0.894   2.126   7.275 -0.3073 -0.0088 -0.0497
  165loPI   C5A 2635   0.899   2.049   6.910  0.1955  0.3047  0.0022
  165loPI   C6A 2636   1.041   1.853   6.608 -0.0221 -0.0396 -0.1040
  165loPI   C1B 2637   0.215   2.109   8.288 -0.2486 -0.1676 -0.0028
  165loPI   C2B 2638   0.224   2.156   7.818  0.2219  0.0001  0.2478
  165loPI   C3B 2639   0.375   2.440   7.557 -0.0944  0.0641 -0.2821
  165loPI   C4B 2640   0.530   2.356   7.088 -0.1300  0.1145  0.0762
  166loPI    C1 2641   8.945  10.168  10.052 -0.0003  0.1819  0.0471
  166loPI    C2 2642   8.955  10.567  10.040  0.0399  0.1837  0.1332
  166loPI    C3 2643   9.219  10.368  10.264  0.0184  0.1089  0.0922
  166loPI   PO4 2644   8.703  10.165   9.898 -0.0904 -0.0620 -0.1645
  166loPI   GL1 2645   8.690  10.340   9.512 -0.2162  0.0140 -0.0093
  166loPI   GL2 2646   8.769  10.610   9.277  0.1513 -0.1469 -0.2724
  166loPI   C1A 2647   9.191  10.368   9.418  0.1275  0.0184 -0.0359
  166loPI   C2A 2648   9.324  10.269   8.951  0.0613  0.0163  0.2816
  166loPI   C3A 2649   9.489   9.982   8.634  0.1054 -0.1148 -0.0049
  166loPI   C4A 2650   9.395  10.008   8.226  0.0517  0.3040 -0.1235
  166loPI   C5A 2651   9.215   9.973   7.808 -0.0153  0.1492  0.5142
  166loPI   C6A 2652   8.856   9.990   7.686 -0.0635 -0.0013  0.0680
  166loPI   C1B 2653   8.976  10.591   8.953  0.0708 -0.1160 -0.0576
  166loPI   C2B 2654   8.790  10.773   8.540 -0.1123 -0.0873  0.2485
  166loPI   C3B 2655   8.569  10.880   8.068  0.1683 -0.1515  0.0837
  166loPI   C4B 2656   8.299  11.283   7.878 -0.0981 -0.2695  0.0757
  167loPI    C1 2657  15.903  13.878   9.738 -0.0956 -0.3022 -0.0949
  167loPI    C2 2658  15.957  13.651  10.063  0.2239 -0.0172  0.0570
  167loPI    C3 2659  15.880  14.041  10.102  0.2166  0.0104 -0.2105
  167loPI   PO4 2660  16.139  13.701   9.587  0.3154  0.0662 -0.0565
  167loPI   GL1 2661  16.350  13.674   9.201 -0.0092 -0.5761 -0.0694
  167loPI   GL2 2662  16.480  13.959   8.989  0.3301  0.2471  0.3712
  167loPI   C1A 2663  15.952  13.711   8.834  0.0206 -0.0255  0.1757
  167loPI   C2A 2664  15.986  13.698   8.371 -0.3591  0.3137  0.1195
  167loPI   C3A 2665  16.173  13.733   7.954 -0.1375 -0.2212 -0.2130
  167loPI   C4A 2666  16.313  13.799   7.620  0.2032  0.1106 -0.0601
  167loPI   C5A 2667  16.188  14.012   7.256 -0.1411  0.1534  0.0007
  167loPI   C6A 2668  15.992  14.090   6.853 -0.3373 -0.2044 -0.1430
  167loPI   C1B 2669  16.330  14.010   8.475 -0.1524 -0.1968 -0.1793
  167loPI   C2B 2670  16.488  14.113   8.086 -0.2324 -0.0705 -0.1100
  167loPI   C3B 2671  16.780  13.840   7.761  0.2042  0.2726  0.3924
  167loPI   C4B 2672  16.987  13.512   7.611 -0.2199  0.0306 -0.1212
  168loPI    C1 2673   5.786  16.940   9.908  0.1674  0.0141 -0.0960
  168loPI    C2 2674   5.541  17.064  10.199  0.0489 -0.1187 -0.1382
  168loPI    C3 2675   5.882  16.877  10.292  0.1299  0.0549 -0.0798
  168loPI   PO4 2676   5.515  17.119   9.651 -0.0406  0.1382  0.1459
  168loPI   GL1 2677   5.390  17.130   9.148  0.2336 -0.1514 -0.2034
  168loPI   GL2 2678   5.428  17.421   9.107 -0.1848  0.1179 -0.0299
  168loPI   C1A 2679   5.145  17.097   8.753 -0.2059 -0.0220 -0.0003
  168loPI   C2A 2680   5.145  16.891   8.314  0.2878  0.0886 -0.0288
  168loPI   C3A 2681   5.393  16.944   7.993  0.5605  0.5266 -0.1125
  168loPI   C4A 2682   5.651  16.939   7.598  0.0836  0.0080  0.2179
  168loPI   C5A 2683   6.065  16.852   7.585 -0.2156 -0.0106  0.4826
  168loPI   C6A 2684   6.260  16.554   7.630  0.2364  0.1183 -0.2176
  168loPI   C1B 2685   5.710  17.328   8.709 -0.2965  0.0086  0.1082
  168loPI   C2B 2686   5.570  17.162   8.400 -0.1102  0.0712  0.0598
  168loPI   C3B 2687   5.796  17.254   7.942 -0.1920  0.2781 -0.2764
  168loPI   C4B 2688   5.986  17.420   7.627 -0.0447  0.0893  0.1137
  169loPI    C1 2689  17.246   1.588   9.531  0.0194 -0.0538  0.0414
  169loPI    C2 2690  17.340   1.838   9.829 -0.0264  0.1559 -0.1171
  169loPI    C3 2691  17.461   1.456   9.841 -0.3009  0.0760  0.3246
  169loPI   PO4 2692  17.190   1.875   9.356 -0.1618 -0.1184  0.2399
  169loPI   GL1 2693  17.365   2.144   9.006  0.0291 -0.0846  0.1000
  169loPI   GL2 2694  17.038   2.227   8.979  0.0481  0.1028  0.2099
  169loPI   C1A 2695  17.536   1.946   8.595  0.0663  0.3046 -0.0537
  169loPI   C2A 2696  17.678   1.797   8.116 -0.2947  0.0688 -0.0010
  169loPI   C3A 2697  17.540   1.825   7.657  0.1618  0.0014 -0.1679
  169loPI   C4A 2698  17.589   1.950   7.209 -0.1562 -0.2599  0.0003
  169loPI   C5A 2699  17.442   2.286   6.922  0.0350  0.0627  0.1070
  169loPI   C6A 2700  17.439   2.330   6.555 -0.0597 -0.1357 -0.0776
  169loPI   C1B 2701  17.040   2.080   8.541  0.0709  0.0395 -0.0811
  169loPI   C2B 2702  17.141   2.042   8.146  0.1811 -0.0701 -0.1989
  169loPI   C3B 2703  16.984   1.931   7.743  0.0004 -0.0319 -0.1640
  169loPI   C4B 2704  16.603   1.935   7.397  0.0834  0.0882 -0.0970
  170loPI    C1 2705  14.923   6.588   9.586  0.0730  0.1609  0.1153
  170loPI    C2 2706  15.002   6.276   9.823 -0.0094  0.0678  0.0210
  170loPI    C3 2707  14.739   6.553   9.939 -0.2503 -0.1168 -0.0747
  170loPI   PO4 2708  14.840   6.477   9.347  0.2108  0.0362  0.0658
  170loPI   GL1 2709  14.990   6.415   9.006  0.3925 -0.0122 -0.1213
  170loPI   GL2 2710  15.119   6.535   8.815 -0.1338 -0.1234 -0.3283
  170loPI   C1A 2711  14.651   6.563   8.751 -0.0352  0.1286 -0.1771
  170loPI   C2A 2712  14.474   6.609   8.356 -0.2196 -0.0157  0.0991
  170loPI   C3A 2713  14.295   6.490   7.903  0.0654 -0.1534  0.2768
  170loPI   C4A 2714  14.207   6.386   7.394 -0.1054  0.0123 -0.2671
  170loPI   C5A 2715  13.892   6.326   7.174 -0.2871  0.2122  0.0372
  170loPI   C6A 2716  13.451   6.329   6.942  0.1532  0.0001 -0.1067
  170loPI   C1B 2717  15.030   6.483   8.417 -0.0203 -0.0481  0.3022
  170loPI   C2B 2718  15.019   6.314   7.903  0.0705  0.0456  0.2949
  170loPI   C3B 2719  14.997   5.991   7.479 -0.2644  0.0968 -0.0969
  170loPI   C4B 2720  14.832   5.663   7.160 -0.1235  0.5205 -0.1510
  171loPI    C1 2721   8.888  12.488  10.252 -0.0163  0.0172  0.4076
  171loPI    C2 2722   8.851  12.867  10.130  0.1474 -0.0722  0.0676
  171loPI    C3 2723   9.189  12.745  10.305  0.1242 -0.0804  0.1069
  171loPI   PO4 2724   8.821  12.293  10.013 -0.2137  0.0471  0.0907
  171loPI   GL1 2725   8.691  12.243   9.623  0.4395 -0.2080 -0.1880
  171loPI   GL2 2726   8.907  11.972   9.394  0.1141 -0.0052 -0.2544
  171loPI   C1A 2727   8.599  12.376   9.209 -0.2712 -0.0160  0.0660
  171loPI   C2A 2728   8.438  12.259   8.887 -0.2036  0.1613  0.2212
  171loPI   C3A 2729   8.143  12.138   8.632  0.3357  0.0835  0.0867
  171loPI   C4A 2730   8.012  12.138   8.263 -0.0683 -0.0216  0.1159
  171loPI   C5A 2731   7.966  11.849   7.884  0.0604 -0.1002 -0.2569
  171loPI   C6A 2732   7.821  11.701   7.428  0.2590  0.0104  0.0792
  171loPI   C1B 2733   8.747  11.851   8.892  0.2012 -0.0192 -0.0212
  171loPI   C2B 2734   8.614  11.891   8.485 -0.1513  0.1220  0.2755
  171loPI   C3B 2735   8.900  11.813   8.074 -0.0605  0.0647  0.1533
  171loPI   C4B 2736   8.850  11.979   7.642  0.0408 -0.2554  0.2084
  172loPI    C1 2737  13.602  13.126   9.455  0.1205 -0.2130  0.0149
  172loPI    C2 2738  13.906  13.093   9.714  0.2100  0.1296 -0.0413
  172loPI    C3 2739  13.958  13.287   9.368  0.1267 -0.4288 -0.3787
  172loPI   PO4 2740  13.532  12.897   9.356 -0.3410  0.0311  0.3127
  172loPI   GL1 2741  13.388  12.869   8.915  0.0470  0.1236  0.1968
  172loPI   GL2 2742  13.261  12.663   8.827 -0.1888  0.2621  0.0599
  172loPI   C1A 2743  13.631  12.968   8.499 -0.2123 -0.1369 -0.1194
  172loPI   C2A 2744  13.868  13.077   8.161 -0.1463  0.1857 -0.1387
  172loPI   C3A 2745  13.894  13.246   7.762  0.2186  0.2624  0.1768
  172loPI   C4A 2746  13.783  13.547   7.463  0.1679  0.2240  0.1667
  172loPI   C5A 2747  14.039  13.894   7.458  0.4168 -0.4811  0.1100
  172loPI   C6A 2748  14.103  14.340   7.374  0.0264 -0.2605 -0.1532
  172loPI   C1B 2749  13.181  12.737   8.424  0.1072  0.1329  0.0181
  172loPI   C2B 2750  13.283  12.590   7.996  0.1303  0.0401  0.2658
  172loPI   C3B 2751  13.449  12.323   7.670 -0.2729  0.0982  0.1378
  172loPI   C4B 2752  13.521  12.144   7.323 -0.2512  0.1111  0.0019
  173loPI    C1 2753  13.794   0.895  10.235  0.3052 -0.0945  0.0930
  173loPI    C2 2754  13.754   0.589   9.982 -0.2787 -0.0815  0.1566
  173loPI    C3 2755  13.690   0.534  10.373  0.1757  0.0005  0.2477
  173loPI   PO4 2756  13.572   1.075  10.091 -0.2169 -0.2533 -0.1367
  173loPI   GL1 2757  13.554   0.974   9.660  0.2493 -0.0419  0.2369
  173loPI   GL2 2758  13.336   1.258   9.569  0.1065  0.2618 -0.0392
  173loPI   C1A 2759  13.698   0.551   9.476  0.3376  0.5043  0.1628
  173loPI   C2A 2760  13.732   0.499   9.003 -0.2086  0.1063 -0.2213
  173loPI   C3A 2761  13.755   0.747   8.556  0.1230 -0.0114  0.0685
  173loPI   C4A 2762  13.756   0.964   8.049 -0.1837  0.2328 -0.3442
  173loPI   C5A 2763  13.754   1.193   7.681  0.0292 -0.0046  0.1963
  173loPI   C6A 2764  13.537   1.343   7.333 -0.3187 -0.0852  0.0799
  173loPI   C1B 2765  13.362   1.368   9.163 -0.0657 -0.0192  0.0465
  173loPI   C2B 2766  13.489   1.631   8.840 -0.1020 -0.3208  0.3264
  173loPI   C3B 2767  13.196   1.624   8.482  0.0180 -0.1246 -0.0683
  173loPI   C4B 2768  13.272   1.808   8.222  0.1400 -0.0385 -0.0645
  174loPI    C1 2769   7.557   9.956   9.659 -0.2263 -0.2025  0.2065
  174loPI    C2 2770   7.834   9.906   9.943 -0.0340  0.0427  0.0654
  174loPI    C3 2771   7.501  10.112  10.023  0.0944  0.2515  0.0694
  174loPI   PO4 2772   7.700   9.949   9.418  0.0156  0.0219  0.2182
  174loPI   GL1 2773   7.880  10.036   9.019 -0.0797 -0.2449 -0.1813
  174loPI   GL2 2774   7.892  10.354   9.119 -0.1460 -0.1163 -0.0593
  174loPI   C1A 2775   8.041   9.949   8.603 -0.0157  0.0886  0.1077
  174loPI   C2A 2776   7.966   9.986   8.142 -0.0499 -0.0809 -0.2796
  174loPI   C3A 2777   7.857   9.894   7.697 -0.2179  0.0112 -0.0403
  174loPI   C4A 2778   7.678   9.766   7.275 -0.1999  0.1936  0.0826
  174loPI   C5A 2779   7.416  10.022   6.947  0.0978 -0.1843  0.1332
  174loPI   C6A 2780   7.233  10.480   6.954 -0.0561  0.0528  0.1330
  174loPI   C1B 2781   7.661  10.302   8.724 -0.0642 -0.1927  0.0997
  174loPI   C2B 2782   7.675  10.470   8.340 -0.2180 -0.1819 -0.0724
  174loPI   C3B 2783   7.586  10.574   8.039  0.0970  0.2245 -0.0312
  174loPI   C4B 2784   7.606  10.687   7.581 -0.0922  0.1557  0.1546
  175loPI    C1 2785   0.662   1.296   9.783  0.1899  0.0009 -0.2069
  175loPI    C2 2786   0.729   0.902   9.803  0.0461 -0.0221 -0.1642
  175loPI    C3 2787   0.626   1.104  10.132  0.1275  0.0532 -0.1845
  175loPI   PO4 2788   0.609   1.336   9.554 -0.2393  0.1951  0.0304
  175loPI   GL1 2789   0.482   1.291   9.158  0.0274  0.0489 -0.0096
  175loPI   GL2 2790   0.830   1.273   9.103 -0.2032 -0.1415  0.0666
  175loPI   C1A 2791   0.503   1.026   8.777 -0.0709 -0.0147  0.1649
  175loPI   C2A 2792   0.606   1.039   8.263 -0.1755  0.1882 -0.1916
  175loPI   C3A 2793   0.492   1.097   7.963  0.1948 -0.0323 -0.1531
  175loPI   C4A 2794   0.677   0.994   7.573  0.0165 -0.1016 -0.1412
  175loPI   C5A 2795   0.939   0.799   7.140 -0.1668  0.2775  0.3497
  175loPI   C6A 2796   1.025   1.145   6.819 -0.1850  0.3818  0.1670
  175loPI   C1B 2797   0.829   1.426   8.699 -0.1665 -0.2253  0.0248
  175loPI   C2B 2798   1.008   1.394   8.272 -0.2788 -0.0890  0.0658
  175loPI   C3B 2799   1.100   1.205   7.804 -0.1814 -0.0593 -0.2125
  175loPI   C4B 2800   1.202   1.226   7.362  0.0203 -0.0354  0.0242
  176loPI    C1 2801  11.415   9.251   9.680  0.0858 -0.0218 -0.0503
  176loPI    C2 2802  11.802   9.346   9.653 -0.0212  0.3950 -0.1894
  176loPI    C3 2803  11.591   9.452   9.976  0.0166  0.0180 -0.0358
  176loPI   PO4 2804  11.355   9.374   9.446  0.4088 -0.4102  0.5204
  176loPI   GL1 2805  11.268   9.324   9.037  0.0098 -0.3179 -0.2823
  176loPI   GL2 2806  11.075   9.375   8.981  0.0143 -0.0620 -0.2656
  176loPI   C1A 2807  11.492   9.336   8.600  0.0797  0.2460 -0.2569
  176loPI   C2A 2808  11.526   9.072   8.293  0.1924  0.0789 -0.0061
  176loPI   C3A 2809  11.294   9.040   7.924  0.3476 -0.1127  0.0704
  176loPI   C4A 2810  11.314   8.827   7.540  0.0779  0.2038  0.0463
  176loPI   C5A 2811  11.211   8.686   7.145  0.1485 -0.1165 -0.0040
  176loPI   C6A 2812  11.171   8.610   6.629  0.0594  0.0956 -0.0673
  176loPI   C1B 2813  10.978   9.425   8.620  0.0240 -0.1096 -0.1383
  176loPI   C2B 2814  11.261   9.532   8.248 -0.1542  0.0136 -0.1895
  176loPI   C3B 2815  11.327   9.783   7.821 -0.0495  0.0104 -0.1816
  176loPI   C4B 2816  11.061   9.886   7.476  0.1941 -0.2710 -0.0027
  177loPI    C1 2817   0.919   2.219   9.787  0.2599 -0.1702  0.0086
  177loPI    C2 2818   0.785   2.127  10.153  0.0333 -0.0982 -0.0546
  177loPI    C3 2819   0.644   2.449   9.963  0.2629 -0.0483 -0.1448
  177loPI   PO4 2820   1.045   2.052   9.707  0.0136 -0.1679 -0.2221
  177loPI   GL1 2821   1.280   2.019   9.218  0.0437  0.0861 -0.3561
  177loPI   GL2 2822   1.065   1.817   8.960 -0.1829  0.1754 -0.0007
  177loPI   C1A 2823   1.205   2.263   8.927  0.3265  0.1339  0.0610
  177loPI   C2A 2824   1.227   2.445   8.619  0.0236 -0.1694  0.1960
  177loPI   C3A 2825   1.091   2.404   8.231 -0.1226  0.1808  0.3006
  177loPI   C4A 2826   0.931   2.398   7.753 -0.3027 -0.2393  0.1372
  177loPI   C5A 2827   0.802   2.640   7.393 -0.1513  0.0251 -0.1075
  177loPI   C6A 2828   0.729   2.927   7.107  0.1891 -0.1376  0.1534
  177loPI   C1B 2829   1.151   1.859   8.504  0.1536  0.0263 -0.1427
  177loPI   C2B 2830   1.069   1.787   7.974 -0.1936 -0.2058 -0.0863
  177loPI   C3B 2831   0.963   1.640   7.528  0.0199  0.2175 -0.0821
  177loPI   C4B 2832   1.026   1.574   7.027  0.2625 -0.1136  0.1751
  178loPI    C1 2833  11.999  19.240  10.133  0.1326  0.0188  0.3696
  178loPI    C2 2834  11.929  18.993  10.440  0.1488 -0.1612  0.2299
  178loPI    C3 2835  11.995  18.844  10.075 -0.1512  0.0600  0.0817
  178loPI   PO4 2836  11.894  19.534  10.171  0.0003  0.1793  0.1547
  178loPI   GL1 2837  11.941  19.842   9.866 -0.1690  0.0298  0.2503
  178loPI   GL2 2838  11.570  19.971   9.983  0.1667  0.5299  0.2065
  178loPI   C1A 2839  11.813  19.839   9.532 -0.3105  0.2729 -0.2475
  178loPI   C2A 2840  11.514  19.819   9.191 -0.2270  0.1471 -0.0792
  178loPI   C3A 2841  11.272  19.472   8.911 -0.3538 -0.2646  0.1153
  178loPI   C4A 2842  11.458  19.460   8.508 -0.0506  0.2022  0.0554
  178loPI   C5A 2843  11.218  19.258   8.272  0.0231  0.1506 -0.1447
  178loPI   C6A 2844  11.252  19.155   7.861 -0.2945  0.3849 -0.0954
  178loPI   C1B 2845  11.315  19.868   9.612  0.0949 -0.2122 -0.1594
  178loPI   C2B 2846  11.133  19.573   9.417 -0.4267  0.1463  0.1673
  178loPI   C3B 2847  10.794  19.718   9.116 -0.1195  0.0588  0.0477
  178loPI   C4B 2848  10.429  20.087   9.184  0.3512 -0.0595 -0.3258
  179loPI    C1 2849  16.164   9.499   9.577 -0.1143  0.0434  0.3363
  179loPI    C2 2850  16.201   9.892   9.510 -0.2203 -0.0385 -0.2614
  179loPI    C3 2851  16.379   9.725   9.828  0.3036  0.3979 -0.3117
  179loPI   PO4 2852  16.180   9.412   9.384  0.0729  0.0863  0.1036
  179loPI   GL1 2853  16.233   9.617   9.034  0.2204  0.4009 -0.1269
  179loPI   GL2 2854  16.450   9.785   9.063  0.1024 -0.1938  0.2279
  179loPI   C1A 2855  16.345   9.707   8.537 -0.0408 -0.0447  0.1248
  179loPI   C2A 2856  16.156   9.623   8.189 -0.3363 -0.0370 -0.0762
  179loPI   C3A 2857  16.008   9.631   7.711 -0.1889  0.0035 -0.2488
  179loPI   C4A 2858  16.139   9.645   7.270  0.1434  0.0804 -0.2570
  179loPI   C5A 2859  15.777   9.691   7.021  0.1200  0.1320  0.1792
  179loPI   C6A 2860  15.857   9.874   6.718 -0.2412  0.0240 -0.2449
  179loPI   C1B 2861  16.762   9.990   8.730  0.0596 -0.0594  0.1159
  179loPI   C2B 2862  16.701   9.918   8.275  0.2285 -0.3475  0.2114
  179loPI   C3B 2863  16.374  10.066   7.981 -0.2304  0.1579  0.0526
  179loPI   C4B 2864  16.180  10.077   7.518  0.3963 -0.1079 -0.0645
  180loPI    C1 2865   5.752  12.440  10.561  0.1119 -0.0734  0.0369
  180loPI    C2 2866   6.011  12.745  10.563  0.1657 -0.1182 -0.0350
  180loPI    C3 2867   6.130  12.381  10.677  0.0659 -0.0839  0.1826
  180loPI   PO4 2868   5.711  12.448  10.302 -0.4761 -0.1956 -0.0426
  180loPI   GL1 2869   5.982  12.726   9.948 -0.2713 -0.2460  0.1823
  180loPI   GL2 2870   6.062  13.023   9.719  0.1086 -0.0178  0.0270
  180loPI   C1A 2871   5.830  12.515   9.557 -0.0338  0.0256  0.2192
  180loPI   C2A 2872   5.699  12.741   9.078 -0.3302 -0.1621 -0.0878
  180loPI   C3A 2873   5.701  12.946   8.639  0.0875  0.4095  0.2070
  180loPI   C4A 2874   5.701  13.087   8.265  0.1308  0.1906 -0.0381
  180loPI   C5A 2875   6.059  13.109   7.984  0.1660 -0.0492  0.1285
  180loPI   C6A 2876   6.354  12.949   7.720  0.1550 -0.1892 -0.1099
  180loPI   C1B 2877   6.015  13.081   9.258 -0.0423  0.0723  0.1339
  180loPI   C2B 2878   5.823  13.304   8.942  0.2374  0.1725 -0.1383
  180loPI   C3B 2879   5.538  13.687   9.018  0.0863 -0.1403 -0.0572
  180loPI   C4B 2880   5.211  13.655   9.106  0.3134 -0.0194  0.3819
  181loPI    C1 2881  11.978   6.046   9.861 -0.2012  0.0984  0.0344
  181loPI    C2 2882  12.062   5.785   9.570 -0.0014  0.3245 -0.1140
  181loPI    C3 2883  11.837   5.672   9.880 -0.0114  0.0101 -0.2319
  181loPI   PO4 2884  11.928   6.291   9.722 -0.1650  0.1414 -0.0891
  181loPI   GL1 2885  12.305   6.276   9.396 -0.0825 -0.0193 -0.1165
  181loPI   GL2 2886  12.225   6.590   9.480  0.2534 -0.1693  0.0343
  181loPI   C1A 2887  12.143   6.280   9.034 -0.2018 -0.2525 -0.1834
  181loPI   C2A 2888  12.114   6.115   8.705 -0.1962  0.2441  0.0848
  181loPI   C3A 2889  12.012   6.132   8.287 -0.1182  0.0077 -0.0247
  181loPI   C4A 2890  11.912   5.972   7.984 -0.0310  0.1495  0.1524
  181loPI   C5A 2891  11.550   6.056   7.724  0.0962  0.1164 -0.0928
  181loPI   C6A 2892  11.178   6.369   7.726  0.0558  0.0879 -0.2550
  181loPI   C1B 2893  12.413   6.710   9.051  0.2101  0.0452  0.0522
  181loPI   C2B 2894  12.251   6.674   8.692  0.1944 -0.0304  0.4044
  181loPI   C3B 2895  12.232   6.618   8.291  0.0661  0.4224 -0.2013
  181loPI   C4B 2896  12.084   6.496   7.837  0.2581  0.2355 -0.0627
  182loPI    C1 2897  19.056  11.927   9.837 -0.2063 -0.0476  0.2234
  182loPI    C2 2898  19.192  11.873  10.210  0.0790 -0.0400  0.1224
  182loPI    C3 2899  18.936  12.171  10.131 -0.0011 -0.0564  0.3158
  182loPI   PO4 2900  19.140  11.777   9.674 -0.0843 -0.0797 -0.4245
  182loPI   GL1 2901  19.212  11.755   9.250 -0.1651  0.0169 -0.1989
  182loPI   GL2 2902  19.156  11.978   9.105  0.1151 -0.1378  0.2308
  182loPI   C1A 2903  19.449  11.557   8.990  0.2096  0.1387  0.0713
  182loPI   C2A 2904  19.544  11.557   8.534 -0.0421 -0.1133  0.0170
  182loPI   C3A 2905  19.678  11.572   8.019 -0.0430  0.0201 -0.4198
  182loPI   C4A 2906  19.808  11.638   7.624  0.0839 -0.1500 -0.0767
  182loPI   C5A 2907  19.812  11.262   7.319  0.3274 -0.1003 -0.4375
  182loPI   C6A 2908  19.969  10.855   7.066  0.0046 -0.1951  0.0084
  182loPI   C1B 2909  19.264  12.253   8.707 -0.1155  0.0525  0.1255
  182loPI   C2B 2910  19.603  12.566   8.587  0.0554  0.1136 -0.3001
  182loPI   C3B 2911  19.881  12.942   8.550  0.0612  0.0090  0.1085
  182loPI   C4B 2912  20.058  12.952   8.930 -0.4731 -0.0565 -0.4351
  183loPI    C1 2913  17.333   4.613   9.759  0.1335 -0.1918  0.0941
  183loPI    C2 2914  17.588   4.761  10.028 -0.0175  0.0047  0.1318
  183loPI    C3 2915  17.198   4.843  10.057 -0.0173  0.1521 -0.2309
  183loPI   PO4 2916  17.465   4.578   9.527  0.2003 -0.2760 -0.1771
  183loPI   GL1 2917  17.605   4.812   9.253 -0.0922  0.1205  0.2558
  183loPI   GL2 2918  17.682   4.628   8.989 -0.1769 -0.1318  0.0109
  183loPI   C1A 2919  17.255   4.921   8.966  0.0385  0.1006  0.2331
  183loPI   C2A 2920  16.975   5.041   8.662  0.2327  0.1134 -0.2005
  183loPI   C3A 2921  17.267   5.164   8.373 -0.2093  0.0640  0.1333
  183loPI   C4A 2922  17.408   5.320   8.010  0.2439  0.1611  0.1052
  183loPI   C5A 2923  17.559   5.268   7.598 -0.0999 -0.0892 -0.1641
  183loPI   C6A 2924  17.949   5.159   7.367  0.3771  0.0774 -0.0193
  183loPI   C1B 2925  17.671   4.504   8.580  0.1230  0.3228  0.2677
  183loPI   C2B 2926  17.716   4.576   8.030 -0.1274 -0.0860  0.0216
  183loPI   C3B 2927  17.669   4.715   7.621 -0.0635  0.0088  0.1743
  183loPI   C4B 2928  17.647   4.686   7.186 -0.0909 -0.1154 -0.0158
  184loPI    C1 2929   8.809   5.590  10.025  0.1812  0.0349 -0.0291
  184loPI    C2 2930   8.731   5.316  10.306  0.1941  0.1140  0.0518
  184loPI    C3 2931   8.546   5.671  10.316  0.1093  0.0750 -0.1045
  184loPI   PO4 2932   8.850   5.514   9.819  0.1862  0.0510 -0.1717
  184loPI   GL1 2933   9.219   5.283   9.650  0.3155 -0.1776 -0.0265
  184loPI   GL2 2934   8.911   5.219   9.483 -0.1882 -0.0372  0.1953
  184loPI   C1A 2935   9.397   5.480   9.269 -0.0183  0.0596  0.1595
  184loPI   C2A 2936   9.466   5.323   8.885  0.0021  0.0373 -0.3031
  184loPI   C3A 2937   9.517   5.206   8.457  0.1473 -0.1959  0.0062
  184loPI   C4A 2938   9.704   5.271   8.056 -0.0249  0.0568 -0.1345
  184loPI   C5A 2939   9.761   5.411   7.634  0.1479  0.0097 -0.1067
  184loPI   C6A 2940   9.780   5.429   7.273 -0.0440  0.1860  0.1101
  184loPI   C1B 2941   8.766   5.125   9.117 -0.0911  0.0061 -0.1373
  184loPI   C2B 2942   9.028   5.033   8.752 -0.0912  0.0157 -0.0188
  184loPI   C3B 2943   8.984   4.875   8.352  0.2393  0.4811  0.2918
  184loPI   C4B 2944   9.129   4.688   7.876  0.2103 -0.3529  0.1657
  185loPI    C1 2945   7.122   0.847  10.011 -0.1014  0.2398 -0.0268
  185loPI    C2 2946   6.956   0.805  10.372  0.0343 -0.1799 -0.0088
  185loPI    C3 2947   7.349   0.870  10.339 -0.0062  0.0372 -0.0772
  185loPI   PO4 2948   7.010   0.632   9.757  0.0891 -0.0616 -0.0227
  185loPI   GL1 2949   7.014   0.648   9.283 -0.3077  0.0459 -0.0939
  185loPI   GL2 2950   6.718   0.647   9.262  0.0097 -0.2654  0.1135
  185loPI   C1A 2951   6.944   0.932   8.921  0.1015 -0.5882 -0.1169
  185loPI   C2A 2952   7.022   0.838   8.528 -0.2274  0.0485 -0.1331
  185loPI   C3A 2953   6.984   0.625   8.121  0.1245 -0.1677  0.0520
  185loPI   C4A 2954   7.135   0.380   7.848  0.2541 -0.2243  0.1222
  185loPI   C5A 2955   7.439   0.511   7.574 -0.3181  0.1263  0.2570
  185loPI   C6A 2956   7.362   0.635   7.145 -0.1941 -0.1773  0.2420
  185loPI   C1B 2957   6.613   0.522   8.930  0.3382  0.0080  0.1166
  185loPI   C2B 2958   6.697   0.325   8.560  0.1693  0.1170  0.3105
  185loPI   C3B 2959   6.803   0.100   8.111  0.0202 -0.2850  0.3786
  185loPI   C4B 2960   6.656   0.261   7.748  0.2032 -0.0814  0.2077
  186loPI    C1 2961  17.772  19.179   9.416  0.0161 -0.0252  0.0584
  186loPI    C2 2962  18.020  19.125   9.725 -0.1303 -0.0415  0.1745
  186loPI    C3 2963  17.649  18.976   9.738 -0.1329 -0.0544 -0.0158
  186loPI   PO4 2964  17.806  19.053   9.234 -0.3448 -0.2930 -0.0083
  186loPI   GL1 2965  18.295  19.075   9.086  0.2253 -0.0445 -0.0538
  186loPI   GL2 2966  18.579  19.015   9.182  0.0252  0.0875  0.0613
  186loPI   C1A 2967  18.259  19.130   8.574  0.1888 -0.0293 -0.0261
  186loPI   C2A 2968  18.292  19.084   8.194 -0.0372 -0.0604 -0.0597
  186loPI   C3A 2969  18.334  18.975   7.753 -0.0532  0.0793  0.0290
  186loPI   C4A 2970  18.329  18.648   7.530 -0.3086  0.1628  0.0856
  186loPI   C5A 2971  18.680  18.542   7.189  0.0297  0.2155 -0.1418
  186loPI   C6A 2972  18.800  18.588   6.682 -0.0268  0.1449  0.4297
  186loPI   C1B 2973  18.775  19.118   8.861  0.1816 -0.1371 -0.1396
  186loPI   C2B 2974  18.742  18.936   8.400  0.1919 -0.1463 -0.0237
  186loPI   C3B 2975  19.015  18.869   8.069 -0.2837  0.0022 -0.0374
  186loPI   C4B 2976  18.897  18.753   7.666  0.0517  0.1924  0.0170
  187loPI    C1 2977   9.827  10.621   9.817 -0.0860  0.1842 -0.3956
  187loPI    C2 2978   9.721  10.369   9.526  0.0209 -0.0521 -0.2327
  187loPI    C3 2979   9.457  10.470   9.809 -0.0360  0.0560 -0.3237
  187loPI   PO4 2980  10.101  10.506   9.793 -0.0949  0.4524  0.1366
  187loPI   GL1 2981  10.212  10.358   9.307 -0.0877 -0.2794 -0.0173
  187loPI   GL2 2982  10.132  10.666   9.061 -0.3002  0.1334 -0.2712
  187loPI   C1A 2983  10.282   9.997   8.995 -0.0036 -0.0257 -0.0359
  187loPI   C2A 2984  10.043   9.982   8.614  0.1398 -0.3394  0.1159
  187loPI   C3A 2985  10.108   9.932   8.108  0.1541  0.1167  0.3157
  187loPI   C4A 2986   9.858   9.850   7.697  0.0952 -0.3890  0.0690
  187loPI   C5A 2987   9.590  10.073   7.386  0.2724  0.0572  0.0121
  187loPI   C6A 2988   9.570  10.112   6.994  0.1361 -0.1470 -0.5809
  187loPI   C1B 2989   9.910  10.444   8.792  0.3070  0.2490 -0.2403
  187loPI   C2B 2990   9.773  10.342   8.375 -0.3171 -0.0280  0.3622
  187loPI   C3B 2991   9.604  10.344   7.999  0.3066 -0.2523 -0.0198
  187loPI   C4B 2992   9.624  10.498   7.596  0.0509  0.0105  0.0920
  188loPI    C1 2993  10.333  12.255   9.488 -0.2825  0.0712 -0.1107
  188loPI    C2 2994  10.331  12.653   9.520 -0.0056  0.0628  0.0381
  188loPI    C3 2995  10.134  12.431   9.787 -0.0613  0.0954  0.0243
  188loPI   PO4 2996  10.269  12.118   9.229  0.3619 -0.0714  0.0989
  188loPI   GL1 2997   9.831  12.175   8.870  0.0714 -0.0287  0.0064
  188loPI   GL2 2998   9.847  11.909   9.034 -0.1177  0.0030 -0.2420
  188loPI   C1A 2999   9.671  12.108   8.358  0.2085 -0.0145  0.0807
  188loPI   C2A 3000   9.736  12.175   8.002 -0.0164  0.2710 -0.1033
  188loPI   C3A 3001   9.709  12.256   7.633  0.2487  0.2056 -0.0380
  188loPI   C4A 3002   9.451  12.206   7.343  0.0303  0.0077  0.2179
  188loPI   C5A 3003   9.005  12.100   7.190 -0.3808  0.0773  0.1257
  188loPI   C6A 3004   8.785  11.721   7.198 -0.0299  0.1422  0.0580
  188loPI   C1B 3005   9.904  11.699   8.660  0.2156 -0.2003 -0.3010
  188loPI   C2B 3006   9.954  11.713   8.222 -0.1182  0.1789  0.0795
  188loPI   C3B 3007   9.686  11.705   7.932  0.2684  0.0269  0.2697
  188loPI   C4B 3008   9.272  11.802   7.727  0.0983  0.0666  0.2097
  189loPI    C1 3009  14.402   7.127   9.965 -0.2811 -0.0150 -0.0693
  189loPI    C2 3010  14.732   7.227  10.167 -0.2443 -0.1050 -0.0846
  189loPI    C3 3011  14.410   7.463  10.182 -0.2105 -0.0641  0.0046
  189loPI   PO4 3012  14.508   6.984   9.770 -0.0692 -0.2218  0.3203
  189loPI   GL1 3013  14.143   7.010   9.323 -0.2061  0.0386  0.2511
  189loPI   GL2 3014  13.779   6.960   9.311 -0.0595  0.4390 -0.2985
  189loPI   C1A 3015  14.085   7.157   8.920 -0.0284 -0.0691  0.3926
  189loPI   C2A 3016  13.895   7.246   8.644 -0.1141 -0.1679 -0.0067
  189loPI   C3A 3017  13.984   7.307   8.150  0.3967  0.2219 -0.2033
  189loPI   C4A 3018  14.047   7.360   7.733  0.0774  0.0389 -0.0806
  189loPI   C5A 3019  14.001   7.599   7.300  0.1735  0.1348  0.0348
  189loPI   C6A 3020  13.957   7.982   7.104  0.0464  0.0923 -0.2514
  189loPI   C1B 3021  13.722   6.852   8.970 -0.0274  0.1496 -0.0810
  189loPI   C2B 3022  13.625   6.875   8.615  0.0054  0.2100  0.1407
  189loPI   C3B 3023  13.586   6.925   8.205  0.0966  0.0366  0.0183
  189loPI   C4B 3024  13.535   7.190   7.845  0.2059  0.2193 -0.0154
  190loPI    C1 3025  18.588   5.017   9.938 -0.0426  0.0470 -0.0129
  190loPI    C2 3026  18.890   5.251  10.058 -0.0551  0.1043 -0.0922
  190loPI    C3 3027  18.518   5.398  10.039 -0.1140 -0.0073  0.1472
  190loPI   PO4 3028  18.703   4.908   9.621  0.0548  0.0463  0.1619
  190loPI   GL1 3029  18.722   4.949   9.262 -0.1115 -0.1826 -0.1607
  190loPI   GL2 3030  18.922   5.203   9.100 -0.0665  0.2879  0.4010
  190loPI   C1A 3031  18.468   4.717   8.938 -0.2798 -0.0131  0.3314
  190loPI   C2A 3032  18.196   4.675   8.502 -0.0174  0.1402 -0.2675
  190loPI   C3A 3033  18.264   4.770   8.099 -0.0198 -0.1120 -0.1151
  190loPI   C4A 3034  18.215   4.601   7.670  0.1282 -0.1294  0.2741
  190loPI   C5A 3035  18.039   4.451   7.266  0.1858  0.4034 -0.1120
  190loPI   C6A 3036  17.716   4.174   7.248 -0.6315 -0.3868  0.1051
  190loPI   C1B 3037  18.600   5.187   8.786 -0.0334  0.2524 -0.2183
  190loPI   C2B 3038  18.309   5.194   8.503 -0.1307  0.0766 -0.1902
  190loPI   C3B 3039  18.375   5.246   8.095 -0.0931  0.0540 -0.1604
  190loPI   C4B 3040  18.372   5.112   7.644 -0.0503 -0.2415 -0.0320
  191loPI    C1 3041   6.116  15.024  10.195 -0.4848  0.0362  0.1572
  191loPI    C2 3042   6.173  15.420  10.193 -0.0361 -0.0223 -0.1303
  191loPI    C3 3043   6.179  15.218  10.539  0.0229  0.1836 -0.0092
  191loPI   PO4 3044   6.303  15.017   9.902  0.4289  0.4185 -0.2202
  191loPI   GL1 3045   6.456  14.728   9.624 -0.1710 -0.4972 -0.1462
  191loPI   GL2 3046   6.414  14.993   9.409  0.3738 -0.1060  0.0986
  191loPI   C1A 3047   6.140  14.556   9.373  0.0284  0.5205  0.0053
  191loPI   C2A 3048   6.047  14.424   8.956 -0.1931  0.2725  0.3962
  191loPI   C3A 3049   6.023  14.598   8.541 -0.0792  0.2234  0.3264
  191loPI   C4A 3050   6.062  14.609   8.080 -0.1145  0.2866 -0.2677
  191loPI   C5A 3051   6.132  14.920   7.843 -0.0259 -0.2137 -0.3054
  191loPI   C6A 3052   6.188  15.263   7.543 -0.3522  0.2909  0.3199
  191loPI   C1B 3053   6.412  14.838   8.989 -0.3353  0.3242  0.0652
  191loPI   C2B 3054   6.497  14.751   8.493  0.3129 -0.1403  0.1572
  191loPI   C3B 3055   6.518  14.946   8.150  0.0205 -0.1676  0.0701
  191loPI   C4B 3056   6.572  15.198   7.822  0.1049  0.2909  0.2088
  192loPI    C1 3057   2.892  12.213  10.199 -0.1326  0.0162 -0.0747
  192loPI    C2 3058   2.511  12.126  10.282 -0.0882  0.0071  0.1241
  192loPI    C3 3059   2.623  12.507  10.235 -0.1677 -0.0031 -0.1738
  192loPI   PO4 3060   2.878  12.078   9.938 -0.0252  0.1704 -0.2728
  192loPI   GL1 3061   2.933  12.144   9.479  0.0418 -0.1207 -0.0738
  192loPI   GL2 3062   3.216  12.216   9.551 -0.0026  0.2458  0.0106
  192loPI   C1A 3063   2.761  11.935   9.281  0.1511 -0.0586 -0.2337
  192loPI   C2A 3064   2.565  11.939   8.989  0.2364 -0.0779  0.0747
  192loPI   C3A 3065   2.399  12.031   8.592  0.1719  0.0726 -0.0161
  192loPI   C4A 3066   2.428  11.794   8.224  0.0641 -0.1390  0.2591
  192loPI   C5A 3067   2.103  11.638   7.898  0.1537 -0.3390 -0.0508
  192loPI   C6A 3068   1.771  11.451   7.721 -0.0502 -0.1018 -0.2610
  192loPI   C1B 3069   3.416  11.990   9.163 -0.1402 -0.2630  0.0077
  192loPI   C2B 3070   3.673  11.752   8.944  0.1770 -0.0702 -0.0172
  192loPI   C3B 3071   3.674  11.381   8.737  0.3367 -0.0591  0.0851
  192loPI   C4B 3072   3.689  11.298   8.380  0.0686  0.1428  0.1635
  193loPI    C1 3073   6.855  12.918  10.504 -0.0628 -0.3679  0.0779
  193loPI    C2 3074   6.492  12.912  10.672 -0.0271  0.0476  0.1812
  193loPI    C3 3075   6.818  12.859  10.898 -0.0078 -0.0166  0.1387
  193loPI   PO4 3076   6.780  12.788  10.264 -0.0495  0.2095  0.1869
  193loPI   GL1 3077   6.563  12.773   9.861  0.0809 -0.0505 -0.0114
  193loPI   GL2 3078   6.619  13.137   9.771  0.3241  0.0585 -0.1628
  193loPI   C1A 3079   6.799  12.796   9.482 -0.3511  0.0879 -0.0019
  193loPI   C2A 3080   6.803  12.895   9.102  0.0083 -0.0008 -0.1625
  193loPI   C3A 3081   6.702  12.831   8.649 -0.2339  0.0146 -0.3749
  193loPI   C4A 3082   6.684  12.808   8.212 -0.1728  0.1407 -0.0872
  193loPI   C5A 3083   6.834  12.622   7.868  0.0419 -0.1489  0.1449
  193loPI   C6A 3084   7.067  12.344   7.629  0.1810  0.0321  0.1931
  193loPI   C1B 3085   6.444  13.296   9.338  0.2376 -0.1543 -0.0447
  193loPI   C2B 3086   6.358  13.252   8.896 -0.0800  0.0745  0.3509
  193loPI   C3B 3087   6.067  13.277   8.481 -0.2708 -0.3624  0.1851
  193loPI   C4B 3088   6.117  13.638   8.157 -0.2562 -0.0427  0.2873
  194loPI    C1 3089   8.185   0.727  10.094  0.2070 -0.0379 -0.0306
  194loPI    C2 3090   7.875   0.917  10.260  0.0852 -0.2775  0.0204
  194loPI    C3 3091   8.182   1.127  10.113 -0.0813 -0.0398  0.0059
  194loPI   PO4 3092   8.031   0.507   9.946 -0.0889 -0.1337  0.0664
  194loPI   GL1 3093   7.842   0.308   9.594 -0.2948 -0.0001  0.3203
  194loPI   GL2 3094   7.760  -0.019   9.538  0.2652 -0.3087 -0.0860
  194loPI   C1A 3095   7.894   0.703   9.252 -0.3134 -0.3739 -0.2717
  194loPI   C2A 3096   7.977   0.930   8.855 -0.3902  0.1659  0.3234
  194loPI   C3A 3097   7.982   1.124   8.462 -0.1262  0.0207 -0.1993
  194loPI   C4A 3098   7.828   1.288   8.080 -0.0136 -0.2458  0.0631
  194loPI   C5A 3099   7.818   1.442   7.695 -0.0327  0.0828 -0.0013
  194loPI   C6A 3100   7.724   1.942   7.492  0.1008  0.1750  0.0775
  194loPI   C1B 3101   7.755  -0.305   9.290 -0.1289 -0.1751  0.2787
  194loPI   C2B 3102   7.978  -0.351   8.954 -0.0573  0.0158  0.1035
  194loPI   C3B 3103   8.374  -0.374   8.611  0.0900  0.0868  0.1567
  194loPI   C4B 3104   8.407  -0.244   8.256  0.1134  0.0330 -0.1595
  195loPI    C1 3105   8.795  13.264   9.792 -0.0805  0.0702 -0.0900
  195loPI    C2 3106   8.428  13.380   9.685 -0.1478  0.2881  0.3522
  195loPI    C3 3107   8.481  13.170  10.021  0.0869 -0.1409  0.0572
  195loPI   PO4 3108   8.903  13.072   9.642 -0.3560  0.2133  0.1307
  195loPI   GL1 3109   8.840  12.785   9.335 -0.0785  0.0469 -0.2031
  195loPI   GL2 3110   9.121  12.615   9.223  0.1848  0.0366  0.1710
  195loPI   C1A 3111   8.558  12.757   8.807 -0.1806 -0.1856  0.1127
  195loPI   C2A 3112   8.405  12.581   8.402 -0.0057  0.0147 -0.1051
  195loPI   C3A 3113   8.206  12.727   8.122  0.0767 -0.3302 -0.3336
  195loPI   C4A 3114   7.835  12.436   7.922  0.1763  0.1371  0.1564
  195loPI   C5A 3115   8.048  12.202   7.553  0.0815 -0.3357 -0.2090
  195loPI   C6A 3116   8.519  12.249   7.400  0.0993  0.3825 -0.0357
  195loPI   C1B 3117   9.049  12.679   8.855  0.3840  0.0002  0.0787
  195loPI   C2B 3118   8.875  12.808   8.395 -0.2448  0.2866 -0.2298
  195loPI   C3B 3119   8.678  12.882   8.050 -0.2982  0.0108 -0.0413
  195loPI   C4B 3120   8.618  12.743   7.677 -0.3133  0.0036 -0.1495
  196loPI    C1 3121   9.790   7.181  10.114 -0.0471 -0.0318 -0.0392
  196loPI    C2 3122  10.002   7.341  10.414 -0.0542 -0.1343  0.0207
  196loPI    C3 3123   9.626   7.219  10.477 -0.0569 -0.1530 -0.0307
  196loPI   PO4 3124  10.002   7.067   9.986 -0.0914  0.0232 -0.3233
  196loPI   GL1 3125  10.081   6.757   9.678  0.2456  0.0525  0.1463
  196loPI   GL2 3126   9.918   6.925   9.413  0.2102  0.0742 -0.2056
  196loPI   C1A 3127  10.102   6.495   9.483 -0.0412 -0.4025  0.0926
  196loPI   C2A 3128  10.158   6.133   9.334  0.0169  0.1045  0.2241
  196loPI   C3A 3129  10.347   6.095   9.002  0.0069 -0.4008 -0.0361
  196loPI   C4A 3130  10.537   6.278   8.656 -0.1485  0.0179  0.0517
  196loPI   C5A 3131  10.812   6.299   8.493  0.0509 -0.0306  0.1952
  196loPI   C6A 3132  10.868   6.247   8.085  0.1465 -0.1679  0.0653
  196loPI   C1B 3133  10.082   7.087   9.087 -0.0296 -0.0294  0.1007
  196loPI   C2B 3134  10.090   6.906   8.675 -0.1550  0.0562  0.3290
  196loPI   C3B 3135  10.125   6.622   8.302  0.1029 -0.1460  0.1002
  196loPI   C4B 3136  10.368   6.199   8.138 -0.1329  0.0684 -0.1044
  197loPI    C1 3137  12.423   5.854  10.022 -0.0920 -0.0310 -0.0059
  197loPI    C2 3138  12.622   6.088  10.278 -0.0833 -0.0948  0.0460
  197loPI    C3 3139  12.226   6.045  10.314 -0.1073  0.0334 -0.0582
  197loPI   PO4 3140  12.531   5.886   9.728 -0.1506 -0.0126  0.0279
  197loPI   GL1 3141  12.715   5.450   9.456 -0.0582  0.1184  0.0198
  197loPI   GL2 3142  12.903   5.590   9.603  0.0931  0.0196 -0.2185
  197loPI   C1A 3143  12.497   5.499   9.111 -0.4781 -0.2923 -0.2683
  197loPI   C2A 3144  12.187   5.238   8.859 -0.0158  0.1262 -0.0593
  197loPI   C3A 3145  11.993   5.245   8.457  0.1328  0.1635 -0.1594
  197loPI   C4A 3146  11.771   5.353   8.096 -0.1045  0.0778  0.1686
  197loPI   C5A 3147  11.686   5.556   7.748 -0.0671 -0.0876 -0.2306
  197loPI   C6A 3148  11.427   5.708   7.382  0.2159  0.2937 -0.1925
  197loPI   C1B 3149  13.014   5.653   9.093 -0.1654  0.0697  0.0738
  197loPI   C2B 3150  12.874   5.550   8.721  0.0956 -0.3650 -0.3360
  197loPI   C3B 3151  12.810   5.615   8.299  0.0229 -0.1033 -0.1234
  197loPI   C4B 3152  12.718   5.644   7.835  0.0511  0.1169  0.4470
  198loPI    C1 3153  10.595   6.064  10.729 -0.2387  0.0392  0.3974
  198loPI    C2 3154  10.391   5.721  10.759 -0.1571 -0.0658 -0.1502
  198loPI    C3 3155  10.789   5.721  10.797 -0.1741  0.0008  0.0379
  198loPI   PO4 3156  10.562   6.222  10.336  0.2281 -0.0815  0.1015
  198loPI   GL1 3157  10.475   6.337   9.906 -0.0434 -0.1572  0.1669
  198loPI   GL2 3158  10.346   5.891   9.810 -0.1650  0.1984 -0.0835
  198loPI   C1A 3159  10.633   6.378   9.540 -0.1442 -0.0508  0.1432
  198loPI   C2A 3160  10.708   6.410   9.159 -0.0068 -0.1693 -0.1439
  198loPI   C3A 3161  10.774   6.800   8.893  0.1595  0.0586  0.1470
  198loPI   C4A 3162  10.518   6.747   8.527 -0.1246 -0.1605 -0.0654
  198loPI   C5A 3163  10.586   6.630   8.058 -0.3450  0.1546 -0.0393
  198loPI   C6A 3164  10.639   6.414   7.683  0.1832 -0.0780 -0.2149
  198loPI   C1B 3165  10.561   5.796   9.457  0.0578 -0.0206  0.1503
  198loPI   C2B 3166  10.825   5.646   9.286 -0.1211 -0.0974 -0.1680
  198loPI   C3B 3167  11.235   5.649   9.112 -0.1712 -0.0121  0.2192
  198loPI   C4B 3168  11.667   5.389   9.000 -0.0658  0.2658 -0.1465
  199loPI    C1 3169   0.552  17.266   9.820  0.2217 -0.0710 -0.1572
  199loPI    C2 3170   0.823  17.038  10.007  0.0501 -0.1747 -0.0318
  199loPI    C3 3171   0.472  17.117  10.183  0.0446  0.0562 -0.1427
  199loPI   PO4 3172   0.570  17.169   9.541  0.3437 -0.2278 -0.0306
  199loPI   GL1 3173   0.559  17.363   9.057 -0.1054  0.0948 -0.0854
  199loPI   GL2 3174   0.359  17.641   9.050 -0.2292 -0.0553  0.1918
  199loPI   C1A 3175   0.562  17.359   8.641 -0.0861  0.1025 -0.0705
  199loPI   C2A 3176   0.491  17.209   8.222 -0.0107  0.1506 -0.1117
  199loPI   C3A 3177   0.392  17.038   7.784 -0.0213 -0.2362 -0.0931
  199loPI   C4A 3178   0.510  17.056   7.388 -0.1000  0.0273 -0.0117
  199loPI   C5A 3179   0.403  17.073   6.857 -0.0781  0.1786  0.3294
  199loPI   C6A 3180   0.437  16.787   6.549  0.0507  0.3010 -0.1393
  199loPI   C1B 3181   0.203  17.687   8.599 -0.1122  0.3898  0.3276
  199loPI   C2B 3182   0.007  17.843   8.266 -0.0704  0.0575  0.1173
  199loPI   C3B 3183  -0.112  17.818   7.946  0.0246 -0.0682 -0.1344
  199loPI   C4B 3184  -0.504  17.700   7.724  0.1875  0.1793  0.1318
  200loPI    C1 3185  16.107  14.664   9.575  0.0658 -0.1157 -0.2617
  200loPI    C2 3186  15.775  14.874   9.650 -0.1021 -0.3723 -0.2721
  200loPI    C3 3187  16.116  14.966   9.837 -0.1688 -0.0845 -0.2872
  200loPI   PO4 3188  16.108  14.703   9.364  0.4189 -0.0286  0.1597
  200loPI   GL1 3189  15.958  14.523   8.998 -0.3549 -0.0931  0.4371
  200loPI   GL2 3190  15.804  14.844   8.926 -0.1009  0.1713 -0.0723
  200loPI   C1A 3191  15.962  14.209   8.706  0.2540 -0.0234  0.4217
  200loPI   C2A 3192  15.972  14.181   8.206 -0.1153 -0.2086  0.1244
  200loPI   C3A 3193  15.950  14.246   7.680  0.3913 -0.0434  0.0947
  200loPI   C4A 3194  15.871  14.464   7.173  0.0663  0.1690 -0.0108
  200loPI   C5A 3195  15.487  14.370   6.839 -0.2531 -0.1570 -0.0312
  200loPI   C6A 3196  15.202  14.177   6.540  0.1873  0.2158  0.0408
  200loPI   C1B 3197  15.963  14.819   8.531  0.0339 -0.0914 -0.3516
  200loPI   C2B 3198  15.877  14.819   8.137  0.0977 -0.1100 -0.0145
  200loPI   C3B 3199  16.169  14.791   7.905  0.0254 -0.1534  0.0144
  200loPI   C4B 3200  16.213  14.666   7.517 -0.3315 -0.1873  0.1232
  201loPI    C1 3201   1.786  17.374   9.531 -0.0171  0.0763 -0.0096
  201loPI    C2 3202   1.870  17.152   9.852  0.0845  0.0581 -0.0484
  201loPI    C3 3203   1.753  17.531   9.897  0.0010  0.0250  0.0141
  201loPI   PO4 3204   1.503  17.250   9.287  0.0721  0.4538  0.1539
  201loPI   GL1 3205   1.515  17.280   8.850 -0.2419 -0.0413  0.2403
  201loPI   GL2 3206   1.816  17.060   8.945  0.1170 -0.1343 -0.0899
  201loPI   C1A 3207   1.479  17.085   8.500 -0.2823 -0.0462  0.5081
  201loPI   C2A 3208   1.343  17.032   8.048  0.2607 -0.2256 -0.2683
  201loPI   C3A 3209   1.605  17.084   7.658  0.3426 -0.2340  0.0607
  201loPI   C4A 3210   1.734  17.193   7.217 -0.0017 -0.1222  0.0210
  201loPI   C5A 3211   2.154  17.306   7.053  0.1515  0.0079 -0.1628
  201loPI   C6A 3212   2.351  16.894   7.011 -0.6111 -0.0406 -0.2228
  201loPI   C1B 3213   2.016  17.297   8.619  0.0903 -0.0098 -0.0107
  201loPI   C2B 3214   1.998  17.677   8.337  0.1262 -0.2251 -0.0994
  201loPI   C3B 3215   1.874  17.883   7.931  0.0417 -0.0654 -0.2174
  201loPI   C4B 3216   1.765  18.207   7.723 -0.0309 -0.3999 -0.1999
  202loPI    C1 3217  16.296  16.091   9.911  0.3329  0.0661 -0.0778
  202loPI    C2 3218  16.546  16.151  10.217  0.1806  0.0977  0.0418
  202loPI    C3 3219  16.434  15.780  10.121  0.2297  0.0877  0.0236
  202loPI   PO4 3220  16.516  16.312   9.708  0.0129  0.0896 -0.2717
  202loPI   GL1 3221  16.665  16.398   9.348  0.2489 -0.3043 -0.1334
  202loPI   GL2 3222  16.642  16.060   9.176  0.2193 -0.0225 -0.3359
  202loPI   C1A 3223  16.763  16.587   8.957  0.0592  0.0580 -0.0359
  202loPI   C2A 3224  16.824  16.558   8.524 -0.0051 -0.3411 -0.3399
  202loPI   C3A 3225  16.848  16.557   8.118  0.2520  0.0039 -0.1016
  202loPI   C4A 3226  16.768  16.583   7.617  0.0363 -0.2725 -0.0861
  202loPI   C5A 3227  16.774  16.708   7.350 -0.1587  0.0326  0.0351
  202loPI   C6A 3228  17.043  16.528   7.136 -0.0223 -0.0709  0.0738
  202loPI   C1B 3229  16.828  16.132   8.757  0.0456 -0.2584  0.4027
  202loPI   C2B 3230  16.820  15.954   8.533 -0.0628  0.1868 -0.0633
  202loPI   C3B 3231  16.784  16.087   8.182  0.0641 -0.0163  0.1578
  202loPI   C4B 3232  16.623  16.162   7.833 -0.3615  0.0138  0.0294
  203loPI    C1 3233   2.203  16.134   9.744 -0.1547  0.1081 -0.1024
  203loPI    C2 3234   2.125  16.306  10.097  0.3206 -0.3313  0.2314
  203loPI    C3 3235   1.886  16.018   9.958 -0.0046  0.0086  0.0694
  203loPI   PO4 3236   2.281  16.332   9.481 -0.3176 -0.1452 -0.1446
  203loPI   GL1 3237   2.314  16.368   9.063 -0.0333 -0.1371 -0.0345
  203loPI   GL2 3238   1.923  16.394   9.066  0.0829  0.4135  0.0093
  203loPI   C1A 3239   2.314  16.045   8.687  0.2008  0.1057  0.4104
  203loPI   C2A 3240   2.302  16.011   8.219 -0.0121  0.2032 -0.2797
  203loPI   C3A 3241   2.380  16.048   7.785 -0.0117 -0.1827 -0.3798
  203loPI   C4A 3242   2.429  15.847   7.401 -0.2685 -0.1609 -0.0738
  203loPI   C5A 3243   2.286  15.518   7.105  0.1429  0.0151 -0.1076
  203loPI   C6A 3244   2.528  15.341   6.736 -0.1553  0.1623 -0.1063
  203loPI   C1B 3245   2.156  16.745   8.806  0.1383 -0.2232  0.1742
  203loPI   C2B 3246   2.407  16.982   8.394  0.1912 -0.0565  0.0076
  203loPI   C3B 3247   2.449  17.048   7.968  0.3769 -0.3292  0.0351
  203loPI   C4B 3248   2.379  17.081   7.600 -0.1784 -0.1818  0.0089
  204loPI    C1 3249  17.398  18.760   9.037 -0.3271 -0.3767 -0.0376
  204loPI    C2 3250  17.623  18.634   9.342 -0.0752 -0.0853 -0.0986
  204loPI    C3 3251  17.304  18.866   9.411 -0.1429 -0.1941 -0.0418
  204loPI   PO4 3252  17.426  18.621   8.792  0.0303 -0.0295  0.2241
  204loPI   GL1 3253  17.526  18.967   8.501 -0.0193  0.2629 -0.0942
  204loPI   GL2 3254  17.366  18.698   8.302  0.0206  0.2560 -0.1060
  204loPI   C1A 3255  17.764  18.993   8.201  0.1102  0.2274 -0.2415
  204loPI   C2A 3256  17.873  18.643   7.909 -0.1343  0.0768  0.0740
  204loPI   C3A 3257  17.760  18.469   7.545  0.0392 -0.0526  0.1169
  204loPI   C4A 3258  17.724  18.119   7.250  0.0725  0.3544 -0.1402
  204loPI   C5A 3259  17.635  17.786   7.051  0.3774  0.0290  0.3365
  204loPI   C6A 3260  17.381  17.351   6.978  0.2031 -0.1105  0.2196
  204loPI   C1B 3261  17.429  18.473   7.846 -0.1181 -0.0899  0.0938
  204loPI   C2B 3262  17.290  18.459   7.399  0.1312 -0.1377  0.0780
  204loPI   C3B 3263  17.413  18.450   6.914  0.4980 -0.2380 -0.2377
  204loPI   C4B 3264  17.816  18.286   6.810 -0.1385  0.1785 -0.0752
  205loPI    C1 3265   3.888   5.466   9.148  0.0036  0.1393  0.0694
  205loPI    C2 3266   3.737   5.812   9.017 -0.1180  0.0749  0.0374
  205loPI    C3 3267   3.747   5.733   9.409 -0.2337  0.0494  0.0354
  205loPI   PO4 3268   3.768   5.245   9.027  0.1420 -0.3748  0.0000
  205loPI   GL1 3269   3.709   4.934   8.785  0.0362  0.3076  0.0537
  205loPI   GL2 3270   3.411   4.778   8.776 -0.1085 -0.1863 -0.1303
  205loPI   C1A 3271   3.984   4.908   8.423 -0.0449 -0.0209 -0.0059
  205loPI   C2A 3272   4.139   4.897   8.066 -0.2586  0.1350 -0.4040
  205loPI   C3A 3273   4.153   4.969   7.681  0.1848  0.1496  0.0308
  205loPI   C4A 3274   4.440   4.938   7.384  0.0676  0.0293 -0.0890
  205loPI   C5A 3275   4.536   5.173   7.029 -0.1102  0.0324 -0.2092
  205loPI   C6A 3276   4.378   5.157   6.579 -0.3207 -0.0015  0.1403
  205loPI   C1B 3277   3.223   4.689   8.332  0.0915  0.0153  0.0692
  205loPI   C2B 3278   3.172   4.656   7.969  0.6034 -0.1878 -0.0872
  205loPI   C3B 3279   3.178   4.740   7.506 -0.0951  0.1219 -0.0850
  205loPI   C4B 3280   3.248   4.566   7.155 -0.0621 -0.0544  0.1465
  206loPI    C1 3281  18.497  13.250   9.730  0.3364  0.3215  0.4386
  206loPI    C2 3282  18.507  12.954  10.000 -0.3484 -0.0483  0.0864
  206loPI    C3 3283  18.455  13.332  10.120  0.3043 -0.0808  0.5252
  206loPI   PO4 3284  18.354  13.214   9.550 -0.2229  0.0225 -0.1630
  206loPI   GL1 3285  18.428  13.049   9.129  0.0618 -0.3399 -0.3159
  206loPI   GL2 3286  18.454  13.307   8.947 -0.2624  0.0670  0.2703
  206loPI   C1A 3287  18.308  12.917   8.676 -0.0414  0.0328 -0.1529
  206loPI   C2A 3288  18.175  12.734   8.210  0.2342  0.0806  0.2753
  206loPI   C3A 3289  18.204  12.790   7.769 -0.2520  0.2982  0.2874
  206loPI   C4A 3290  17.965  12.809   7.413  0.0459 -0.3343  0.0188
  206loPI   C5A 3291  18.154  12.933   7.052  0.3486  0.0904  0.0368
  206loPI   C6A 3292  18.519  12.980   6.818  0.2489  0.0360  0.1588
  206loPI   C1B 3293  18.354  13.424   8.557 -0.0979  0.2513  0.0863
  206loPI   C2B 3294  18.533  13.186   8.219  0.0189 -0.3998  0.0305
  206loPI   C3B 3295  18.664  13.023   7.866 -0.2049  0.0279  0.0794
  206loPI   C4B 3296  18.548  12.966   7.409 -0.3839  0.0030  0.1225
  207loPI    C1 3297  11.483  11.816   9.691 -0.0063  0.0178 -0.0438
  207loPI    C2 3298  11.824  11.964   9.837  0.0631 -0.1744 -0.0075
  207loPI    C3 3299  11.480  12.161   9.893  0.1443 -0.0589  0.0916
  207loPI   PO4 3300  11.611  11.802   9.427 -0.1195  0.3276 -0.0333
  207loPI   GL1 3301  11.505  12.055   9.022  0.0590 -0.3209 -0.3036
  207loPI   GL2 3302  11.182  12.293   8.977  0.0076  0.2015 -0.2507
  207loPI   C1A 3303  11.579  12.048   8.692 -0.0321  0.2830 -0.0857
  207loPI   C2A 3304  11.696  12.077   8.258  0.1400  0.1328  0.2268
  207loPI   C3A 3305  11.868  11.996   7.908 -0.0980  0.3578  0.4091
  207loPI   C4A 3306  11.761  11.741   7.622  0.0788 -0.0800  0.0172
  207loPI   C5A 3307  11.801  11.661   7.187 -0.1799 -0.1318  0.1277
  207loPI   C6A 3308  11.969  11.150   7.001  0.2057  0.4739 -0.2718
  207loPI   C1B 3309  11.082  12.092   8.559  0.0946  0.1403  0.3854
  207loPI   C2B 3310  10.837  11.975   8.335  0.0761 -0.1304  0.2573
  207loPI   C3B 3311  10.906  11.830   7.935 -0.1438  0.2638 -0.2029
  207loPI   C4B 3312  10.689  11.652   7.643 -0.0541  0.1542 -0.1616
  208loPI    C1 3313   1.086  18.456   9.521 -0.0468 -0.1409  0.0781
  208loPI    C2 3314   0.846  18.190   9.344  0.1749 -0.1484 -0.2194
  208loPI    C3 3315   1.219  18.086   9.445  0.1348 -0.0649  0.0201
  208loPI   PO4 3316   1.009  18.683   9.396  0.2766  0.1179 -0.2071
  208loPI   GL1 3317   0.919  18.855   9.016 -0.4359  0.3450 -0.0597
  208loPI   GL2 3318   0.768  18.692   8.957 -0.0607 -0.3079 -0.0846
  208loPI   C1A 3319   0.865  19.000   8.603 -0.0966 -0.0791  0.2243
  208loPI   C2A 3320   0.751  18.979   8.220  0.2966  0.2107  0.2833
  208loPI   C3A 3321   0.731  19.084   7.786 -0.0305 -0.0206 -0.0177
  208loPI   C4A 3322   0.558  18.952   7.395  0.0373  0.0394  0.2195
  208loPI   C5A 3323   0.221  18.873   7.150 -0.1829  0.1453  0.2497
  208loPI   C6A 3324  -0.017  18.745   6.724 -0.0314  0.2900  0.0072
  208loPI   C1B 3325   0.926  18.491   8.635 -0.1468 -0.0492  0.2292
  208loPI   C2B 3326   1.192  18.433   8.217  0.1310  0.1411 -0.4952
  208loPI   C3B 3327   1.270  18.440   7.758  0.0133 -0.3286  0.4140
  208loPI   C4B 3328   1.134  18.309   7.330 -0.1473  0.1713 -0.0008
  209loPI    C1 3329  15.218  17.136   9.690 -0.3425 -0.0822  0.1468
  209loPI    C2 3330  15.560  17.344   9.703 -0.2023 -0.2932 -0.0818
  209loPI    C3 3331  15.416  17.174  10.035 -0.1304 -0.1333  0.0325
  209loPI   PO4 3332  15.042  17.298   9.616  0.2115  0.0762 -0.0452
  209loPI   GL1 3333  14.925  17.475   9.220  0.0950 -0.0283  0.1983
  209loPI   GL2 3334  14.587  17.566   9.328 -0.0699 -0.0668 -0.0942
  209loPI   C1A 3335  14.987  17.510   8.734  0.0507  0.2946  0.1519
  209loPI   C2A 3336  14.772  17.531   8.295  0.0309 -0.2677  0.1041
  209loPI   C3A 3337  14.834  17.468   7.980  0.0948 -0.5156 -0.1669
  209loPI   C4A 3338  14.863  17.367   7.568 -0.3674 -0.0899 -0.1825
  209loPI   C5A 3339  14.938  17.334   7.220  0.0006 -0.0243  0.0910
  209loPI   C6A 3340  14.689  17.423   6.831 -0.1965  0.0997 -0.2494
  209loPI   C1B 3341  14.537  17.677   8.941  0.1613  0.0668 -0.1440
  209loPI   C2B 3342  14.341  17.478   8.560 -0.0892  0.2272 -0.1087
  209loPI   C3B 3343  14.317  17.422   8.085 -0.1333 -0.2700 -0.0722
  209loPI   C4B 3344  14.354  17.420   7.660  0.1222  0.0363  0.3347
  210loPI    C1 3345  17.205  10.903   9.959  0.1734 -0.0893  0.4218
  210loPI    C2 3346  17.324  11.272  10.059 -0.1036  0.0701  0.1808
  210loPI    C3 3347  17.105  11.056  10.314  0.1723  0.0160  0.3766
  210loPI   PO4 3348  17.012  10.964   9.727 -0.0420  0.2848  0.0175
  210loPI   GL1 3349  16.928  10.951   9.311  0.0997  0.0821  0.1999
  210loPI   GL2 3350  16.732  11.154   9.120  0.1806  0.1212 -0.0449
  210loPI   C1A 3351  17.302  10.601   9.188  0.2124 -0.0572 -0.1024
  210loPI   C2A 3352  17.545  10.652   8.728  0.0128  0.1638  0.0450
  210loPI   C3A 3353  17.441  10.823   8.329 -0.1582  0.3439 -0.0595
  210loPI   C4A 3354  17.253  10.966   8.017  0.6271  0.0220  0.0363
  210loPI   C5A 3355  17.419  11.055   7.667  0.0623  0.2981  0.0031
  210loPI   C6A 3356  17.643  11.106   7.335 -0.1405  0.0621 -0.1113
  210loPI   C1B 3357  16.880  11.278   8.860  0.3383  0.3232 -0.4113
  210loPI   C2B 3358  17.181  11.260   8.514 -0.0618 -0.1622  0.3046
  210loPI   C3B 3359  17.261  11.447   7.999  0.0383 -0.2856  0.0578
  210loPI   C4B 3360  17.312  11.692   7.577 -0.1246 -0.1374  0.2132
  211loPI    C1 3361  12.584   2.050  10.558 -0.0589 -0.0314  0.1468
  211loPI    C2 3362  12.328   2.088  10.863  0.0416 -0.0885  0.2393
  211loPI    C3 3363  12.701   2.228  10.897  0.0246 -0.0092  0.1068
  211loPI   PO4 3364  12.377   2.114  10.333 -0.0054  0.1156  0.3290
  211loPI   GL1 3365  12.176   2.208   9.822  0.0617 -0.4181  0.0803
  211loPI   GL2 3366  11.941   2.425   9.723  0.1604 -0.2757  0.2875
  211loPI   C1A 3367  12.085   1.822   9.592 -0.2671 -0.3702 -0.2177
  211loPI   C2A 3368  12.170   1.553   9.299 -0.2143  0.0115  0.1607
  211loPI   C3A 3369  11.855   1.245   9.262  0.0807  0.3140  0.0174
  211loPI   C4A 3370  11.896   0.841   9.149 -0.2717  0.2088  0.2733
  211loPI   C5A 3371  12.256   0.580   9.304 -0.4026  0.1484  0.0019
  211loPI   C6A 3372  12.643   0.358   9.451 -0.1889  0.2195  0.1979
  211loPI   C1B 3373  11.868   2.273   9.385  0.0942  0.1160 -0.2162
  211loPI   C2B 3374  11.474   2.164   9.201 -0.1489 -0.0157  0.2190
  211loPI   C3B 3375  11.280   2.073   8.822 -0.0931  0.2221  0.3145
  211loPI   C4B 3376  11.205   1.777   8.531 -0.0761  0.0193  0.2161
  212loPI    C1 3377   0.476  11.220   9.711  0.1329 -0.1978  0.3836
  212loPI    C2 3378   0.188  10.987   9.861 -0.0231 -0.3649 -0.1504
  212loPI    C3 3379   0.095  11.277   9.603  0.2453 -0.1338  0.0069
  212loPI   PO4 3380   0.643  10.950   9.582 -0.0554  0.2469  0.0209
  212loPI   GL1 3381   0.735  10.895   9.178 -0.0360 -0.0244  0.1442
  212loPI   GL2 3382   0.901  11.035   9.052 -0.0786 -0.1371 -0.3459
  212loPI   C1A 3383   0.419  10.692   8.869  0.1351 -0.0288  0.1071
  212loPI   C2A 3384   0.139  10.652   8.485 -0.0545 -0.1982  0.1801
  212loPI   C3A 3385  -0.044  10.795   8.050  0.1750  0.1173 -0.2115
  212loPI   C4A 3386   0.082  10.736   7.632  0.0314  0.1521 -0.0144
  212loPI   C5A 3387   0.167  10.861   7.198 -0.1013  0.0564  0.1576
  212loPI   C6A 3388  -0.081  11.088   7.014 -0.0828  0.2451  0.2979
  212loPI   C1B 3389   0.928  11.117   8.716 -0.0308 -0.0362 -0.2388
  212loPI   C2B 3390   1.199  11.066   8.358 -0.1274 -0.0605  0.0238
  212loPI   C3B 3391   1.173  11.084   7.843  0.0803 -0.1161 -0.1984
  212loPI   C4B 3392   1.367  11.232   7.403  0.0681  0.0213 -0.0351
  213loPI    C1 3393  12.682  15.892   9.770  0.0035 -0.0912 -0.0472
  213loPI    C2 3394  12.467  16.008  10.086 -0.0687  0.0047 -0.1308
  213loPI    C3 3395  12.589  15.628  10.056 -0.0081  0.0097  0.0427
  213loPI   PO4 3396  12.638  16.193   9.609  0.0178  0.4887  0.1873
  213loPI   GL1 3397  12.914  16.267   9.266 -0.1408 -0.4569 -0.1645
  213loPI   GL2 3398  13.204  16.333   9.192  0.1514  0.1256  0.0440
  213loPI   C1A 3399  12.946  16.317   8.798 -0.1487  0.1674  0.0913
  213loPI   C2A 3400  13.063  16.172   8.362 -0.0562  0.2459  0.1201
  213loPI   C3A 3401  13.350  16.108   8.156 -0.0259  0.4426 -0.0859
  213loPI   C4A 3402  13.559  15.811   7.940 -0.1435 -0.0381 -0.1348
  213loPI   C5A 3403  13.936  15.842   7.599 -0.0195 -0.1679 -0.0633
  213loPI   C6A 3404  14.239  16.004   7.439  0.0231 -0.1374 -0.2708
  213loPI   C1B 3405  13.403  16.397   8.852  0.1297  0.0727  0.0220
  213loPI   C2B 3406  13.441  16.596   8.395 -0.1754  0.1882 -0.0163
  213loPI   C3B 3407  13.337  16.564   7.910  0.0381 -0.0914 -0.1163
  213loPI   C4B 3408  13.628  16.778   7.606  0.0818 -0.2999 -0.1325
  214loPI    C1 3409  16.939   3.945   9.472 -0.2008  0.1178 -0.1520
  214loPI    C2 3410  17.015   4.047   9.852  0.0527 -0.1398 -0.1299
  214loPI    C3 3411  16.976   4.330   9.572  0.2106  0.0380  0.0257
  214loPI   PO4 3412  17.062   3.836   9.353 -0.1146 -0.0324 -0.0130
  214loPI   GL1 3413  17.116   3.883   8.929  0.1254  0.2887 -0.1284
  214loPI   GL2 3414  17.262   3.637   8.856  0.2597  0.0047 -0.0084
  214loPI   C1A 3415  16.860   3.878   8.632 -0.0639 -0.1483 -0.0917
  214loPI   C2A 3416  16.709   3.663   8.246 -0.1365 -0.0784 -0.0837
  214loPI   C3A 3417  16.680   3.885   7.848  0.3825  0.1980 -0.2245
  214loPI   C4A 3418  16.810   4.172   7.679  0.1616  0.0374  0.4741
  214loPI   C5A 3419  17.043   4.080   7.307  0.1630  0.0162  0.1738
  214loPI   C6A 3420  17.367   3.774   7.079  0.0910  0.1597 -0.0712
  214loPI   C1B 3421  17.443   4.047   8.519 -0.0810 -0.0013 -0.1334
  214loPI   C2B 3422  17.585   4.134   8.150  0.2558  0.1653  0.0972
  214loPI   C3B 3423  17.348   4.260   7.813 -0.2792 -0.1812  0.2343
  214loPI   C4B 3424  17.160   4.602   7.429  0.3275 -0.2167  0.1426
  215loPI    C1 3425   8.902  19.284  10.313 -0.1529 -0.0039  0.0953
  215loPI    C2 3426   8.558  19.329  10.513 -0.1772 -0.0248  0.0584
  215loPI    C3 3427   8.903  19.444  10.679 -0.1800 -0.1774  0.1720
  215loPI   PO4 3428   8.823  19.336   9.993  0.0093  0.3585  0.1257
  215loPI   GL1 3429   9.131  19.535   9.645 -0.1000 -0.1737  0.0310
  215loPI   GL2 3430   8.891  19.516   9.526  0.0891  0.2296  0.1177
  215loPI   C1A 3431   9.202  19.831   9.241 -0.5251 -0.2186  0.1403
  215loPI   C2A 3432   9.261  19.737   8.817  0.1023  0.0465  0.0693
  215loPI   C3A 3433   9.317  19.605   8.512 -0.0054 -0.0635 -0.0070
  215loPI   C4A 3434   9.282  19.649   8.039 -0.3506 -0.0357  0.2021
  215loPI   C5A 3435   9.232  19.477   7.629  0.1574  0.0059  0.0400
  215loPI   C6A 3436   9.145  19.397   7.270  0.0283 -0.0890 -0.3719
  215loPI   C1B 3437   8.745  19.682   9.147 -0.1095 -0.0556  0.1627
  215loPI   C2B 3438   8.834  19.747   8.665  0.1251  0.3934  0.2711
  215loPI   C3B 3439   8.898  19.802   8.257 -0.1046  0.0288  0.1881
  215loPI   C4B 3440   8.776  19.622   7.829 -0.1341 -0.0500 -0.2122
  216loPI    C1 3441   3.987   3.208   9.748 -0.1067  0.0753  0.2038
  216loPI    C2 3442   4.362   3.186   9.887 -0.0321  0.0432  0.0009
  216loPI    C3 3443   4.057   3.239  10.141  0.1029 -0.0002  0.1737
  216loPI   PO4 3444   4.022   3.230   9.483  0.2312  0.1936 -0.2418
  216loPI   GL1 3445   4.167   3.424   9.156  0.0331 -0.0015  0.1542
  216loPI   GL2 3446   4.321   3.161   9.108  0.2130 -0.1983 -0.1217
  216loPI   C1A 3447   4.294   3.372   8.625 -0.1542 -0.3162  0.1695
  216loPI   C2A 3448   4.447   3.510   8.210 -0.1780 -0.0411  0.2317
  216loPI   C3A 3449   4.534   3.585   7.856 -0.2008 -0.2199 -0.1237
  216loPI   C4A 3450   4.689   3.442   7.639 -0.1245 -0.2540 -0.1260
  216loPI   C5A 3451   4.694   3.098   7.374  0.1050  0.1001  0.0784
  216loPI   C6A 3452   4.467   3.083   6.899  0.1966  0.0472 -0.2556
  216loPI   C1B 3453   4.368   2.818   8.814 -0.2606  0.1795 -0.1150
  216loPI   C2B 3454   4.072   2.579   8.637  0.1548  0.0509 -0.0884
  216loPI   C3B 3455   4.072   2.440   8.145  0.0402 -0.0735 -0.1972
  216loPI   C4B 3456   4.173   2.510   7.783  0.1844  0.0650  0.0365
  217loPI    C1 3457  15.416  10.199   9.721  0.0877  0.0351 -0.2820
  217loPI    C2 3458  15.365   9.807   9.661 -0.0557 -0.0080  0.0947
  217loPI    C3 3459  15.346   9.957  10.031  0.2477  0.3209 -0.0173
  217loPI   PO4 3460  15.736  10.199   9.636  0.1314  0.0508 -0.0402
  217loPI   GL1 3461  16.013  10.230   9.172  0.0397 -0.0883  0.0148
  217loPI   GL2 3462  15.664  10.197   9.101 -0.5310  0.1330 -0.1686
  217loPI   C1A 3463  16.107  10.105   8.778  0.2627 -0.1681  0.1716
  217loPI   C2A 3464  15.956  10.036   8.381  0.1376  0.1357 -0.1790
  217loPI   C3A 3465  15.886  10.050   7.937 -0.1552  0.0002 -0.2794
  217loPI   C4A 3466  15.490  10.186   7.774  0.2099  0.2154 -0.0863
  217loPI   C5A 3467  15.200  10.325   7.445  0.1352 -0.1770  0.1178
  217loPI   C6A 3468  14.990  10.331   7.035 -0.1228  0.4190  0.1846
  217loPI   C1B 3469  15.660  10.289   8.706 -0.1948  0.1027  0.1516
  217loPI   C2B 3470  15.573  10.372   8.266 -0.0683 -0.3152  0.0034
  217loPI   C3B 3471  15.814  10.553   7.957 -0.0075  0.0476 -0.4545
  217loPI   C4B 3472  15.827  10.496   7.540 -0.0895  0.2137 -0.1268
  218loPI    C1 3473  18.259  17.179   9.598 -0.0287  0.2402 -0.1038
  218loPI    C2 3474  18.610  17.351   9.513  0.2141 -0.1379  0.1076
  218loPI    C3 3475  18.594  16.961   9.601 -0.2195 -0.0637  0.3913
  218loPI   PO4 3476  18.118  17.360   9.414  0.0904 -0.0159 -0.1916
  218loPI   GL1 3477  18.311  17.430   9.078 -0.0372  0.0485 -0.0661
  218loPI   GL2 3478  18.517  17.541   8.970 -0.0600 -0.0119 -0.0265
  218loPI   C1A 3479  18.235  17.197   8.753 -0.0791  0.0376  0.4240
  218loPI   C2A 3480  18.255  17.258   8.277 -0.1650  0.1012  0.2163
  218loPI   C3A 3481  18.068  17.479   7.905 -0.1190  0.0536 -0.0480
  218loPI   C4A 3482  17.938  17.473   7.558 -0.0092 -0.1278 -0.0526
  218loPI   C5A 3483  17.890  17.275   7.148 -0.0333 -0.1141  0.1114
  218loPI   C6A 3484  17.976  17.098   6.807  0.0064  0.2281 -0.0614
  218loPI   C1B 3485  18.347  17.681   8.664  0.2541 -0.0781 -0.0697
  218loPI   C2B 3486  18.106  17.747   8.482  0.2240  0.1454  0.0511
  218loPI   C3B 3487  17.749  17.833   8.330 -0.1159  0.1737  0.1993
  218loPI   C4B 3488  17.749  17.869   7.842  0.2044 -0.4158 -0.2363
  219loPI    C1 3489  18.982   9.532   9.694  0.0532 -0.0459 -0.1164
  219loPI    C2 3490  19.358   9.637   9.606  0.0384 -0.0373 -0.1695
  219loPI    C3 3491  19.272   9.486   9.966  0.1289 -0.2233 -0.2251
  219loPI   PO4 3492  18.847   9.814   9.527  0.0010  0.1683  0.1813
  219loPI   GL1 3493  18.919   9.972   9.130 -0.0983 -0.3406 -0.1598
  219loPI   GL2 3494  19.244   9.854   9.149 -0.1038 -0.0248  0.0325
  219loPI   C1A 3495  18.818   9.794   8.794  0.0423 -0.0550  0.2437
  219loPI   C2A 3496  18.846   9.504   8.423  0.5211  0.0216  0.1973
  219loPI   C3A 3497  18.706   9.484   7.959  0.2640  0.1969  0.1937
  219loPI   C4A 3498  18.615   9.209   7.556  0.2576  0.0793  0.1499
  219loPI   C5A 3499  18.675   9.056   7.110  0.0287  0.0646 -0.3073
  219loPI   C6A 3500  18.882   8.766   6.842  0.0947  0.0005 -0.1296
  219loPI   C1B 3501  19.312   9.769   8.718  0.1318  0.1641 -0.0834
  219loPI   C2B 3502  19.383   9.786   8.378 -0.0113  0.0956 -0.2358
  219loPI   C3B 3503  19.062   9.828   8.058 -0.0458  0.0202  0.0470
  219loPI   C4B 3504  19.006   9.767   7.617  0.1309  0.0693  0.2034
  220loPI    C1 3505   0.782  12.338   9.981  0.0921  0.0618  0.2600
  220loPI    C2 3506   0.435  12.526  10.042  0.0928  0.1135  0.1098
  220loPI    C3 3507   0.673  12.441  10.352 -0.0914  0.0035  0.2231
  220loPI   PO4 3508   0.981  12.459   9.767 -0.0225  0.1095  0.0095
  220loPI   GL1 3509   1.083  12.113   9.482  0.3009 -0.0941  0.1365
  220loPI   GL2 3510   1.444  12.312   9.454 -0.0816  0.2234  0.0482
  220loPI   C1A 3511   0.909  12.070   9.077  0.2505 -0.1136 -0.2919
  220loPI   C2A 3512   1.036  11.943   8.705 -0.0515  0.0526 -0.2000
  220loPI   C3A 3513   1.082  11.859   8.258  0.0484 -0.1334  0.2020
  220loPI   C4A 3514   0.870  11.849   7.863  0.0463 -0.1389  0.0572
  220loPI   C5A 3515   0.717  12.063   7.468  0.0320  0.0617 -0.0968
  220loPI   C6A 3516   0.350  11.923   7.260 -0.0267  0.3338 -0.0567
  220loPI   C1B 3517   1.383  12.279   8.981 -0.2482  0.3734 -0.2204
  220loPI   C2B 3518   1.360  12.327   8.569  0.0756  0.0592  0.1661
  220loPI   C3B 3519   1.291  12.264   7.986  0.1366 -0.0735  0.5145
  220loPI   C4B 3520   1.248  12.110   7.584 -0.4435 -0.2561 -0.4062
  221loPI    C1 3521   9.118   8.377   9.977 -0.1630 -0.1309  0.0728
  221loPI    C2 3522   9.499   8.452   9.880 -0.1635 -0.0942  0.0995
  221loPI    C3 3523   9.403   8.359  10.257 -0.1465 -0.3423  0.0440
  221loPI   PO4 3524   9.005   8.301   9.690 -0.0218 -0.3514 -0.2836
  221loPI   GL1 3525   8.793   8.579   9.319 -0.3241  0.2299 -0.5133
  221loPI   GL2 3526   8.600   8.440   9.129 -0.3915  0.1269  0.1197
  221loPI   C1A 3527   9.035   8.717   8.930  0.1328 -0.0690  0.2094
  221loPI   C2A 3528   9.025   8.802   8.577 -0.0453  0.1015 -0.1023
  221loPI   C3A 3529   9.087   8.882   8.062 -0.0222  0.3209  0.1956
  221loPI   C4A 3530   9.130   9.186   7.604  0.0358 -0.0786  0.1494
  221loPI   C5A 3531   9.419   9.022   7.281 -0.0874 -0.4060  0.3226
  221loPI   C6A 3532   9.425   9.048   6.782 -0.2785  0.0261  0.4502
  221loPI   C1B 3533   8.605   8.523   8.703 -0.2484 -0.0903  0.1284
  221loPI   C2B 3534   8.588   8.634   8.217 -0.0717 -0.0249 -0.3706
  221loPI   C3B 3535   8.714   8.668   7.794 -0.1552 -0.2781  0.2151
  221loPI   C4B 3536   8.876   8.832   7.419  0.0016 -0.3594 -0.2346
  222loPI    C1 3537   6.513  13.763  10.368  0.1376  0.1159 -0.2014
  222loPI    C2 3538   6.609  13.411  10.204  0.4262  0.2341 -0.2935
  222loPI    C3 3539   6.453  13.425  10.572  0.0503 -0.0136 -0.4375
  222loPI   PO4 3540   6.516  13.915  10.102  0.0181  0.0419 -0.0357
  222loPI   GL1 3541   6.457  13.713   9.767 -0.1594  0.2208  0.1195
  222loPI   GL2 3542   6.179  13.532   9.758 -0.0378 -0.1159 -0.3437
  222loPI   C1A 3543   6.640  13.777   9.408 -0.1818 -0.0608 -0.1921
  222loPI   C2A 3544   6.612  13.814   8.938 -0.3395  0.3455  0.0323
  222loPI   C3A 3545   6.468  13.617   8.534  0.1423 -0.0520 -0.2412
  222loPI   C4A 3546   6.655  13.755   8.094 -0.1104 -0.1221 -0.1659
  222loPI   C5A 3547   6.758  14.036   7.896 -0.2254 -0.0439  0.2634
  222loPI   C6A 3548   6.649  14.297   7.458 -0.0388  0.0503  0.0742
  222loPI   C1B 3549   5.806  13.536   9.453  0.2417  0.0789  0.1936
  222loPI   C2B 3550   5.425  13.839   9.492 -0.1538  0.2284  0.2787
  222loPI   C3B 3551   5.428  14.268   9.664 -0.1312  0.0704 -0.1537
  222loPI   C4B 3552   5.695  14.542   9.660 -0.3756  0.1752  0.1748
  223loPI    C1 3553   0.432  14.653   9.616 -0.1622  0.0934  0.1484
  223loPI    C2 3554   0.741  14.566   9.856 -0.1100  0.1368  0.0972
  223loPI    C3 3555   0.382  14.646  10.013 -0.0842  0.1315  0.1591
  223loPI   PO4 3556   0.565  14.592   9.357  0.3487  0.1108 -0.1481
  223loPI   GL1 3557   0.688  14.828   8.949  0.5366  0.1437 -0.1359
  223loPI   GL2 3558   0.907  14.608   8.908 -0.0453 -0.1057 -0.0233
  223loPI   C1A 3559   0.695  14.583   8.473 -0.0609  0.0938 -0.0305
  223loPI   C2A 3560   0.664  14.595   7.981  0.1237 -0.5402 -0.0099
  223loPI   C3A 3561   0.906  14.863   7.718  0.2623  0.2378  0.2981
  223loPI   C4A 3562   0.803  15.243   7.579  0.0552  0.1994  0.1995
  223loPI   C5A 3563   0.948  15.623   7.445 -0.0281 -0.1714  0.0159
  223loPI   C6A 3564   1.213  15.912   7.324  0.0149 -0.2746 -0.0134
  223loPI   C1B 3565   1.096  14.440   8.671  0.1611 -0.0179 -0.0802
  223loPI   C2B 3566   1.137  14.055   8.514  0.3875  0.0423 -0.1638
  223loPI   C3B 3567   1.312  13.619   8.398  0.0064  0.1591 -0.1066
  223loPI   C4B 3568   1.477  13.200   8.561  0.0675 -0.1284 -0.1944
  224loPI    C1 3569  10.156   2.063  10.510  0.3094  0.0435 -0.1535
  224loPI    C2 3570  10.153   2.306  10.828  0.0521  0.1103 -0.2047
  224loPI    C3 3571  10.473   2.078  10.753  0.1753  0.2086  0.0142
  224loPI   PO4 3572   9.967   2.220  10.329 -0.0757 -0.4322 -0.0832
  224loPI   GL1 3573  10.017   2.153   9.891 -0.4357  0.1894  0.0197
  224loPI   GL2 3574   9.746   2.112   9.811  0.2242  0.0781  0.3018
  224loPI   C1A 3575  10.078   2.376   9.529  0.2956 -0.0736  0.0163
  224loPI   C2A 3576  10.048   2.636   9.243 -0.0210 -0.2021  0.0140
  224loPI   C3A 3577  10.063   2.624   8.834  0.3661  0.1823 -0.1298
  224loPI   C4A 3578  10.216   2.399   8.375 -0.0876 -0.0467  0.1321
  224loPI   C5A 3579  10.588   2.348   8.082  0.0962  0.5042  0.2747
  224loPI   C6A 3580  10.944   2.080   7.909  0.1313  0.3124  0.0450
  224loPI   C1B 3581   9.752   2.027   9.472 -0.0827 -0.1167  0.0220
  224loPI   C2B 3582   9.532   2.025   9.054  0.0291  0.0253  0.3128
  224loPI   C3B 3583   9.369   1.813   8.679  0.2210  0.0393  0.0890
  224loPI   C4B 3584   9.231   1.812   8.253  0.2129  0.0254  0.1604
  225loPI    C1 3585  11.370  14.486   9.565  0.0001  0.0569  0.1709
  225loPI    C2 3586  11.228  14.351   9.913 -0.1477 -0.1163  0.0451
  225loPI    C3 3587  11.622  14.354   9.846 -0.1399 -0.4871  0.0525
  225loPI   PO4 3588  11.134  14.486   9.441  0.0606 -0.3488  0.0149
  225loPI   GL1 3589  11.047  14.506   9.112 -0.1017 -0.2670 -0.0834
  225loPI   GL2 3590  11.037  14.206   8.993 -0.0224  0.0104  0.1260
  225loPI   C1A 3591  11.272  14.574   8.667  0.0654 -0.1632 -0.1642
  225loPI   C2A 3592  11.224  14.326   8.226 -0.0493  0.0910 -0.5793
  225loPI   C3A 3593  11.313  14.345   7.802  0.0826  0.0073  0.0038
  225loPI   C4A 3594  11.599  14.531   7.486  0.0600 -0.3391 -0.0419
  225loPI   C5A 3595  12.001  14.672   7.380  0.4308  0.1207  0.2476
  225loPI   C6A 3596  12.307  14.737   7.670 -0.3762  0.0968  0.0070
  225loPI   C1B 3597  11.107  14.054   8.654 -0.3615  0.1336  0.1951
  225loPI   C2B 3598  11.425  13.876   8.457 -0.3761  0.2860  0.4568
  225loPI   C3B 3599  11.573  13.973   8.053  0.0070  0.3223  0.0607
  225loPI   C4B 3600  11.598  14.016   7.662  0.1981  0.2840  0.0370
  226loPI    C1 3601   9.433  11.341   9.927  0.1634 -0.0977  0.0138
  226loPI    C2 3602   9.823  11.428   9.911  0.0915  0.2948  0.2500
  226loPI    C3 3603   9.564  11.630   9.683  0.0410 -0.0901 -0.0437
  226loPI   PO4 3604   9.282  10.935   9.911 -0.2832  0.0674 -0.0850
  226loPI   GL1 3605   9.321  10.836   9.436 -0.2917 -0.0652  0.2838
  226loPI   GL2 3606   9.190  11.006   9.294  0.2224 -0.0619 -0.0257
  226loPI   C1A 3607   9.521  10.710   8.976  0.2054 -0.0089  0.0648
  226loPI   C2A 3608   9.402  10.658   8.531  0.0943 -0.4994 -0.2156
  226loPI   C3A 3609   9.160  10.505   8.133 -0.3242  0.0340 -0.0142
  226loPI   C4A 3610   9.109  10.444   7.739 -0.1628  0.0980  0.1171
  226loPI   C5A 3611   9.158  10.293   7.408  0.1229  0.3629 -0.0817
  226loPI   C6A 3612   9.109  10.198   6.948 -0.0339  0.0294  0.0854
  226loPI   C1B 3613   9.124  11.070   8.823 -0.1804  0.0879  0.0501
  226loPI   C2B 3614   9.260  11.125   8.398  0.1670 -0.2491 -0.2532
  226loPI   C3B 3615   9.492  10.844   8.025  0.0110  0.0287 -0.0625
  226loPI   C4B 3616   9.476  10.960   7.550 -0.1222  0.0188 -0.1458
  227loPI    C1 3617   2.641   3.735   9.602 -0.0176  0.1083  0.1350
  227loPI    C2 3618   2.302   3.726   9.814 -0.0803 -0.0591  0.0299
  227loPI    C3 3619   2.507   4.068   9.778 -0.3079  0.0743 -0.0158
  227loPI   PO4 3620   2.558   3.595   9.363  0.2565 -0.2625 -0.1470
  227loPI   GL1 3621   2.359   3.529   9.025  0.2618  0.0946 -0.1352
  227loPI   GL2 3622   2.317   3.722   8.900  0.0453 -0.1955 -0.1038
  227loPI   C1A 3623   2.101   3.277   8.780  0.1245 -0.1442  0.1484
  227loPI   C2A 3624   2.035   3.125   8.395  0.2382  0.0197 -0.1146
  227loPI   C3A 3625   2.219   3.204   8.036 -0.2266 -0.1291  0.1012
  227loPI   C4A 3626   2.543   3.121   7.667 -0.1391  0.1708  0.0142
  227loPI   C5A 3627   2.659   3.062   7.303  0.1675  0.1291  0.0131
  227loPI   C6A 3628   3.035   3.008   7.100 -0.4456  0.2784  0.0543
  227loPI   C1B 3629   2.471   3.499   8.567  0.0107 -0.1488  0.1931
  227loPI   C2B 3630   2.859   3.302   8.379 -0.0474  0.1718 -0.0233
  227loPI   C3B 3631   3.017   3.357   7.971  0.1657  0.0807  0.0630
  227loPI   C4B 3632   3.121   3.212   7.622 -0.0271 -0.0511 -0.0553
  228loPI    C1 3633  12.367  13.874   9.536 -0.1293 -0.2249 -0.0794
  228loPI    C2 3634  12.455  13.958   9.918 -0.2235  0.1300 -0.1322
  228loPI    C3 3635  12.281  13.610   9.824  0.1523 -0.1279  0.0985
  228loPI   PO4 3636  12.406  14.137   9.398  0.1801 -0.2932  0.1633
  228loPI   GL1 3637  12.715  14.230   9.139 -0.0416 -0.3031  0.0122
  228loPI   GL2 3638  12.789  14.449   9.261 -0.0066 -0.3447  0.0883
  228loPI   C1A 3639  12.810  14.269   8.680 -0.0463 -0.0357 -0.1566
  228loPI   C2A 3640  12.794  14.358   8.229 -0.0442  0.1323 -0.0485
  228loPI   C3A 3641  12.681  14.251   7.727 -0.3466 -0.2795 -0.0752
  228loPI   C4A 3642  12.628  13.924   7.466 -0.0979  0.0426  0.0380
  228loPI   C5A 3643  12.397  13.940   7.080 -0.0161 -0.2813  0.1450
  228loPI   C6A 3644  12.008  14.114   7.157  0.3188  0.2881  0.0158
  228loPI   C1B 3645  12.537  14.605   8.906  0.1716  0.0154 -0.0471
  228loPI   C2B 3646  12.340  14.500   8.504 -0.0531 -0.2434  0.2410
  228loPI   C3B 3647  12.340  14.391   8.104  0.0353 -0.2595 -0.2281
  228loPI   C4B 3648  12.141  14.271   7.601 -0.4382 -0.0571 -0.0771
  229loPI    C1 3649   2.830   5.419   9.187  0.0565  0.1719 -0.1074
  229loPI    C2 3650   2.639   5.647   9.454  0.1304  0.1249 -0.0140
  229loPI    C3 3651   2.585   5.251   9.455  0.0700  0.1326 -0.1197
  229loPI   PO4 3652   2.783   5.561   8.967  0.4394  0.1802  0.2945
  229loPI   GL1 3653   2.917   5.713   8.698 -0.1740 -0.0988  0.1843
  229loPI   GL2 3654   3.106   5.773   8.529  0.0292 -0.0948  0.0232
  229loPI   C1A 3655   2.719   5.601   8.320  0.2066  0.0620 -0.0454
  229loPI   C2A 3656   2.763   5.540   7.880  0.4294  0.2412  0.2043
  229loPI   C3A 3657   2.820   5.767   7.510  0.1876 -0.0150 -0.1910
  229loPI   C4A 3658   2.743   6.088   7.219 -0.3315 -0.0176 -0.1356
  229loPI   C5A 3659   2.612   6.489   7.259 -0.3517 -0.1503 -0.1571
  229loPI   C6A 3660   2.334   6.833   7.323 -0.0131  0.1180  0.2282
  229loPI   C1B 3661   3.160   5.589   8.232 -0.0412  0.1783  0.1906
  229loPI   C2B 3662   3.345   5.509   7.778 -0.1236  0.2139  0.0997
  229loPI   C3B 3663   3.194   5.265   7.530  0.3130  0.2472  0.0040
  229loPI   C4B 3664   2.970   5.020   7.175 -0.0313 -0.0469 -0.1480
  230loPI    C1 3665  10.171   4.211  10.327  0.0065 -0.4816 -0.0559
  230loPI    C2 3666  10.459   4.027  10.535  0.0079 -0.2367  0.1648
  230loPI    C3 3667  10.142   4.180  10.725  0.0222  0.0158 -0.0094
  230loPI   PO4 3668  10.263   4.320  10.163 -0.2962  0.0384  0.1838
  230loPI   GL1 3669  10.535   4.113   9.938  0.1116 -0.2051 -0.0690
  230loPI   GL2 3670  10.673   4.461   9.921 -0.0690 -0.3296 -0.0040
  230loPI   C1A 3671  10.475   3.794   9.666 -0.1192 -0.3238  0.0130
  230loPI   C2A 3672  10.342   3.634   9.279 -0.1115  0.1269  0.0524
  230loPI   C3A 3673  10.158   3.659   8.782  0.2158 -0.1555  0.0270
  230loPI   C4A 3674  10.226   3.611   8.342  0.2032  0.0231  0.2601
  230loPI   C5A 3675  10.362   3.273   7.947 -0.1392 -0.3039 -0.2015
  230loPI   C6A 3676  10.410   2.959   7.822  0.1449  0.0794  0.2030
  230loPI   C1B 3677  10.474   4.467   9.433 -0.1352  0.2263  0.0141
  230loPI   C2B 3678  10.351   4.257   8.982 -0.1317 -0.1644 -0.1784
  230loPI   C3B 3679  10.097   4.187   8.517  0.1637 -0.1839  0.0153
  230loPI   C4B 3680   9.894   4.025   8.201 -0.2102  0.0819  0.1377
  231loPI    C1 3681  11.158  18.473  10.131  0.0743 -0.1523 -0.2422
  231loPI    C2 3682  11.382  18.206  10.328 -0.0505  0.0227  0.1470
  231loPI    C3 3683  10.986  18.155  10.303 -0.0489  0.0610  0.0347
  231loPI   PO4 3684  11.227  18.515   9.955  0.1826 -0.0617 -0.2032
  231loPI   GL1 3685  11.218  18.598   9.628  0.0258 -0.2717  0.0314
  231loPI   GL2 3686  11.050  18.851   9.630 -0.0512 -0.2949  0.0281
  231loPI   C1A 3687  11.385  18.578   9.220  0.1320 -0.3160  0.2032
  231loPI   C2A 3688  11.711  18.551   8.862  0.1191 -0.0103 -0.1334
  231loPI   C3A 3689  11.993  18.571   8.549 -0.1127 -0.0691  0.0241
  231loPI   C4A 3690  12.187  18.479   8.118  0.1112 -0.1125  0.1708
  231loPI   C5A 3691  12.434  18.232   7.800  0.3463 -0.2747 -0.0930
  231loPI   C6A 3692  12.732  18.350   7.540  0.0052  0.2043 -0.0461
  231loPI   C1B 3693  11.007  18.897   9.036  0.1126  0.0908 -0.3360
  231loPI   C2B 3694  11.099  18.876   8.618  0.0837 -0.1369 -0.1052
  231loPI   C3B 3695  11.141  18.746   8.165 -0.0885 -0.0755 -0.0300
  231loPI   C4B 3696  11.222  18.644   7.844 -0.1085  0.2365 -0.1687
  232loPI    C1 3697   5.953  17.391   9.778 -0.0943 -0.0554  0.0981
  232loPI    C2 3698   6.232  17.253  10.029  0.1441  0.3195  0.0475
  232loPI    C3 3699   5.897  17.417  10.173  0.0536  0.0840  0.1107
  232loPI   PO4 3700   6.118  17.469   9.501  0.2689 -0.2889 -0.1617
  232loPI   GL1 3701   6.163  17.297   9.082 -0.3755  0.2806  0.2114
  232loPI   GL2 3702   6.395  17.052   9.126  0.2840 -0.0166 -0.2210
  232loPI   C1A 3703   6.171  17.614   8.744 -0.1656  0.0626  0.1129
  232loPI   C2A 3704   6.181  17.844   8.410  0.1619 -0.2015 -0.0659
  232loPI   C3A 3705   6.229  17.850   7.862  0.2960  0.0700  0.0451
  232loPI   C4A 3706   6.239  17.780   7.368  0.1068  0.1560  0.0521
  232loPI   C5A 3707   6.066  17.620   7.152  0.0414 -0.0153 -0.0649
  232loPI   C6A 3708   5.880  17.275   7.194 -0.0310 -0.0479  0.0649
  232loPI   C1B 3709   6.390  16.735   8.786 -0.0751 -0.2616 -0.0276
  232loPI   C2B 3710   6.309  16.759   8.277  0.1880 -0.2078  0.3029
  232loPI   C3B 3711   6.388  16.874   7.958 -0.3289 -0.1599  0.1779
  232loPI   C4B 3712   6.490  17.300   7.742  0.1665  0.0704  0.2568
  233loPI    C1 3713   3.226   3.893   9.407 -0.2870 -0.0381  0.2300
  233loPI    C2 3714   3.105   4.156   9.683 -0.0325  0.1248  0.1890
  233loPI    C3 3715   3.452   3.962   9.729  0.0201  0.1656 -0.0232
  233loPI   PO4 3716   2.960   3.970   9.213 -0.1086  0.2183  0.2890
  233loPI   GL1 3717   2.795   3.790   8.873  0.0734  0.2201 -0.2578
  233loPI   GL2 3718   2.608   4.101   8.750 -0.0430  0.3001  0.1193
  233loPI   C1A 3719   2.850   3.768   8.408 -0.1937 -0.1217 -0.0747
  233loPI   C2A 3720   2.986   3.865   7.982  0.3011 -0.0849  0.2686
  233loPI   C3A 3721   2.947   3.724   7.633  0.2175  0.1839 -0.1857
  233loPI   C4A 3722   2.855   3.469   7.288  0.3393 -0.2212  0.1676
  233loPI   C5A 3723   2.827   3.382   6.788  0.0970 -0.0991  0.0213
  233loPI   C6A 3724   3.141   3.082   6.547  0.0695 -0.1960 -0.0319
  233loPI   C1B 3725   2.731   4.275   8.315 -0.0349 -0.2059  0.0002
  233loPI   C2B 3726   2.808   4.370   7.971 -0.2443  0.1724  0.1531
  233loPI   C3B 3727   2.572   4.167   7.763 -0.0486  0.0735  0.2851
  233loPI   C4B 3728   2.572   3.845   7.283  0.0667 -0.0407 -0.1830
  234loPI    C1 3729   9.434   3.011  10.494 -0.1006 -0.1372  0.0029
  234loPI    C2 3730   9.581   3.359  10.626 -0.4620 -0.0338  0.1457
  234loPI    C3 3731   9.603   3.033  10.856 -0.0525 -0.1293 -0.0201
  234loPI   PO4 3732   9.483   3.030  10.177 -0.0897 -0.3075 -0.1363
  234loPI   GL1 3733   9.314   2.889   9.690  0.0316  0.0516 -0.0522
  234loPI   GL2 3734   9.327   2.648   9.902  0.2423 -0.5122  0.1507
  234loPI   C1A 3735   9.303   2.912   9.236 -0.1980 -0.2379 -0.0779
  234loPI   C2A 3736   9.216   2.872   8.857  0.0920  0.1108 -0.1737
  234loPI   C3A 3737   9.187   2.947   8.393 -0.0765 -0.1086 -0.0545
  234loPI   C4A 3738   9.043   3.099   7.917 -0.0920  0.0682 -0.1659
  234loPI   C5A 3739   8.823   3.485   7.696  0.0382 -0.0736 -0.3579
  234loPI   C6A 3740   8.467   3.475   7.439  0.0012 -0.1334 -0.0458
  234loPI   C1B 3741   9.559   2.519   9.475  0.0698  0.1443  0.0139
  234loPI   C2B 3742   9.612   2.523   9.045 -0.1084  0.1540  0.4475
  234loPI   C3B 3743   9.621   2.619   8.576 -0.3416 -0.1727  0.0261
  234loPI   C4B 3744   9.659   2.759   8.168 -0.0749 -0.1622  0.0840
  235loPI    C1 3745   9.394  17.342  10.072  0.0197  0.0517 -0.3314
  235loPI    C2 3746   9.304  17.041   9.824 -0.0274 -0.2590  0.0546
  235loPI    C3 3747   9.317  16.979  10.219  0.3293  0.1598  0.1166
  235loPI   PO4 3748   9.328  17.557   9.853 -0.0354 -0.0728  0.2155
  235loPI   GL1 3749   9.374  17.460   9.373  0.0795  0.1848 -0.0359
  235loPI   GL2 3750   9.539  17.689   9.359 -0.0483 -0.1676  0.1889
  235loPI   C1A 3751   9.363  17.372   8.933 -0.0597  0.2256 -0.0149
  235loPI   C2A 3752   9.333  17.407   8.542  0.1087 -0.1225  0.1486
  235loPI   C3A 3753   9.288  17.321   8.161 -0.1008  0.2251 -0.1838
  235loPI   C4A 3754   9.172  17.256   7.841 -0.0511  0.0174 -0.0059
  235loPI   C5A 3755   9.184  17.263   7.380  0.0692  0.3484 -0.0386
  235loPI   C6A 3756   9.195  17.127   6.972 -0.0540  0.2153 -0.1647
  235loPI   C1B 3757   9.415  17.857   8.941  0.2883 -0.0208 -0.1325
  235loPI   C2B 3758   9.525  17.918   8.482  0.3575 -0.0488 -0.1177
  235loPI   C3B 3759   9.378  17.847   7.984 -0.0198 -0.0345 -0.5916
  235loPI   C4B 3760   9.410  18.047   7.513 -0.3571 -0.2633 -0.3407
  236loPI    C1 3761  18.052  18.244   9.277 -0.2093  0.0278 -0.0395
  236loPI    C2 3762  17.950  17.907   9.467 -0.1178 -0.1409 -0.2850
  236loPI    C3 3763  18.314  17.943   9.304  0.0681  0.2850  0.1994
  236loPI   PO4 3764  17.833  18.265   9.075  0.1127 -0.1341 -0.1742
  236loPI   GL1 3765  17.540  18.173   8.762 -0.1998  0.0873 -0.4305
  236loPI   GL2 3766  17.748  18.315   8.510 -0.0900 -0.1821 -0.1368
  236loPI   C1A 3767  17.323  18.078   8.412 -0.1125  0.3231 -0.1067
  236loPI   C2A 3768  17.174  17.967   7.963 -0.0071 -0.1485 -0.1385
  236loPI   C3A 3769  17.352  17.977   7.505 -0.0739 -0.1524 -0.0863
  236loPI   C4A 3770  17.097  18.079   7.095 -0.0289 -0.3249 -0.0516
  236loPI   C5A 3771  16.838  18.416   7.011  0.1036  0.2254  0.0502
  236loPI   C6A 3772  16.941  18.672   7.124 -0.1454  0.0868  0.1362
  236loPI   C1B 3773  18.063  18.270   8.184  0.0364 -0.0980  0.0790
  236loPI   C2B 3774  18.121  18.175   7.710 -0.2254  0.4739 -0.0378
  236loPI   C3B 3775  18.192  18.172   7.186  0.1885  0.0891  0.0019
  236loPI   C4B 3776  18.107  17.748   6.949 -0.4144  0.2293  0.2925
  237loPI    C1 3777   6.285  11.824   9.971  0.1380 -0.1237  0.0549
  237loPI    C2 3778   6.263  12.064  10.291  0.2935 -0.0260 -0.0063
  237loPI    C3 3779   5.970  12.065  10.019  0.1219 -0.1676  0.1747
  237loPI   PO4 3780   6.537  11.902   9.838 -0.1982 -0.0108 -0.2971
  237loPI   GL1 3781   6.682  11.957   9.462  0.1192 -0.1092 -0.1400
  237loPI   GL2 3782   6.851  12.115   9.490  0.0209 -0.0478 -0.0727
  237loPI   C1A 3783   6.650  11.749   9.100 -0.3194  0.1593  0.0112
  237loPI   C2A 3784   6.587  11.753   8.682  0.1087  0.0415 -0.1769
  237loPI   C3A 3785   6.654  11.855   8.355 -0.1075 -0.4456 -0.0497
  237loPI   C4A 3786   6.721  12.076   7.921  0.1936 -0.2680  0.2571
  237loPI   C5A 3787   6.805  11.845   7.534  0.0136 -0.1256 -0.0859
  237loPI   C6A 3788   6.801  11.512   7.207 -0.2039  0.0153  0.0455
  237loPI   C1B 3789   6.712  12.352   9.110  0.0680 -0.0110  0.1640
  237loPI   C2B 3790   6.577  12.217   8.727  0.0517  0.1074 -0.0966
  237loPI   C3B 3791   6.405  12.358   8.324  0.1342  0.1974  0.2614
  237loPI   C4B 3792   6.390  12.498   7.979 -0.0126 -0.2077  0.1700
  238loPI    C1 3793  11.252  16.284   9.598  0.0405 -0.2710 -0.1050
  238loPI    C2 3794  11.119  16.295   9.975  0.1886 -0.0385 -0.0576
  238loPI    C3 3795  11.189  15.944   9.798  0.1678 -0.1480  0.1490
  238loPI   PO4 3796  11.129  16.475   9.517 -0.1264 -0.0089 -0.1667
  238loPI   GL1 3797  10.942  16.464   9.197 -0.1193 -0.0794 -0.0570
  238loPI   GL2 3798  10.963  16.118   9.204 -0.1695  0.0481  0.3240
  238loPI   C1A 3799  11.000  16.478   8.714  0.0068  0.4883 -0.1061
  238loPI   C2A 3800  10.952  16.502   8.244 -0.2472  0.2451  0.2354
  238loPI   C3A 3801  10.785  16.502   7.757 -0.1523 -0.2990 -0.1780
  238loPI   C4A 3802  11.077  16.840   7.573  0.1963  0.0037  0.1009
  238loPI   C5A 3803  11.415  17.108   7.383  0.0849  0.0832 -0.0814
  238loPI   C6A 3804  11.862  17.081   7.236  0.2070 -0.2071  0.1206
  238loPI   C1B 3805  10.752  16.064   8.851  0.0206 -0.1780 -0.2313
  238loPI   C2B 3806  10.719  16.115   8.435 -0.0139  0.0664  0.2703
  238loPI   C3B 3807  11.003  16.009   8.067  0.2477 -0.1298  0.2795
  238loPI   C4B 3808  11.029  16.104   7.676  0.1086 -0.0363  0.2650
  239loPI    C1 3809   1.588   6.758   9.632  0.1543 -0.2379 -0.0440
  239loPI    C2 3810   1.692   6.622   9.994 -0.2162 -0.0568  0.1368
  239loPI    C3 3811   1.322   6.760   9.931 -0.0480  0.2526 -0.2171
  239loPI   PO4 3812   1.579   6.577   9.479  0.1863 -0.0760 -0.3039
  239loPI   GL1 3813   1.427   6.575   9.010  0.0264 -0.2335  0.2475
  239loPI   GL2 3814   1.266   6.771   8.756  0.0474 -0.0026  0.1077
  239loPI   C1A 3815   1.743   6.525   8.756  0.1592  0.5487  0.2105
  239loPI   C2A 3816   1.803   6.580   8.302  0.0740 -0.0010  0.0762
  239loPI   C3A 3817   1.715   6.808   8.044 -0.2817  0.6202  0.1012
  239loPI   C4A 3818   1.611   7.138   7.716  0.3602 -0.1269  0.0768
  239loPI   C5A 3819   1.564   7.559   7.336 -0.1994 -0.3183  0.0109
  239loPI   C6A 3820   1.553   7.907   6.951  0.0298 -0.1987 -0.3137
  239loPI   C1B 3821   0.882   6.705   8.488 -0.0097  0.2004  0.0689
  239loPI   C2B 3822   0.710   6.313   8.406  0.0721 -0.1334  0.1749
  239loPI   C3B 3823   0.464   6.177   8.096  0.1784  0.1237  0.0386
  239loPI   C4B 3824   0.215   6.150   7.827 -0.1154 -0.1026  0.3254
  240loPI    C1 3825  11.611  16.873  10.419 -0.0055 -0.0746 -0.2943
  240loPI    C2 3826  11.382  16.555  10.342 -0.1431 -0.0745  0.0950
  240loPI    C3 3827  11.623  16.555  10.661  0.1401  0.0651 -0.1146
  240loPI   PO4 3828  11.737  16.993  10.198  0.2749  0.0853 -0.2523
  240loPI   GL1 3829  11.773  17.029   9.668  0.2109  0.1073  0.0690
  240loPI   GL2 3830  12.090  16.947   9.427 -0.2591  0.0654 -0.1020
  240loPI   C1A 3831  11.705  17.082   9.152 -0.3177  0.2612 -0.1454
  240loPI   C2A 3832  11.765  17.060   8.757 -0.0138 -0.1172 -0.2079
  240loPI   C3A 3833  11.872  17.120   8.343  0.1858 -0.1133 -0.3258
  240loPI   C4A 3834  12.151  17.137   7.913  0.0384 -0.1148  0.2071
  240loPI   C5A 3835  12.271  17.125   7.464 -0.2223 -0.0524  0.1238
  240loPI   C6A 3836  12.419  16.938   7.140 -0.4399 -0.2155  0.4185
  240loPI   C1B 3837  12.230  17.280   9.180 -0.1336 -0.0410 -0.0409
  240loPI   C2B 3838  12.210  17.604   8.848 -0.2426  0.1245 -0.0813
  240loPI   C3B 3839  12.270  17.441   8.429  0.0159  0.1587  0.2847
  240loPI   C4B 3840  12.665  17.214   8.430  0.0568 -0.2618  0.2931
  241loPI    C1 3841   9.070  15.028  10.002 -0.1014 -0.1688  0.0910
  241loPI    C2 3842   9.370  15.233  10.170 -0.1120 -0.0492 -0.0343
  241loPI    C3 3843   9.021  15.197  10.361 -0.1093  0.0486 -0.0105
  241loPI   PO4 3844   9.186  15.179   9.676 -0.3925 -0.0657 -0.1672
  241loPI   GL1 3845   9.298  15.040   9.203 -0.1682  0.0506 -0.3388
  241loPI   GL2 3846   9.563  15.035   8.934 -0.0526  0.3697 -0.0815
  241loPI   C1A 3847   9.113  15.323   8.867  0.1696  0.1491  0.0624
  241loPI   C2A 3848   9.112  15.436   8.413 -0.3222  0.0560  0.0899
  241loPI   C3A 3849   9.027  15.410   7.953  0.0391  0.1382 -0.0067
  241loPI   C4A 3850   8.759  15.483   7.645 -0.1386  0.1541  0.0973
  241loPI   C5A 3851   8.388  15.426   7.510 -0.2274  0.0961  0.0728
  241loPI   C6A 3852   8.072  15.148   7.424 -0.0889 -0.0735  0.0239
  241loPI   C1B 3853   9.527  15.020   8.563  0.0523 -0.1075  0.2278
  241loPI   C2B 3854   9.556  15.115   8.159  0.0689 -0.1223  0.2303
  241loPI   C3B 3855   9.515  14.932   7.860  0.0554  0.2604 -0.0134
  241loPI   C4B 3856   9.468  14.785   7.500  0.0479  0.1115 -0.1569
  242loPI    C1 3857  18.695  18.218   9.403 -0.3185  0.0045  0.0797
  242loPI    C2 3858  18.780  17.951   9.118  0.0427  0.2033 -0.0041
  242loPI    C3 3859  18.798  17.845   9.504 -0.0954  0.0316 -0.0436
  242loPI   PO4 3860  18.543  18.417   9.253 -0.0146 -0.1183  0.6273
  242loPI   GL1 3861  18.303  18.515   8.913  0.2459 -0.3970  0.0017
  242loPI   GL2 3862  18.237  18.137   8.827 -0.1030  0.1991  0.0621
  242loPI   C1A 3863  18.300  18.590   8.455 -0.1502 -0.4016  0.2255
  242loPI   C2A 3864  18.471  18.560   7.992 -0.2147 -0.0988 -0.2970
  242loPI   C3A 3865  18.595  18.242   7.683 -0.0045  0.1958 -0.0838
  242loPI   C4A 3866  18.697  18.012   7.312 -0.0249 -0.1435 -0.0160
  242loPI   C5A 3867  18.574  17.807   7.050 -0.0577 -0.2664 -0.0921
  242loPI   C6A 3868  18.906  17.723   6.837  0.2228 -0.1177 -0.0897
  242loPI   C1B 3869  18.478  18.066   8.415  0.1570  0.0930  0.1557
  242loPI   C2B 3870  18.351  17.896   8.045  0.0033  0.2305 -0.0126
  242loPI   C3B 3871  18.375  17.782   7.533  0.0798  0.0673 -0.1101
  242loPI   C4B 3872  18.408  17.400   7.222 -0.1506 -0.2601  0.0755
  243loPI    C1 3873  14.670   6.051   9.500 -0.1641  0.1265 -0.1050
  243loPI    C2 3874  14.758   5.664   9.452  0.1026  0.1761 -0.0331
  243loPI    C3 3875  14.721   5.817   9.820  0.0401  0.2280 -0.0608
  243loPI   PO4 3876  14.415   6.103   9.313  0.0589 -0.1116  0.0697
  243loPI   GL1 3877  14.374   6.033   8.953  0.4152  0.0052 -0.2246
  243loPI   GL2 3878  14.263   6.220   8.775  0.0358 -0.0116 -0.1919
  243loPI   C1A 3879  14.443   5.754   8.562 -0.0465 -0.1982  0.2074
  243loPI   C2A 3880  14.297   5.605   8.143  0.1756 -0.1409 -0.3071
  243loPI   C3A 3881  14.066   5.465   7.801  0.0728  0.0266 -0.0049
  243loPI   C4A 3882  14.044   5.094   7.660  0.2046 -0.2451  0.0419
  243loPI   C5A 3883  14.281   4.806   7.406  0.3457  0.3210  0.1772
  243loPI   C6A 3884  14.176   4.638   6.892  0.0437 -0.2967 -0.6404
  243loPI   C1B 3885  14.101   6.106   8.372 -0.2778  0.0030 -0.2220
  243loPI   C2B 3886  14.108   5.977   7.866 -0.0321  0.0749 -0.2923
  243loPI   C3B 3887  14.049   5.795   7.422  0.0073 -0.0652 -0.0277
  243loPI   C4B 3888  13.664   5.797   7.290 -0.3283 -0.0577  0.2001
  244loPI    C1 3889  16.147  11.287   9.835 -0.0321  0.1681  0.0235
  244loPI    C2 3890  16.006  11.192  10.197 -0.2215  0.0506 -0.0789
  244loPI    C3 3891  15.982  11.569  10.065  0.0356  0.1367  0.1110
  244loPI   PO4 3892  16.089  11.175   9.657 -0.0270  0.1554  0.1656
  244loPI   GL1 3893  16.280  11.022   9.209  0.2103  0.1323 -0.1437
  244loPI   GL2 3894  16.110  10.962   9.104 -0.0453  0.0503  0.0334
  244loPI   C1A 3895  16.371  11.316   8.813  0.2309 -0.1949  0.4298
  244loPI   C2A 3896  16.097  11.278   8.460 -0.0547  0.3568 -0.0681
  244loPI   C3A 3897  15.804  11.493   8.076  0.0208  0.1049  0.1708
  244loPI   C4A 3898  15.826  11.461   7.623  0.1471  0.0641  0.2935
  244loPI   C5A 3899  16.154  11.533   7.320 -0.0318  0.0258 -0.0531
  244loPI   C6A 3900  16.553  11.469   7.286 -0.0884  0.1579 -0.2776
  244loPI   C1B 3901  16.046  10.620   8.847 -0.2322 -0.7262  0.1786
  244loPI   C2B 3902  16.024  10.728   8.399  0.0145 -0.0165 -0.0258
  244loPI   C3B 3903  16.006  11.052   7.946 -0.1415  0.2217  0.3022
  244loPI   C4B 3904  16.315  11.321   7.722  0.0686 -0.1555 -0.1731
  245loPI    C1 3905   3.659   4.901   9.613 -0.0561  0.1718  0.0965
  245loPI    C2 3906   3.935   5.177   9.527  0.0066  0.1108  0.1013
  245loPI    C3 3907   3.560   5.288   9.611  0.0302  0.1940  0.0970
  245loPI   PO4 3908   3.631   4.792   9.332  0.4526  0.3361  0.0052
  245loPI   GL1 3909   3.807   4.531   9.019  0.1174  0.0208  0.1340
  245loPI   GL2 3910   4.172   4.440   8.886  0.0173  0.2643 -0.1321
  245loPI   C1A 3911   3.693   4.340   8.752  0.0703  0.3744 -0.2146
  245loPI   C2A 3912   3.724   3.953   8.535  0.4261 -0.0475  0.0250
  245loPI   C3A 3913   3.768   3.908   8.043  0.1203 -0.2340 -0.3183
  245loPI   C4A 3914   3.737   3.936   7.671  0.4089 -0.0254  0.0523
  245loPI   C5A 3915   3.823   3.825   7.190  0.1677  0.1723  0.1529
  245loPI   C6A 3916   4.030   3.565   6.905 -0.0910 -0.2323 -0.1701
  245loPI   C1B 3917   4.073   4.407   8.468  0.0790  0.0052 -0.0436
  245loPI   C2B 3918   3.823   4.444   8.190 -0.1388 -0.1991  0.1644
  245loPI   C3B 3919   3.659   4.539   7.767  0.2361  0.0524 -0.0390
  245loPI   C4B 3920   3.730   4.341   7.321  0.1153 -0.4084  0.1694
  246loPI    C1 3921  16.999  19.146   8.972 -0.1455 -0.2368  0.0936
  246loPI    C2 3922  17.157  19.283   9.313 -0.0183 -0.3347  0.0747
  246loPI    C3 3923  16.781  19.147   9.308 -0.1535  0.0266  0.0898
  246loPI   PO4 3924  17.073  19.352   8.757  0.0060  0.1980 -0.0840
  246loPI   GL1 3925  17.135  19.259   8.317 -0.3159  0.0090  0.3750
  246loPI   GL2 3926  16.828  19.395   8.311 -0.0971  0.3763  0.0880
  246loPI   C1A 3927  17.003  18.992   8.033  0.0289  0.0541 -0.1060
  246loPI   C2A 3928  17.077  18.919   7.588  0.1434 -0.0487  0.0306
  246loPI   C3A 3929  17.408  18.933   7.211 -0.3006  0.0639  0.0265
  246loPI   C4A 3930  17.790  18.771   7.058  0.0456 -0.0105 -0.2427
  246loPI   C5A 3931  18.206  18.640   6.950 -0.2385  0.2715  0.0127
  246loPI   C6A 3932  18.397  18.942   6.673 -0.0877  0.2329  0.2108
  246loPI   C1B 3933  16.830  19.426   7.906  0.3074  0.0872  0.2022
  246loPI   C2B 3934  16.570  19.436   7.610  0.0415  0.0943 -0.2095
  246loPI   C3B 3935  16.583  19.596   7.171 -0.0078  0.2021  0.2035
  246loPI   C4B 3936  16.770  19.449   6.806 -0.1882 -0.2873 -0.2106
  247loPI    C1 3937  10.610  13.731   9.593 -0.0673  0.1254  0.0885
  247loPI    C2 3938  10.281  13.597   9.777 -0.0080 -0.1938 -0.0306
  247loPI    C3 3939  10.632  13.418   9.841  0.1061  0.0145 -0.0644
  247loPI   PO4 3940  10.494  13.794   9.342 -0.2815 -0.1210  0.0678
  247loPI   GL1 3941  10.261  13.490   9.083 -0.1763 -0.1419  0.1079
  247loPI   GL2 3942  10.106  13.700   8.981  0.3527 -0.7981 -0.1447
  247loPI   C1A 3943  10.355  13.284   8.775 -0.0256 -0.0219  0.0115
  247loPI   C2A 3944  10.261  13.192   8.367 -0.0489  0.1465 -0.0153
  247loPI   C3A 3945  10.085  13.217   7.972 -0.1272 -0.2113  0.0490
  247loPI   C4A 3946  10.126  13.545   7.652 -0.0251 -0.1378 -0.0313
  247loPI   C5A 3947  10.054  13.641   7.321 -0.2572 -0.1033  0.3806
  247loPI   C6A 3948   9.817  13.973   7.153  0.0363 -0.2390  0.2443
  247loPI   C1B 3949  10.085  13.660   8.557  0.0973  0.0887 -0.1600
  247loPI   C2B 3950   9.879  13.705   8.175  0.3212  0.0029  0.3249
  247loPI   C3B 3951   9.695  13.563   7.807  0.0520 -0.1505 -0.2077
  247loPI   C4B 3952   9.475  13.547   7.381 -0.1960  0.1159  0.0347
  248loPI    C1 3953  13.822   9.245   9.883  0.1833  0.2319  0.0668
  248loPI    C2 3954  13.652   8.976  10.126  0.1985  0.2027  0.0450
  248loPI    C3 3955  13.718   9.349  10.255  0.1189  0.2137  0.0541
  248loPI   PO4 3956  14.069   9.067   9.741 -0.1646  0.0607  0.0311
  248loPI   GL1 3957  14.067   9.039   9.278 -0.4203  0.0836 -0.2406
  248loPI   GL2 3958  14.396   8.957   9.424  0.0700  0.0744 -0.0610
  248loPI   C1A 3959  13.834   9.065   8.832  0.0758 -0.0746  0.2106
  248loPI   C2A 3960  13.356   8.996   8.592 -0.2054 -0.2784 -0.1237
  248loPI   C3A 3961  13.016   8.979   8.204 -0.0841 -0.0442  0.0207
  248loPI   C4A 3962  12.839   8.866   7.792 -0.3654  0.0819  0.1654
  248loPI   C5A 3963  13.054   8.758   7.446  0.0900  0.2914  0.0679
  248loPI   C6A 3964  13.022   8.448   7.157 -0.0702 -0.0445  0.1776
  248loPI   C1B 3965  14.496   8.996   8.972 -0.0134  0.3448 -0.1443
  248loPI   C2B 3966  14.722   9.099   8.566  0.0797  0.0603  0.1216
  248loPI   C3B 3967  14.800   9.031   8.197 -0.2506  0.0665 -0.2002
  248loPI   C4B 3968  14.655   9.038   7.728  0.2395  0.0082  0.0909
  249loPI    C1 3969  13.975   7.890   9.591 -0.1120 -0.0189  0.0613
  249loPI    C2 3970  13.806   8.001   9.936 -0.2311 -0.1278  0.0390
  249loPI    C3 3971  14.111   7.743   9.937 -0.1955 -0.0858  0.0661
  249loPI   PO4 3972  14.063   8.089   9.505 -0.1952 -0.2531 -0.0164
  249loPI   GL1 3973  14.173   8.237   9.048  0.1690  0.4000  0.1707
  249loPI   GL2 3974  14.300   8.497   9.175  0.0088  0.1747  0.0680
  249loPI   C1A 3975  14.125   8.152   8.741 -0.0750  0.1588  0.0888
  249loPI   C2A 3976  13.978   8.280   8.340  0.0144 -0.3252  0.1392
  249loPI   C3A 3977  13.831   8.312   7.953  0.0747  0.0029  0.2363
  249loPI   C4A 3978  13.667   8.361   7.519 -0.1404 -0.2353 -0.0147
  249loPI   C5A 3979  13.520   8.151   7.129 -0.1445  0.0326  0.0646
  249loPI   C6A 3980  13.556   7.667   6.982 -0.0927  0.1806  0.0358
  249loPI   C1B 3981  14.141   8.711   8.804  0.2247 -0.1011  0.0276
  249loPI   C2B 3982  14.202   8.944   8.424 -0.2172  0.0088 -0.3219
  249loPI   C3B 3983  14.357   9.220   8.152 -0.0877  0.0339 -0.1388
  249loPI   C4B 3984  14.106   9.593   8.088 -0.0768  0.1946 -0.1810
  250loPI    C1 3985  13.577  16.618   9.820 -0.0159 -0.2121 -0.0492
  250loPI    C2 3986  13.933  16.639  10.002 -0.1584  0.0440  0.2082
  250loPI    C3 3987  13.688  16.955  10.005 -0.4008 -0.1390  0.0568
  250loPI   PO4 3988  13.629  16.551   9.539  0.1139 -0.1724  0.2655
  250loPI   GL1 3989  13.593  16.844   9.172  0.2212  0.1658  0.1222
  250loPI   GL2 3990  13.664  17.049   8.997 -0.1444 -0.0668  0.1291
  250loPI   C1A 3991  13.862  16.591   8.853 -0.3378 -0.0655  0.0195
  250loPI   C2A 3992  13.927  16.548   8.408 -0.0533 -0.0202 -0.1482
  250loPI   C3A 3993  13.763  16.765   8.063  0.1610 -0.0200  0.1602
  250loPI   C4A 3994  13.968  17.108   7.905  0.0394  0.1996  0.1345
  250loPI   C5A 3995  13.785  17.296   7.587  0.1051 -0.1306 -0.1642
  250loPI   C6A 3996  13.480  17.660   7.548  0.1981  0.3006  0.2632
  250loPI   C1B 3997  13.721  17.082   8.552 -0.3965 -0.1736  0.3265
  250loPI   C2B 3998  13.844  17.408   8.422 -0.0767  0.0970 -0.1981
  250loPI   C3B 3999  13.823  17.621   8.022 -0.1870 -0.1509 -0.0438
  250loPI   C4B 4000  13.915  17.847   7.650  0.0214 -0.1309  0.1523
  251loPI    C1 4001  13.478  18.894   9.878 -0.0200 -0.3787 -0.1664
  251loPI    C2 4002  13.850  19.024   9.810 -0.1476  0.0997  0.0110
  251loPI    C3 4003  13.760  18.848  10.158 -0.0577 -0.1449 -0.0876
  251loPI   PO4 4004  13.375  18.803   9.779  0.1144 -0.1226 -0.1245
  251loPI   GL1 4005  13.036  18.714   9.469  0.1522 -0.1067  0.3200
  251loPI   GL2 4006  13.099  18.332   9.481 -0.1017 -0.2281  0.0077
  251loPI   C1A 4007  12.794  18.399   9.074 -0.2711  0.0698  0.4088
  251loPI   C2A 4008  12.634  18.325   8.682 -0.1343  0.0523  0.0932
  251loPI   C3A 4009  12.591  18.231   8.234 -0.1587  0.1747  0.1733
  251loPI   C4A 4010  12.685  18.642   7.986 -0.0648  0.4679  0.0980
  251loPI   C5A 4011  12.482  19.116   8.031 -0.1144  0.0605  0.1599
  251loPI   C6A 4012  12.235  19.336   7.728 -0.1614  0.1229 -0.2055
  251loPI   C1B 4013  12.821  18.022   9.426 -0.1495 -0.1486 -0.0049
  251loPI   C2B 4014  12.791  17.672   9.159  0.0927 -0.0123  0.1552
  251loPI   C3B 4015  12.677  17.291   8.939  0.0308  0.3493  0.2802
  251loPI   C4B 4016  12.400  16.981   8.808  0.2504 -0.1548  0.1477
  252loPI    C1 4017  17.827   6.673   9.807 -0.2675 -0.0894 -0.1044
  252loPI    C2 4018  17.928   7.058   9.849 -0.3682 -0.0646 -0.0870
  252loPI    C3 4019  17.878   6.828  10.172 -0.4806 -0.0472 -0.0916
  252loPI   PO4 4020  17.926   6.638   9.550 -0.4703  0.1486  0.1381
  252loPI   GL1 4021  17.899   6.643   9.101 -0.0115 -0.1601  0.0261
  252loPI   GL2 4022  17.641   6.682   9.022  0.1891 -0.0700  0.2937
  252loPI   C1A 4023  17.975   6.283   8.762 -0.1544 -0.4238 -0.1450
  252loPI   C2A 4024  18.024   6.001   8.467  0.3184  0.2883  0.1351
  252loPI   C3A 4025  17.978   6.018   7.988 -0.0585 -0.0441  0.1605
  252loPI   C4A 4026  17.621   6.245   7.721  0.0739  0.4503  0.2357
  252loPI   C5A 4027  17.487   6.214   7.329 -0.0867 -0.0076 -0.1033
  252loPI   C6A 4028  17.265   6.206   6.972  0.2114  0.2690 -0.0912
  252loPI   C1B 4029  17.636   6.678   8.527  0.1134 -0.3161 -0.4090
  252loPI   C2B 4030  17.451   7.073   8.219 -0.0524  0.0451  0.1050
  252loPI   C3B 4031  17.570   7.424   8.023  0.2179 -0.3140 -0.0969
  252loPI   C4B 4032  17.434   7.677   7.763  0.1417 -0.1611 -0.0684
  253loPI    C1 4033   0.162   7.442   9.688  0.1308  0.1938 -0.1471
  253loPI    C2 4034   0.521   7.379   9.854  0.1031  0.1241 -0.1135
  253loPI    C3 4035   0.294   7.068   9.742 -0.1264  0.1546  0.2505
  253loPI   PO4 4036   0.254   7.713   9.527 -0.0687 -0.1358  0.2275
  253loPI   GL1 4037  -0.092   7.893   9.173 -0.1692 -0.2858  0.1371
  253loPI   GL2 4038  -0.296   7.892   8.945  0.0298  0.0816  0.3266
  253loPI   C1A 4039   0.046   8.103   8.704  0.3433 -0.3192 -0.1231
  253loPI   C2A 4040  -0.021   8.210   8.264  0.1303  0.1066  0.1577
  253loPI   C3A 4041  -0.065   8.307   7.798  0.3473  0.3792  0.4711
  253loPI   C4A 4042  -0.099   8.435   7.405  0.3183  0.0934  0.2309
  253loPI   C5A 4043  -0.382   8.630   7.294 -0.2394  0.0119  0.0225
  253loPI   C6A 4044  -0.793   8.571   7.233  0.1015  0.4303  0.1436
  253loPI   C1B 4045  -0.454   8.130   8.533  0.0544 -0.0082 -0.4160
  253loPI   C2B 4046  -0.493   8.303   8.092  0.1680 -0.0140  0.0293
  253loPI   C3B 4047  -0.452   8.587   7.832  0.1666 -0.1166 -0.2930
  253loPI   C4B 4048  -0.091   8.800   7.757  0.0740 -0.0839 -0.2593
  254loPI    C1 4049  17.138  17.617   9.746  0.0386  0.1419 -0.1721
  254loPI    C2 4050  17.440  17.879   9.746  0.1825 -0.0209 -0.0102
  254loPI    C3 4051  17.105  17.960   9.949  0.0729  0.2063 -0.2748
  254loPI   PO4 4052  17.169  17.593   9.458  0.1056  0.1020  0.2371
  254loPI   GL1 4053  17.202  17.405   8.968  0.0481 -0.2617 -0.0746
  254loPI   GL2 4054  17.351  17.651   8.838  0.1354  0.2873 -0.1611
  254loPI   C1A 4055  16.781  17.312   8.748 -0.0550  0.1404 -0.0628
  254loPI   C2A 4056  16.771  17.013   8.357 -0.1364 -0.0835 -0.6454
  254loPI   C3A 4057  16.624  16.941   7.950  0.4183  0.0470 -0.0045
  254loPI   C4A 4058  16.394  17.021   7.568  0.0029 -0.1151  0.0135
  254loPI   C5A 4059  16.077  16.971   7.311 -0.4899  0.1786 -0.1062
  254loPI   C6A 4060  15.809  16.877   6.930 -0.0694 -0.0010  0.1267
  254loPI   C1B 4061  17.157  17.580   8.405  0.1138 -0.0776  0.3021
  254loPI   C2B 4062  17.023  17.348   8.079 -0.2271 -0.1981 -0.1901
  254loPI   C3B 4063  16.855  17.269   7.621  0.0358  0.0127 -0.0264
  254loPI   C4B 4064  16.927  17.130   7.188 -0.3275  0.2149 -0.0824
  255loPI    C1 4065  12.536   7.308  10.068  0.1298  0.0477 -0.1703
  255loPI    C2 4066  12.877   7.099  10.043  0.0438 -0.1317  0.1111
  255loPI    C3 4067  12.668   7.101  10.384 -0.2234  0.0006 -0.0498
  255loPI   PO4 4068  12.541   7.435   9.724  0.0320 -0.0800  0.1719
  255loPI   GL1 4069  12.392   7.176   9.315  0.1008  0.0256 -0.2359
  255loPI   GL2 4070  12.382   7.537   9.156  0.2424 -0.1217 -0.1394
  255loPI   C1A 4071  12.355   7.233   8.795 -0.0966  0.1936  0.0695
  255loPI   C2A 4072  12.516   7.019   8.342  0.0327  0.1952 -0.1242
  255loPI   C3A 4073  12.495   6.902   7.933 -0.1165 -0.1285 -0.0940
  255loPI   C4A 4074  12.776   6.844   7.506 -0.0123 -0.0398  0.3205
  255loPI   C5A 4075  13.114   6.824   7.122 -0.2556 -0.0093  0.3001
  255loPI   C6A 4076  13.201   6.711   6.751  0.0147  0.2876 -0.0728
  255loPI   C1B 4077  12.216   7.671   8.684 -0.0441  0.2474 -0.0153
  255loPI   C2B 4078  12.265   7.464   8.215 -0.1339  0.1061  0.0792
  255loPI   C3B 4079  12.413   7.412   7.697  0.4145  0.2108  0.0321
  255loPI   C4B 4080  12.433   7.754   7.357 -0.1715  0.1735  0.0709
  256loPI    C1 4081  11.780   5.118   9.960  0.0402 -0.2730  0.0361
  256loPI    C2 4082  11.394   5.025  10.009 -0.0901  0.1353 -0.1655
  256loPI    C3 4083  11.546   5.346  10.192  0.1602 -0.0309 -0.0771
  256loPI   PO4 4084  11.792   5.152   9.769  0.1267 -0.0508 -0.0452
  256loPI   GL1 4085  11.667   5.052   9.371 -0.0200  0.2296  0.0905
  256loPI   GL2 4086  11.943   4.832   9.166 -0.2559 -0.1540  0.0635
  256loPI   C1A 4087  11.253   5.083   9.065  0.0087  0.3256  0.2978
  256loPI   C2A 4088  11.072   5.103   8.683 -0.1141 -0.2225  0.1823
  256loPI   C3A 4089  10.815   5.068   8.286 -0.2949 -0.0603  0.1708
  256loPI   C4A 4090  10.782   5.323   8.018  0.0887 -0.0997 -0.2179
  256loPI   C5A 4091  11.040   5.652   7.635 -0.0236  0.1820  0.0258
  256loPI   C6A 4092  11.052   6.016   7.399 -0.0273  0.1322 -0.0720
  256loPI   C1B 4093  11.767   4.958   8.785  0.1556 -0.0166  0.3229
  256loPI   C2B 4094  11.536   4.988   8.404  0.1508  0.1927  0.0247
  256loPI   C3B 4095  11.277   5.103   8.073 -0.0197  0.1079 -0.2577
  256loPI   C4B 4096  11.319   5.113   7.659 -0.2160 -0.4243 -0.1977
  257loPI    C1 4097  16.931   2.259   9.551  0.0982 -0.0293  0.0972
  257loPI    C2 4098  16.886   2.062   9.896  0.0053 -0.0711  0.0614
  257loPI    C3 4099  17.191   2.316   9.850  0.0973 -0.1686  0.1255
  257loPI   PO4 4100  16.681   2.302   9.498  0.3607 -0.2457 -0.2065
  257loPI   GL1 4101  16.566   2.553   9.054 -0.0076 -0.1753  0.4535
  257loPI   GL2 4102  16.219   2.592   9.088 -0.0148 -0.0205 -0.0899
  257loPI   C1A 4103  16.612   2.295   8.641  0.1510  0.2875 -0.2314
  257loPI   C2A 4104  16.794   2.372   8.183 -0.1349  0.1058  0.0576
  257loPI   C3A 4105  16.795   2.439   7.715 -0.3998  0.1122  0.4168
  257loPI   C4A 4106  16.669   2.660   7.392 -0.0185 -0.0664 -0.1266
  257loPI   C5A 4107  16.548   2.864   7.030  0.1771  0.0892  0.0556
  257loPI   C6A 4108  16.134   2.815   6.787  0.0300 -0.2562 -0.2382
  257loPI   C1B 4109  16.118   2.544   8.664 -0.0717  0.3516 -0.2151
  257loPI   C2B 4110  16.302   2.486   8.307  0.2428  0.2434  0.2975
  257loPI   C3B 4111  16.400   2.680   7.876 -0.2419  0.1265 -0.1252
  257loPI   C4B 4112  16.158   2.828   7.471 -0.2383  0.0549 -0.0308
  258loPI    C1 4113  15.643   7.090   9.439  0.2956 -0.0221  0.0745
  258loPI    C2 4114  15.697   6.922   9.798 -0.1056 -0.0691  0.1176
  258loPI    C3 4115  15.574   7.302   9.771 -0.0679 -0.0627  0.0290
  258loPI   PO4 4116  15.869   6.948   9.329 -0.0282 -0.0169  0.1507
  258loPI   GL1 4117  15.742   6.791   8.995 -0.3095  0.2154 -0.1138
  258loPI   GL2 4118  16.093   6.975   8.870  0.1267 -0.2684 -0.0208
  258loPI   C1A 4119  15.609   6.701   8.657  0.0476 -0.0690  0.0158
  258loPI   C2A 4120  15.426   6.702   8.198 -0.6102  0.0730 -0.1452
  258loPI   C3A 4121  15.310   6.828   7.694 -0.0915  0.0798  0.2762
  258loPI   C4A 4122  15.319   7.045   7.282 -0.3237 -0.0522 -0.0528
  258loPI   C5A 4123  15.454   7.062   6.779 -0.1708 -0.2822 -0.1345
  258loPI   C6A 4124  15.649   7.355   6.620 -0.0816  0.0691  0.1107
  258loPI   C1B 4125  15.994   6.924   8.384  0.0575 -0.2454  0.0612
  258loPI   C2B 4126  15.954   7.202   8.038  0.0253  0.1921 -0.0148
  258loPI   C3B 4127  16.074   7.073   7.509 -0.0310 -0.2540  0.1210
  258loPI   C4B 4128  15.854   7.207   7.110  0.1917 -0.0556 -0.0094
  259loPI    C1 4129  15.463   1.017   9.562  0.1383  0.0143 -0.0738
  259loPI    C2 4130  15.542   1.409   9.553  0.1156  0.0212  0.0196
  259loPI    C3 4131  15.693   1.180   9.845  0.1222 -0.0384 -0.0302
  259loPI   PO4 4132  15.511   0.927   9.322 -0.0082  0.2350  0.1647
  259loPI   GL1 4133  15.214   0.918   8.976 -0.1572  0.3450  0.2439
  259loPI   GL2 4134  15.312   1.327   9.123 -0.0061  0.1484  0.1351
  259loPI   C1A 4135  14.889   1.023   8.725  0.0330 -0.0012 -0.0705
  259loPI   C2A 4136  14.973   1.153   8.355  0.2680 -0.1580  0.0093
  259loPI   C3A 4137  14.903   1.276   7.916  0.2815 -0.1369  0.0933
  259loPI   C4A 4138  14.710   1.406   7.641  0.2849  0.3191  0.2647
  259loPI   C5A 4139  14.709   1.535   7.161  0.0505 -0.1013  0.0462
  259loPI   C6A 4140  14.733   1.571   6.635  0.1726  0.1471 -0.2334
  259loPI   C1B 4141  15.390   1.259   8.659  0.3274  0.1225 -0.1275
  259loPI   C2B 4142  15.428   1.332   8.241  0.1148  0.1798  0.3261
  259loPI   C3B 4143  15.394   1.453   7.765 -0.3775 -0.0171  0.1298
  259loPI   C4B 4144  15.510   1.645   7.435  0.1778  0.0064  0.0005
  260loPI    C1 4145   5.186   6.053   9.541  0.2660 -0.0925  0.1984
  260loPI    C2 4146   5.269   6.328   9.819  0.2432  0.0105  0.1042
  260loPI    C3 4147   4.928   6.120   9.839  0.1394  0.1718  0.0333
  260loPI   PO4 4148   5.274   6.059   9.338 -0.1846 -0.0318  0.1815
  260loPI   GL1 4149   5.296   5.971   8.924 -0.1832 -0.0764  0.0890
  260loPI   GL2 4150   5.057   5.804   8.957  0.1855  0.2452  0.1103
  260loPI   C1A 4151   5.476   6.145   8.550  0.0746  0.2102 -0.4770
  260loPI   C2A 4152   5.510   6.249   8.080 -0.0524 -0.0026 -0.1205
  260loPI   C3A 4153   5.599   6.105   7.705  0.1418 -0.0015 -0.0728
  260loPI   C4A 4154   5.668   6.051   7.299  0.1491 -0.6142  0.1469
  260loPI   C5A 4155   5.664   5.874   6.972 -0.2074  0.0424  0.3736
  260loPI   C6A 4156   5.907   5.925   6.648 -0.0337  0.0834  0.0994
  260loPI   C1B 4157   4.942   6.042   8.490  0.1002 -0.3136 -0.3091
  260loPI   C2B 4158   4.909   6.220   8.184 -0.2009  0.2541 -0.0247
  260loPI   C3B 4159   5.078   6.307   7.767 -0.2791 -0.0422 -0.4421
  260loPI   C4B 4160   5.328   6.446   7.470 -0.0528 -0.2162 -0.0929
  261loPI    C1 4161   7.751   2.892   9.941  0.1509 -0.2700 -0.1398
  261loPI    C2 4162   7.431   3.049  10.122  0.2717 -0.0139 -0.1440
  261loPI    C3 4163   7.630   2.747  10.293 -0.0230 -0.2347 -0.1844
  261loPI   PO4 4164   7.911   3.111   9.835 -0.1165  0.0713  0.0653
  261loPI   GL1 4165   8.112   3.138   9.413 -0.4563 -0.3545  0.1147
  261loPI   GL2 4166   8.215   2.781   9.660 -0.1894 -0.1126  0.0854
  261loPI   C1A 4167   8.221   2.760   9.154 -0.0390  0.5398 -0.1464
  261loPI   C2A 4168   8.202   2.592   8.754  0.1047 -0.1302 -0.1648
  261loPI   C3A 4169   8.363   2.533   8.470 -0.1936  0.0277  0.1206
  261loPI   C4A 4170   8.437   2.470   8.173  0.0701 -0.0786  0.0862
  261loPI   C5A 4171   8.586   2.388   7.808  0.1379 -0.2132  0.1280
  261loPI   C6A 4172   8.666   2.635   7.343  0.0091  0.0575  0.1445
  261loPI   C1B 4173   8.095   2.338   9.477 -0.1817  0.3519 -0.2738
  261loPI   C2B 4174   7.762   2.334   9.142  0.2293 -0.1587  0.1981
  261loPI   C3B 4175   7.713   2.265   8.638 -0.1793 -0.1848 -0.3514
  261loPI   C4B 4176   7.910   2.275   8.322 -0.2287 -0.3768  0.0257
  262loPI    C1 4177   4.337  17.670   9.895 -0.1600 -0.1081  0.0554
  262loPI    C2 4178   4.692  17.587  10.060 -0.1188  0.1213  0.0865
  262loPI    C3 4179   4.400  17.747  10.282 -0.1813  0.1027  0.0183
  262loPI   PO4 4180   4.320  17.529   9.754 -0.0649  0.0059 -0.1708
  262loPI   GL1 4181   4.419  17.434   9.397  0.3525  0.1695 -0.0070
  262loPI   GL2 4182   4.262  17.585   9.201  0.0399  0.0644 -0.1052
  262loPI   C1A 4183   4.520  17.098   9.059  0.1731  0.1379 -0.3536
  262loPI   C2A 4184   4.318  16.988   8.786 -0.0686  0.1238  0.0625
  262loPI   C3A 4185   4.240  17.015   8.432  0.0090 -0.1857 -0.3931
  262loPI   C4A 4186   4.198  16.930   8.098  0.1086 -0.1717 -0.1591
  262loPI   C5A 4187   4.194  17.031   7.721 -0.0600  0.1360  0.1264
  262loPI   C6A 4188   4.125  17.115   7.276  0.0688 -0.0582 -0.1627
  262loPI   C1B 4189   4.242  17.464   8.808 -0.0192 -0.0553  0.1944
  262loPI   C2B 4190   4.260  17.556   8.400 -0.2688  0.2017  0.0977
  262loPI   C3B 4191   4.254  17.520   7.914 -0.0926 -0.0054 -0.1538
  262loPI   C4B 4192   3.932  17.539   7.497 -0.1457 -0.0064 -0.1277
  263loPI    C1 4193  12.029   0.598  10.640 -0.0428 -0.1188  0.0492
  263loPI    C2 4194  11.737   0.647  10.909  0.1588  0.0094  0.2484
  263loPI    C3 4195  12.014   0.364  10.964 -0.0043 -0.2048 -0.0109
  263loPI   PO4 4196  11.963   0.714  10.407 -0.0567  0.2131  0.1166
  263loPI   GL1 4197  12.190   0.886  10.092  0.0535 -0.0490 -0.0030
  263loPI   GL2 4198  12.364   0.713   9.784 -0.0704 -0.4360 -0.0996
  263loPI   C1A 4199  11.940   0.966   9.721  0.0160  0.0079  0.0167
  263loPI   C2A 4200  11.507   0.935   9.438 -0.3156  0.1284 -0.1813
  263loPI   C3A 4201  11.383   0.957   9.083 -0.0690 -0.0990  0.2340
  263loPI   C4A 4202  11.207   0.627   8.746  0.1213  0.0256 -0.1722
  263loPI   C5A 4203  10.809   0.451   8.553 -0.0736 -0.0722  0.3057
  263loPI   C6A 4204  10.757   0.294   8.221 -0.0454 -0.2354  0.0251
  263loPI   C1B 4205  12.325   1.071   9.374  0.1578 -0.0541 -0.1055
  263loPI   C2B 4206  12.384   1.138   8.973  0.0069  0.3248  0.1849
  263loPI   C3B 4207  12.376   1.140   8.566 -0.0365 -0.1058 -0.1499
  263loPI   C4B 4208  12.447   1.117   8.156 -0.1663 -0.1534  0.0178
  264loPI    C1 4209   8.942   1.847  10.377  0.0276 -0.1554  0.0169
  264loPI    C2 4210   8.660   2.108  10.489  0.0384 -0.0834 -0.1208
  264loPI    C3 4211   8.780   1.822  10.742 -0.0806 -0.0478 -0.0230
  264loPI   PO4 4212   9.077   2.010  10.199  0.1934  0.0427  0.0010
  264loPI   GL1 4213   9.263   1.961   9.835  0.0765  0.1497  0.0769
  264loPI   GL2 4214   9.122   1.669   9.744 -0.0199  0.1299  0.0595
  264loPI   C1A 4215   9.239   2.058   9.466 -0.1614  0.1460 -0.0636
  264loPI   C2A 4216   8.985   1.925   9.145  0.2181  0.0396 -0.1421
  264loPI   C3A 4217   8.845   1.762   8.680  0.1229 -0.2027 -0.0336
  264loPI   C4A 4218   8.644   1.789   8.322 -0.0547  0.2024  0.2197
  264loPI   C5A 4219   8.882   1.473   8.002 -0.1301 -0.1846  0.1133
  264loPI   C6A 4220   9.268   1.642   7.810 -0.0212 -0.2885  0.4144
  264loPI   C1B 4221   8.900   1.476   9.359  0.2205  0.1345 -0.0326
  264loPI   C2B 4222   8.974   1.297   8.861 -0.0459 -0.1831 -0.1845
  264loPI   C3B 4223   9.302   1.248   8.452  0.0077 -0.2221  0.0485
  264loPI   C4B 4224   9.562   1.292   8.034  0.0550  0.2310  0.1408
  265loPI    C1 4225  11.380  10.818   9.489  0.0896  0.1997  0.0003
  265loPI    C2 4226  11.516  11.054   9.781  0.1045  0.0900  0.0829
  265loPI    C3 4227  11.381  10.688   9.868  0.1715  0.0317 -0.0565
  265loPI   PO4 4228  11.520  10.880   9.314 -0.0669 -0.2709 -0.1206
  265loPI   GL1 4229  11.343  10.747   8.930 -0.4138  0.1127 -0.1885
  265loPI   GL2 4230  11.102  10.694   8.804 -0.0318  0.1427 -0.2123
  265loPI   C1A 4231  11.573  10.707   8.559  0.0267 -0.1350  0.2126
  265loPI   C2A 4232  11.859  10.912   8.175  0.2470  0.1986  0.1287
  265loPI   C3A 4233  11.899  10.881   7.751  0.0946  0.3400  0.0707
  265loPI   C4A 4234  12.288  10.899   7.410 -0.1344 -0.2306 -0.1360
  265loPI   C5A 4235  12.335  10.821   7.022 -0.3376  0.1515 -0.2189
  265loPI   C6A 4236  12.210  10.548   6.790 -0.1987  0.0740 -0.0972
  265loPI   C1B 4237  11.082  10.782   8.371 -0.0486 -0.0697  0.0830
  265loPI   C2B 4238  11.306  10.703   8.002 -0.0248 -0.0457  0.0113
  265loPI   C3B 4239  11.343  10.818   7.622 -0.1690  0.0465 -0.1387
  265loPI   C4B 4240  11.531  10.648   7.229  0.0479  0.0686 -0.0875
  266loPI    C1 4241   0.792   2.616   9.447 -0.2482 -0.2514 -0.2736
  266loPI    C2 4242   0.851   2.267   9.261  0.1421 -0.3773  0.0729
  266loPI    C3 4243   1.164   2.491   9.371 -0.0996 -0.0198  0.0492
  266loPI   PO4 4244   0.661   2.746   9.278 -0.2134  0.2293 -0.3377
  266loPI   GL1 4245   0.368   2.882   8.982  0.0472  0.0346 -0.4948
  266loPI   GL2 4246   0.641   2.938   8.831 -0.1726 -0.1838  0.1183
  266loPI   C1A 4247   0.569   3.403   8.966 -0.1329 -0.1385  0.1380
  266loPI   C2A 4248   0.747   3.756   8.765 -0.0621 -0.3298  0.0416
  266loPI   C3A 4249   0.836   3.891   8.348  0.1710  0.2404  0.0835
  266loPI   C4A 4250   0.880   3.844   7.895  0.1779 -0.0975 -0.2608
  266loPI   C5A 4251   0.915   4.032   7.527  0.3494 -0.0138 -0.1274
  266loPI   C6A 4252   0.823   4.420   7.286 -0.1136  0.2038  0.1150
  266loPI   C1B 4253   0.597   3.260   8.429 -0.3673 -0.0313  0.0201
  266loPI   C2B 4254   0.540   3.418   7.940 -0.0062  0.0402  0.0757
  266loPI   C3B 4255   0.738   3.539   7.479  0.2963  0.1420  0.0083
  266loPI   C4B 4256   0.736   3.442   7.036  0.1615 -0.1155  0.0954
  267loPI    C1 4257  13.464  12.263   9.921 -0.2859 -0.1801 -0.0546
  267loPI    C2 4258  13.141  12.409  10.107 -0.1921 -0.3082  0.2146
  267loPI    C3 4259  13.310  12.071  10.237 -0.1044 -0.3838 -0.0879
  267loPI   PO4 4260  13.398  12.274   9.605  0.0098 -0.2348 -0.0528
  267loPI   GL1 4261  13.538  12.387   9.154 -0.0213 -0.0031  0.1348
  267loPI   GL2 4262  13.705  12.511   8.967  0.1721  0.3166 -0.2014
  267loPI   C1A 4263  13.535  11.969   8.904  0.2388  0.1954 -0.2013
  267loPI   C2A 4264  13.372  11.716   8.704 -0.0488 -0.1214  0.4126
  267loPI   C3A 4265  13.520  11.500   8.262  0.0685  0.1288 -0.0147
  267loPI   C4A 4266  13.705  11.221   7.992  0.4612 -0.0036 -0.0502
  267loPI   C5A 4267  14.066  11.114   7.800  0.4043  0.0153 -0.0328
  267loPI   C6A 4268  14.459  10.964   7.720 -0.0846  0.0182  0.0809
  267loPI   C1B 4269  13.687  12.419   8.569 -0.0771 -0.1995 -0.0968
  267loPI   C2B 4270  13.718  12.590   8.175 -0.0085 -0.0074  0.2220
  267loPI   C3B 4271  13.716  12.745   7.756  0.0046 -0.0438 -0.2375
  267loPI   C4B 4272  13.752  12.568   7.338 -0.1474 -0.1467  0.0145
  268loPI    C1 4273   4.239   5.754   9.553  0.0921  0.0010 -0.1089
  268loPI    C2 4274   4.525   5.589   9.779  0.3538  0.0979 -0.3625
  268loPI    C3 4275   4.429   5.975   9.827  0.1873  0.0381 -0.2038
  268loPI   PO4 4276   4.269   5.726   9.326 -0.0363  0.0332 -0.1539
  268loPI   GL1 4277   4.545   5.535   9.032 -0.0669  0.0078 -0.0724
  268loPI   GL2 4278   4.368   5.405   8.852 -0.1162  0.2786  0.0071
  268loPI   C1A 4279   4.665   5.743   8.720 -0.0127 -0.1892 -0.2550
  268loPI   C2A 4280   4.740   5.668   8.337  0.2530 -0.1425  0.1100
  268loPI   C3A 4281   4.751   5.757   7.879  0.3387 -0.1233  0.2647
  268loPI   C4A 4282   5.040   5.801   7.598 -0.3218  0.1448 -0.2887
  268loPI   C5A 4283   5.258   5.636   7.257 -0.0392 -0.0893  0.0691
  268loPI   C6A 4284   5.494   5.379   6.991  0.1225 -0.1625  0.2675
  268loPI   C1B 4285   4.373   5.336   8.454 -0.0995 -0.1408 -0.0086
  268loPI   C2B 4286   4.424   5.296   7.956  0.0541  0.1040 -0.1075
  268loPI   C3B 4287   4.475   5.442   7.497  0.0235  0.0593 -0.0636
  268loPI   C4B 4288   4.756   5.754   7.147 -0.2877 -0.0112  0.1086
  269loPI    C1 4289  16.269   5.763   9.752  0.0626 -0.1269 -0.0186
  269loPI    C2 4290  16.532   5.564   9.979 -0.0834 -0.1595  0.1240
  269loPI    C3 4291  16.631   5.919   9.822  0.0052 -0.1179  0.2713
  269loPI   PO4 4292  16.230   5.541   9.520 -0.2464 -0.0672  0.1041
  269loPI   GL1 4293  16.246   5.402   9.089  0.2600 -0.1364 -0.1463
  269loPI   GL2 4294  16.505   5.672   9.021 -0.0845  0.2681 -0.1054
  269loPI   C1A 4295  16.180   5.584   8.670  0.0565 -0.0559 -0.1218
  269loPI   C2A 4296  16.140   5.797   8.316  0.3900  0.1713  0.0712
  269loPI   C3A 4297  15.989   5.976   7.852  0.2608  0.0922 -0.2329
  269loPI   C4A 4298  16.073   5.827   7.437  0.1456 -0.0419 -0.0382
  269loPI   C5A 4299  16.114   5.339   7.273  0.0732 -0.1898  0.0317
  269loPI   C6A 4300  15.910   5.004   6.990  0.1681  0.1740  0.1666
  269loPI   C1B 4301  16.687   5.546   8.704  0.0992 -0.1300  0.1783
  269loPI   C2B 4302  16.854   5.397   8.267 -0.3012 -0.0312 -0.1250
  269loPI   C3B 4303  16.754   5.133   7.865  0.2634 -0.0581  0.1937
  269loPI   C4B 4304  16.555   5.212   7.497 -0.1490  0.0081  0.2817
  270loPI    C1 4305  12.164   8.990   9.602 -0.0345  0.0766  0.1027
  270loPI    C2 4306  12.182   8.737   9.911  0.2781 -0.0836 -0.0420
  270loPI    C3 4307  11.829   8.824   9.745  0.1213 -0.0918  0.2789
  270loPI   PO4 4308  12.406   8.885   9.322  0.1112 -0.2753 -0.1340
  270loPI   GL1 4309  12.458   9.185   9.007 -0.2726  0.0348  0.0727
  270loPI   GL2 4310  12.363   9.430   8.858 -0.3843  0.0398  0.3057
  270loPI   C1A 4311  12.465   9.059   8.572 -0.1921  0.0443 -0.1144
  270loPI   C2A 4312  12.472   8.837   8.175  0.1506 -0.3542  0.1065
  270loPI   C3A 4313  12.231   8.795   7.738 -0.0819  0.1121 -0.2634
  270loPI   C4A 4314  12.295   8.713   7.319  0.1019 -0.2847  0.0473
  270loPI   C5A 4315  12.565   8.559   6.981  0.1797 -0.0960  0.1090
  270loPI   C6A 4316  12.925   8.267   6.729  0.1449 -0.1455 -0.0779
  270loPI   C1B 4317  12.297   9.501   8.438 -0.0849 -0.0680  0.0685
  270loPI   C2B 4318  12.291   9.387   7.987  0.2218 -0.3264 -0.2650
  270loPI   C3B 4319  12.153   9.397   7.580 -0.1454  0.1044 -0.1126
  270loPI   C4B 4320  12.020   9.379   7.238 -0.0035  0.1382  0.1499
  271loPI    C1 4321   0.141   3.288   9.821 -0.0988  0.0962 -0.1067
  271loPI    C2 4322   0.221   3.344  10.209 -0.0119  0.0513 -0.1179
  271loPI    C3 4323   0.178   2.973  10.065  0.1389  0.0597 -0.1868
  271loPI   PO4 4324  -0.048   3.488   9.690  0.2157 -0.1633  0.2492
  271loPI   GL1 4325  -0.188   3.522   9.318  0.1501 -0.0491  0.2262
  271loPI   GL2 4326   0.115   3.478   9.141 -0.2384  0.0689 -0.1228
  271loPI   C1A 4327  -0.255   3.657   8.887  0.1557 -0.0656 -0.0239
  271loPI   C2A 4328  -0.319   3.508   8.568 -0.0446  0.1162  0.0391
  271loPI   C3A 4329  -0.150   3.502   8.168  0.3021  0.2910 -0.3164
  271loPI   C4A 4330  -0.057   3.802   7.851  0.1683 -0.4239 -0.0946
  271loPI   C5A 4331   0.351   3.824   7.574 -0.1057 -0.0006 -0.2246
  271loPI   C6A 4332   0.561   3.938   7.205  0.1264 -0.0446 -0.2902
  271loPI   C1B 4333   0.224   3.848   8.921 -0.0954  0.3485 -0.0989
  271loPI   C2B 4334   0.358   4.122   8.672 -0.0063  0.1562  0.5952
  271loPI   C3B 4335   0.547   4.360   8.323  0.0948  0.1625 -0.1874
  271loPI   C4B 4336   0.703   4.322   7.832 -0.0889 -0.1833  0.1078
  272loPI    C1 4337  10.702   7.307  10.022  0.1635  0.0369 -0.0510
  272loPI    C2 4338  10.864   7.039  10.271  0.2820  0.2362  0.0890
  272loPI    C3 4339  10.484   7.154  10.321  0.2118  0.0516 -0.0082
  272loPI   PO4 4340  10.700   7.261   9.776  0.1038  0.1064  0.2946
  272loPI   GL1 4341  10.683   7.511   9.471 -0.3401 -0.2596  0.2206
  272loPI   GL2 4342  10.941   7.663   9.256  0.2513  0.0533  0.4888
  272loPI   C1A 4343  10.542   7.260   9.149 -0.1708  0.1620  0.2230
  272loPI   C2A 4344  10.440   7.247   8.683 -0.0996 -0.1092 -0.1668
  272loPI   C3A 4345  10.272   7.080   8.249  0.1138 -0.0862  0.0535
  272loPI   C4A 4346  10.195   6.883   7.855 -0.1478 -0.1608  0.1066
  272loPI   C5A 4347  10.123   6.985   7.391  0.0149  0.3263  0.0355
  272loPI   C6A 4348   9.994   7.298   7.069  0.1035  0.1895  0.0044
  272loPI   C1B 4349  10.749   7.592   8.772 -0.2169 -0.2466 -0.2541
  272loPI   C2B 4350  10.691   7.568   8.388  0.0109 -0.2888 -0.1027
  272loPI   C3B 4351  10.310   7.617   8.158 -0.2226  0.0688 -0.2360
  272loPI   C4B 4352  10.257   7.901   7.828  0.1316  0.2061 -0.0896
  273loPI    C1 4353  15.062  14.245   9.576  0.2204 -0.2460  0.0449
  273loPI    C2 4354  14.789  13.980   9.452 -0.0650  0.0899 -0.0623
  273loPI    C3 4355  14.900  13.989   9.836 -0.2647  0.0017 -0.0012
  273loPI   PO4 4356  15.044  14.475   9.422  0.2010 -0.0262  0.0776
  273loPI   GL1 4357  14.919  14.535   9.020 -0.0056  0.1405 -0.2514
  273loPI   GL2 4358  14.638  14.250   8.958 -0.2308  0.1218 -0.3579
  273loPI   C1A 4359  14.905  14.768   8.600 -0.0266 -0.1805  0.2009
  273loPI   C2A 4360  14.934  14.945   8.224  0.2747 -0.1156 -0.2690
  273loPI   C3A 4361  14.829  15.244   7.927 -0.1749 -0.1927 -0.1799
  273loPI   C4A 4362  15.025  15.605   7.710  0.0104  0.1755 -0.2052
  273loPI   C5A 4363  15.013  15.998   7.601  0.0811  0.2651  0.2762
  273loPI   C6A 4364  14.677  16.286   7.349  0.0432 -0.0822 -0.1603
  273loPI   C1B 4365  14.752  14.253   8.593  0.1123  0.1943  0.0358
  273loPI   C2B 4366  14.596  14.198   8.156  0.0681 -0.0153 -0.0319
  273loPI   C3B 4367  14.477  14.285   7.753 -0.1957 -0.0557 -0.0502
  273loPI   C4B 4368  14.618  14.182   7.290 -0.1660 -0.0109 -0.1729
  274loPI    C1 4369   4.207  18.372   9.829  0.2233 -0.0237  0.1929
  274loPI    C2 4370   4.019  18.061   9.996 -0.1011  0.0792  0.0279
  274loPI    C3 4371   4.117  18.378  10.219  0.1876 -0.1169  0.1865
  274loPI   PO4 4372   4.042  18.428   9.571 -0.3271 -0.0989  0.0609
  274loPI   GL1 4373   4.164  18.504   9.182  0.0513  0.1699  0.0738
  274loPI   GL2 4374   3.985  18.194   9.104  0.1064 -0.0525  0.1486
  274loPI   C1A 4375   4.241  18.658   8.805 -0.2469  0.0923 -0.0274
  274loPI   C2A 4376   4.364  18.577   8.427  0.2872  0.3358  0.1949
  274loPI   C3A 4377   4.392  18.659   8.085  0.0815  0.1275  0.0530
  274loPI   C4A 4378   4.225  18.493   7.723  0.1070  0.1251 -0.0596
  274loPI   C5A 4379   3.886  18.562   7.403 -0.0893 -0.0169  0.0414
  274loPI   C6A 4380   3.703  18.828   7.057  0.1789  0.0236 -0.0401
  274loPI   C1B 4381   3.812  18.370   8.721  0.2431  0.0940 -0.0139
  274loPI   C2B 4382   3.935  18.306   8.340 -0.0941 -0.1320  0.0528
  274loPI   C3B 4383   3.809  18.291   8.007 -0.0121  0.1317 -0.1974
  274loPI   C4B 4384   3.684  18.142   7.519  0.1106  0.0540  0.2571
  275loPI    C1 4385  19.058  17.253   9.722 -0.0517 -0.0528 -0.1750
  275loPI    C2 4386  19.421  17.140   9.844 -0.0877  0.1159  0.0972
  275loPI    C3 4387  19.096  17.004  10.032 -0.1644  0.0197 -0.1022
  275loPI   PO4 4388  19.142  17.431   9.491  0.1176  0.0681  0.1406
  275loPI   GL1 4389  19.337  17.311   8.918  0.2944  0.0180  0.2422
  275loPI   GL2 4390  19.072  17.533   8.903 -0.2952  0.0457 -0.1885
  275loPI   C1A 4391  19.315  17.266   8.442  0.0863 -0.0888  0.2539
  275loPI   C2A 4392  19.193  17.198   8.033 -0.1533  0.1998 -0.0351
  275loPI   C3A 4393  19.003  17.161   7.750 -0.2837  0.0334  0.3625
  275loPI   C4A 4394  18.884  17.357   7.320 -0.3917  0.0334 -0.0570
  275loPI   C5A 4395  19.160  17.780   7.281  0.1070  0.2428  0.3474
  275loPI   C6A 4396  19.391  18.021   7.020 -0.0944  0.2749 -0.0116
  275loPI   C1B 4397  18.832  17.232   8.677  0.2465 -0.1072 -0.1309
  275loPI   C2B 4398  19.041  16.872   8.591  0.0810  0.1017 -0.1020
  275loPI   C3B 4399  19.044  16.751   8.172  0.3120  0.2634 -0.0820
  275loPI   C4B 4400  19.063  16.641   7.748  0.0026  0.1102  0.0701
  276loPI    C1 4401   3.557   9.852   9.907 -0.1467  0.0469  0.0469
  276loPI    C2 4402   3.759   9.712  10.223 -0.0241 -0.2318 -0.1515
  276loPI    C3 4403   3.512  10.024  10.266  0.4779  0.1468  0.0889
  276loPI   PO4 4404   3.459   9.771   9.725 -0.2711 -0.0568 -0.3974
  276loPI   GL1 4405   3.424   9.687   9.313  0.3065  0.0706  0.0916
  276loPI   GL2 4406   3.617   9.446   9.220  0.0577 -0.3006 -0.1193
  276loPI   C1A 4407   3.316   9.745   8.897  0.1053  0.0193  0.0880
  276loPI   C2A 4408   3.281   9.751   8.471 -0.0047  0.0842  0.0169
  276loPI   C3A 4409   3.218   9.609   8.047 -0.1286  0.2578  0.0819
  276loPI   C4A 4410   3.285   9.643   7.629  0.2424  0.0086 -0.1032
  276loPI   C5A 4411   3.579   9.830   7.417  0.0978 -0.0039 -0.0305
  276loPI   C6A 4412   3.625   9.922   6.913 -0.0014  0.2517 -0.0069
  276loPI   C1B 4413   3.768   9.474   8.802  0.1021  0.1620  0.2287
  276loPI   C2B 4414   3.992   9.484   8.502  0.0632 -0.1987 -0.1320
  276loPI   C3B 4415   4.081   9.561   8.106  0.3339 -0.0412 -0.4139
  276loPI   C4B 4416   3.955   9.635   7.765 -0.0336 -0.0048  0.1059
  277loPI    C1 4417  11.125  13.897   9.679  0.2651 -0.1533  0.0060
  277loPI    C2 4418  11.128  13.519   9.810  0.0116 -0.2017 -0.1203
  277loPI    C3 4419  11.449  13.752   9.863  0.0648 -0.3456  0.2140
  277loPI   PO4 4420  11.022  13.891   9.435 -0.0635  0.1083  0.0989
  277loPI   GL1 4421  11.174  13.661   8.962  0.0219  0.2110 -0.5679
  277loPI   GL2 4422  10.809  13.798   8.979  0.1579  0.2723  0.2498
  277loPI   C1A 4423  11.218  13.484   8.590  0.4067 -0.3101  0.0559
  277loPI   C2A 4424  11.106  13.569   8.149  0.1848  0.0745 -0.2456
  277loPI   C3A 4425  11.118  13.855   7.786  0.1318  0.0262 -0.0476
  277loPI   C4A 4426  11.150  13.483   7.592  0.0649 -0.1081  0.0484
  277loPI   C5A 4427  11.444  13.181   7.518 -0.0606  0.0798  0.3272
  277loPI   C6A 4428  11.486  13.131   7.136  0.0343  0.4300  0.3747
  277loPI   C1B 4429  10.577  13.695   8.569 -0.2487 -0.0607  0.0090
  277loPI   C2B 4430  10.613  13.721   8.120 -0.1375 -0.1850 -0.2702
  277loPI   C3B 4431  10.609  13.747   7.734 -0.1467  0.3407 -0.2211
  277loPI   C4B 4432  10.737  13.790   7.281  0.0393 -0.2171  0.3207
  278loPI    C1 4433  10.836  12.476   9.425 -0.2185 -0.0892 -0.1131
  278loPI    C2 4434  10.870  12.119   9.602  0.4344 -0.0441 -0.1254
  278loPI    C3 4435  11.028  12.443   9.775  0.0335  0.2078 -0.2192
  278loPI   PO4 4436  10.815  12.575   9.184 -0.4189  0.0212  0.1892
  278loPI   GL1 4437  10.715  12.375   8.708  0.2470 -0.1464  0.0468
  278loPI   GL2 4438  10.424  12.421   8.886  0.0578 -0.0377 -0.0215
  278loPI   C1A 4439  10.827  12.505   8.225 -0.0414 -0.0575 -0.4089
  278loPI   C2A 4440  10.918  12.507   7.810 -0.2021  0.0280  0.0739
  278loPI   C3A 4441  11.127  12.505   7.363 -0.1277 -0.0506  0.2688
  278loPI   C4A 4442  11.281  12.608   6.991 -0.1629  0.1425 -0.2481
  278loPI   C5A 4443  11.261  12.145   6.737  0.3345 -0.0050 -0.0127
  278loPI   C6A 4444  11.403  11.792   6.827  0.1568  0.1991  0.1940
  278loPI   C1B 4445  10.510  12.793   8.581 -0.2250 -0.1071  0.0767
  278loPI   C2B 4446  10.452  12.843   8.139 -0.1084 -0.0752 -0.1243
  278loPI   C3B 4447  10.489  12.765   7.747 -0.0715 -0.0804 -0.2399
  278loPI   C4B 4448  10.608  12.548   7.400 -0.1327 -0.0238  0.0062
  279loPI    C1 4449  13.425   5.016  10.016 -0.0443 -0.0297  0.0485
  279loPI    C2 4450  13.422   4.618   9.977  0.1088 -0.0219 -0.0563
  279loPI    C3 4451  13.469   4.784  10.338 -0.1911 -0.0973  0.0204
  279loPI   PO4 4452  13.507   5.135   9.707 -0.1391  0.0803  0.1186
  279loPI   GL1 4453  13.297   5.335   9.384  0.1296 -0.3202 -0.0284
  279loPI   GL2 4454  13.070   5.164   9.234  0.2493  0.1526 -0.0095
  279loPI   C1A 4455  13.568   5.379   8.985 -0.2657  0.3063  0.0914
  279loPI   C2A 4456  13.607   5.196   8.570  0.1021 -0.0553 -0.4208
  279loPI   C3A 4457  13.595   5.140   8.161  0.3319 -0.4385  0.2405
  279loPI   C4A 4458  13.552   5.295   7.691  0.1639 -0.0454 -0.3505
  279loPI   C5A 4459  13.445   5.239   7.269  0.1524 -0.0014  0.1215
  279loPI   C6A 4460  13.438   5.369   6.800  0.1557  0.1496  0.1211
  279loPI   C1B 4461  13.159   5.170   8.818  0.0392  0.0666 -0.3161
  279loPI   C2B 4462  13.179   4.999   8.480  0.0360  0.3863 -0.0279
  279loPI   C3B 4463  13.173   4.862   8.037 -0.2397 -0.4852 -0.3786
  279loPI   C4B 4464  13.283   4.539   7.757 -0.2325 -0.4043  0.1954
  280loPI    C1 4465   9.958  17.810   9.776 -0.0001  0.1396  0.1300
  280loPI    C2 4466   9.629  18.035   9.814 -0.1358 -0.0246 -0.0499
  280loPI    C3 4467   9.947  18.103  10.047 -0.1498  0.3946 -0.1458
  280loPI   PO4 4468  10.034  17.860   9.541  0.0777  0.0333  0.2144
  280loPI   GL1 4469   9.984  18.092   9.239  0.1403 -0.0307  0.0711
  280loPI   GL2 4470   9.684  18.261   9.214 -0.0069  0.2900 -0.1107
  280loPI   C1A 4471   9.937  18.029   8.820  0.1155  0.2052  0.1361
  280loPI   C2A 4472   9.988  17.887   8.402  0.1891  0.2558 -0.0005
  280loPI   C3A 4473   9.894  17.741   7.916 -0.1612  0.0022  0.1023
  280loPI   C4A 4474  10.117  17.489   7.538 -0.0682  0.2474  0.1756
  280loPI   C5A 4475  10.402  17.168   7.409  0.1241 -0.1266 -0.0966
  280loPI   C6A 4476  10.680  16.827   7.321 -0.0607  0.1952  0.3865
  280loPI   C1B 4477   9.583  18.411   8.823  0.0193  0.0988  0.3594
  280loPI   C2B 4478   9.720  18.342   8.491 -0.2859 -0.1610  0.3007
  280loPI   C3B 4479   9.817  18.189   8.075 -0.0492 -0.0467  0.0594
  280loPI   C4B 4480   9.914  18.147   7.634  0.0832 -0.0005  0.1766
  281loPI    C1 4481   5.446   4.191   9.619 -0.2516 -0.0015 -0.2314
  281loPI    C2 4482   5.106   4.007   9.719 -0.2887  0.1867 -0.0029
  281loPI    C3 4483   5.321   4.196   9.999 -0.1300  0.2897 -0.1922
  281loPI   PO4 4484   5.660   4.274   9.300  0.0709  0.5302 -0.0759
  281loPI   GL1 4485   5.976   4.032   9.100  0.0204  0.1394 -0.1434
  281loPI   GL2 4486   5.987   3.697   9.220  0.1552  0.1743  0.0407
  281loPI   C1A 4487   5.967   3.934   8.705 -0.2093  0.1017  0.1742
  281loPI   C2A 4488   6.114   3.861   8.248  0.4308  0.2489  0.0097
  281loPI   C3A 4489   6.046   3.887   7.739  0.0322 -0.0485  0.0699
  281loPI   C4A 4490   5.969   4.055   7.389 -0.2065 -0.0209  0.3932
  281loPI   C5A 4491   6.071   4.478   7.227  0.0861 -0.2335  0.0673
  281loPI   C6A 4492   5.854   4.832   7.109 -0.1109 -0.0317  0.0051
  281loPI   C1B 4493   6.160   3.415   8.884 -0.1869  0.3126 -0.0567
  281loPI   C2B 4494   6.112   3.454   8.480 -0.0211 -0.2362  0.1521
  281loPI   C3B 4495   6.096   3.353   7.940  0.1353 -0.1947 -0.1775
  281loPI   C4B 4496   6.190   2.833   7.793 -0.0265  0.0958 -0.2506
  282loPI    C1 4497   7.999  12.861  10.211  0.0753 -0.1361  0.1194
  282loPI    C2 4498   7.668  12.647  10.144 -0.0753  0.1328 -0.0083
  282loPI    C3 4499   7.995  12.468  10.287 -0.3138 -0.1126  0.2441
  282loPI   PO4 4500   8.061  12.930  10.029 -0.2105 -0.1999 -0.0986
  282loPI   GL1 4501   7.973  13.145   9.502  0.1849  0.1858 -0.0520
  282loPI   GL2 4502   7.844  13.476   9.464  0.5362 -0.0884 -0.1309
  282loPI   C1A 4503   7.851  13.051   9.063  0.0245 -0.3256 -0.1191
  282loPI   C2A 4504   7.534  12.956   8.825 -0.4079 -0.0029 -0.1403
  282loPI   C3A 4505   7.146  13.109   8.770  0.2349 -0.0869 -0.0267
  282loPI   C4A 4506   6.795  13.248   8.487  0.2887 -0.1479  0.0034
  282loPI   C5A 4507   6.517  13.296   8.186 -0.0857  0.1349 -0.0855
  282loPI   C6A 4508   6.436  13.478   7.792 -0.2358  0.0793 -0.0908
  282loPI   C1B 4509   7.478  13.370   9.129  0.2276  0.1362 -0.1188
  282loPI   C2B 4510   7.541  13.466   8.776 -0.0700  0.0870 -0.1433
  282loPI   C3B 4511   7.391  13.342   8.313 -0.1073 -0.2768 -0.1577
  282loPI   C4B 4512   7.535  13.354   7.890  0.3800  0.0127  0.3171
  283loPI    C1 4513  11.924   9.825  10.006 -0.1154 -0.2791  0.1273
  283loPI    C2 4514  12.110   9.605  10.282 -0.1935 -0.1030  0.3230
  283loPI    C3 4515  12.024   9.988  10.357  0.1294  0.0579 -0.0925
  283loPI   PO4 4516  12.011   9.808   9.725  0.0407  0.0643 -0.1780
  283loPI   GL1 4517  11.912   9.809   9.268  0.5344  0.0848 -0.1914
  283loPI   GL2 4518  11.786   9.540   9.179  0.2755  0.1024 -0.3101
  283loPI   C1A 4519  11.933   9.718   8.731 -0.0798  0.0124  0.0746
  283loPI   C2A 4520  11.847   9.552   8.337 -0.0610  0.1259 -0.0811
  283loPI   C3A 4521  11.788   9.669   7.860 -0.2820  0.0129  0.2975
  283loPI   C4A 4522  11.557   9.673   7.420  0.0129  0.1063  0.0929
  283loPI   C5A 4523  11.537   9.620   7.022 -0.1925  0.3265  0.0643
  283loPI   C6A 4524  11.568   9.403   6.629  0.0145  0.1285  0.4022
  283loPI   C1B 4525  11.858   9.259   8.957  0.0490 -0.0198  0.1309
  283loPI   C2B 4526  11.962   9.156   8.571 -0.3923  0.1674  0.2015
  283loPI   C3B 4527  11.900   9.117   7.960  0.1317  0.1656  0.2773
  283loPI   C4B 4528  11.669   9.194   7.574  0.1272  0.4437 -0.0251
  284loPI    C1 4529   5.882   4.416   9.854  0.0089 -0.2019  0.1417
  284loPI    C2 4530   6.015   4.112   9.630 -0.1250 -0.1400 -0.0248
  284loPI    C3 4531   5.875   4.043   9.999 -0.2563 -0.2960 -0.1023
  284loPI   PO4 4532   6.092   4.631   9.864 -0.1097 -0.0274 -0.3257
  284loPI   GL1 4533   6.079   4.805   9.465 -0.0263  0.1649 -0.1531
  284loPI   GL2 4534   6.159   5.057   9.059 -0.2443 -0.1493 -0.1478
  284loPI   C1A 4535   6.380   4.614   9.092 -0.0970 -0.2911 -0.4151
  284loPI   C2A 4536   6.544   4.597   8.660  0.0976 -0.0920 -0.1039
  284loPI   C3A 4537   6.628   4.712   8.201  0.1146  0.0701 -0.2723
  284loPI   C4A 4538   6.712   4.998   7.838 -0.2349 -0.1101  0.1517
  284loPI   C5A 4539   7.056   5.122   7.487 -0.2272 -0.2578  0.1847
  284loPI   C6A 4540   7.422   5.190   7.399 -0.0435 -0.2028 -0.1346
  284loPI   C1B 4541   6.170   4.988   8.754 -0.0123  0.4480  0.0882
  284loPI   C2B 4542   6.069   4.833   8.350 -0.0711  0.0723  0.0334
  284loPI   C3B 4543   6.240   4.858   7.896 -0.0278  0.3513 -0.0147
  284loPI   C4B 4544   6.385   4.663   7.578  0.1125 -0.5790  0.0706
  285loPI    C1 4545   2.537  12.872   9.803 -0.1330  0.1768  0.0607
  285loPI    C2 4546   2.598  13.008  10.174 -0.1869 -0.1431  0.1908
  285loPI    C3 4547   2.225  12.958  10.039 -0.1673 -0.0383  0.0963
  285loPI   PO4 4548   2.682  13.056   9.647  0.0352  0.2749 -0.1836
  285loPI   GL1 4549   2.656  12.960   9.210 -0.1112  0.0036 -0.3401
  285loPI   GL2 4550   2.763  12.857   8.886 -0.0962  0.0716 -0.1552
  285loPI   C1A 4551   2.284  13.001   8.885  0.0945  0.1133  0.1668
  285loPI   C2A 4552   2.053  13.070   8.469  0.1914  0.0935  0.1850
  285loPI   C3A 4553   1.919  13.019   8.049 -0.3600 -0.1104 -0.3330
  285loPI   C4A 4554   1.438  13.026   8.029 -0.1713  0.2166  0.0125
  285loPI   C5A 4555   1.200  13.065   7.721 -0.1506 -0.1778  0.1294
  285loPI   C6A 4556   1.181  13.098   7.294 -0.0884 -0.0742 -0.2197
  285loPI   C1B 4557   3.103  12.817   8.462  0.0832 -0.1333  0.0955
  285loPI   C2B 4558   3.077  12.798   7.997 -0.3635 -0.0396 -0.1586
  285loPI   C3B 4559   3.020  12.985   7.629  0.1787  0.0783  0.1626
  285loPI   C4B 4560   2.843  13.218   7.317 -0.1181  0.0515  0.1014
  286loPI    C1 4561   9.547  12.691   9.947 -0.0818 -0.1385  0.2006
  286loPI    C2 4562   9.789  12.514  10.212  0.0156 -0.3305 -0.0134
  286loPI    C3 4563   9.700  12.902  10.250  0.4178 -0.2375  0.0277
  286loPI   PO4 4564   9.624  12.531   9.696  0.1892  0.1319  0.1374
  286loPI   GL1 4565   9.788  12.509   9.228 -0.0701  0.1473 -0.0879
  286loPI   GL2 4566   9.810  12.828   9.322 -0.0191 -0.0520  0.2138
  286loPI   C1A 4567   9.506  12.510   8.832 -0.0199  0.1551 -0.0305
  286loPI   C2A 4568   9.349  12.533   8.414 -0.2516  0.4121  0.1149
  286loPI   C3A 4569   9.451  12.619   8.063 -0.2239 -0.2221 -0.2148
  286loPI   C4A 4570   9.575  12.761   7.634 -0.1892 -0.0362 -0.2072
  286loPI   C5A 4571   9.782  13.031   7.518  0.1905  0.0471 -0.0987
  286loPI   C6A 4572  10.019  12.938   7.073  0.0442  0.0205  0.0545
  286loPI   C1B 4573   9.448  12.988   9.031  0.2303  0.4089  0.0135
  286loPI   C2B 4574   9.460  13.057   8.632  0.2770  0.0881 -0.3251
  286loPI   C3B 4575   9.235  13.182   8.361  0.0768 -0.0940  0.1198
  286loPI   C4B 4576   9.390  13.607   8.224 -0.1235  0.1858 -0.1692
  287loPI    C1 4577   2.652   9.385   9.787 -0.3999  0.1859 -0.1072
  287loPI    C2 4578   2.414   9.626  10.000  0.0344  0.3715  0.1813
  287loPI    C3 4579   2.546   9.284  10.160 -0.0491  0.2617  0.0170
  287loPI   PO4 4580   2.470   9.320   9.497  0.2393 -0.0763 -0.0707
  287loPI   GL1 4581   2.311   9.332   9.055  0.1728 -0.1194  0.2985
  287loPI   GL2 4582   2.064   9.617   9.109 -0.2584  0.1023  0.0420
  287loPI   C1A 4583   2.358   9.382   8.626  0.3049  0.0664  0.1724
  287loPI   C2A 4584   2.327   9.149   8.181  0.0521  0.0993 -0.1297
  287loPI   C3A 4585   2.189   9.073   7.748 -0.0654 -0.2031 -0.0673
  287loPI   C4A 4586   2.382   9.257   7.323  0.2326 -0.0463 -0.2295
  287loPI   C5A 4587   2.546   9.679   7.187  0.0262  0.2308  0.0868
  287loPI   C6A 4588   2.691  10.122   7.102  0.3367 -0.0316  0.0316
  287loPI   C1B 4589   2.269   9.800   8.816 -0.3760  0.1870  0.3354
  287loPI   C2B 4590   2.409  10.044   8.451  0.1326 -0.3855 -0.5285
  287loPI   C3B 4591   2.627   9.985   8.062 -0.0810 -0.0778 -0.0840
  287loPI   C4B 4592   2.859   9.961   7.686  0.0752  0.0097  0.0570
  288loPI    C1 4593  14.170  17.047  10.048 -0.3005  0.1678  0.0890
  288loPI    C2 4594  14.435  17.038  10.347 -0.0901 -0.1262 -0.1011
  288loPI    C3 4595  14.061  16.913  10.409 -0.0275 -0.2562  0.0206
  288loPI   PO4 4596  14.329  17.155   9.802  0.1146  0.4174  0.3486
  288loPI   GL1 4597  14.552  17.032   9.435 -0.0108 -0.1112 -0.1955
  288loPI   GL2 4598  14.295  17.145   9.274  0.1568  0.1981 -0.0268
  288loPI   C1A 4599  14.690  17.086   9.000  0.2920  0.3390  0.2670
  288loPI   C2A 4600  14.776  17.121   8.625  0.3468 -0.1820  0.0491
  288loPI   C3A 4601  14.892  17.062   8.236  0.1227 -0.1060  0.3170
  288loPI   C4A 4602  14.743  16.987   7.940 -0.1285  0.2501 -0.0588
  288loPI   C5A 4603  14.581  16.938   7.581 -0.1536 -0.3243  0.0361
  288loPI   C6A 4604  14.139  16.975   7.443 -0.0393  0.2340  0.1603
  288loPI   C1B 4605  14.192  17.100   8.813  0.1154 -0.1297  0.1122
  288loPI   C2B 4606  14.156  16.979   8.350  0.5025 -0.0798  0.3675
  288loPI   C3B 4607  14.320  16.793   7.951 -0.2096  0.3358 -0.2753
  288loPI   C4B 4608  14.337  16.462   7.646 -0.1910  0.2146  0.0127
  289loPI    C1 4609  10.876   1.034  10.641  0.0619 -0.1380  0.2553
  289loPI    C2 4610  10.914   0.851  10.995  0.4015 -0.1817  0.1997
  289loPI    C3 4611  11.145   1.165  10.906 -0.0061  0.1260  0.1968
  289loPI   PO4 4612  10.713   0.850  10.453  0.1765  0.0888  0.0287
  289loPI   GL1 4613  10.873   0.767   9.987 -0.3192  0.1689 -0.1179
  289loPI   GL2 4614  11.017   0.567  10.093  0.1912 -0.1839  0.3939
  289loPI   C1A 4615  10.710   0.867   9.609  0.0280 -0.0546  0.1081
  289loPI   C2A 4616  10.880   0.956   9.148  0.1568  0.2350  0.3424
  289loPI   C3A 4617  10.764   0.838   8.845  0.2799 -0.0389 -0.0699
  289loPI   C4A 4618  10.753   0.939   8.427  0.0714  0.1638 -0.0078
  289loPI   C5A 4619  10.898   1.073   8.014  0.2011  0.0453  0.1357
  289loPI   C6A 4620  11.030   1.107   7.674  0.3428  0.0501 -0.0477
  289loPI   C1B 4621  10.750   0.339   9.732 -0.0218  0.0288  0.1855
  289loPI   C2B 4622  10.682  -0.038   9.426 -0.2045 -0.0277  0.0053
  289loPI   C3B 4623  10.602  -0.157   8.943 -0.2450  0.1900 -0.2668
  289loPI   C4B 4624  10.831  -0.044   8.686 -0.1627 -0.1286  0.0093
  290loPI    C1 4625   9.349   5.639  10.223 -0.0215 -0.0022  0.0719
  290loPI    C2 4626   9.520   5.306  10.366  0.1246  0.0081 -0.0752
  290loPI    C3 4627   9.172   5.284  10.169  0.0328 -0.0322  0.0900
  290loPI   PO4 4628   9.662   5.809  10.232  0.1754 -0.0020 -0.1725
  290loPI   GL1 4629   9.950   5.560   9.962 -0.3068  0.0173  0.1938
  290loPI   GL2 4630   9.636   5.426   9.926 -0.0848  0.1598  0.0056
  290loPI   C1A 4631  10.007   5.447   9.567  0.0102  0.0121 -0.0054
  290loPI   C2A 4632  10.267   5.319   9.334  0.1307  0.1253 -0.0163
  290loPI   C3A 4633  10.312   5.599   9.000  0.2753  0.5650  0.1697
  290loPI   C4A 4634  10.210   5.655   8.599 -0.1210  0.0881  0.0076
  290loPI   C5A 4635  10.266   5.472   8.128 -0.1067 -0.3313  0.0522
  290loPI   C6A 4636  10.290   5.171   7.852  0.2780 -0.1994 -0.1997
  290loPI   C1B 4637   9.648   5.115   9.558  0.3108 -0.2020 -0.0211
  290loPI   C2B 4638   9.772   5.112   9.193  0.2268 -0.0994 -0.2983
  290loPI   C3B 4639  10.060   5.151   8.882  0.4999  0.2028 -0.0280
  290loPI   C4B 4640  10.133   5.134   8.410  0.0455  0.0076  0.3865
  291loPI    C1 4641  10.280  17.186   9.637  0.0457  0.1555  0.0772
  291loPI    C2 4642  10.630  17.220   9.827  0.1465 -0.0250 -0.0733
  291loPI    C3 4643  10.328  17.024  10.000  0.0207  0.3824  0.1838
  291loPI   PO4 4644  10.273  17.420   9.498  0.0168  0.1142  0.0161
  291loPI   GL1 4645  10.473  17.499   9.059 -0.0578 -0.1356  0.6385
  291loPI   GL2 4646  10.153  17.542   9.000  0.2378 -0.0465 -0.0637
  291loPI   C1A 4647  10.723  17.406   8.655 -0.3921 -0.1417  0.3102
  291loPI   C2A 4648  10.830  17.471   8.175  0.1686 -0.2867  0.1401
  291loPI   C3A 4649  10.912  17.874   7.961 -0.1508  0.0046 -0.0912
  291loPI   C4A 4650  10.893  18.115   7.638  0.1442 -0.0243 -0.0981
  291loPI   C5A 4651  11.077  18.458   7.378 -0.1519  0.1677  0.2332
  291loPI   C6A 4652  11.386  18.422   7.144  0.0661  0.0740  0.0161
  291loPI   C1B 4653  10.273  17.522   8.554 -0.2304 -0.2510  0.4396
  291loPI   C2B 4654  10.321  17.532   8.036 -0.0124  0.0432  0.2491
  291loPI   C3B 4655  10.594  17.575   7.723  0.2924  0.1621  0.1850
  291loPI   C4B 4656  10.497  17.743   7.274 -0.1106 -0.0478  0.0964
  292loPI    C1 4657  11.929  14.229   9.387 -0.1705 -0.0349  0.0290
  292loPI    C2 4658  11.943  14.026   9.731  0.0537 -0.1373 -0.0385
  292loPI    C3 4659  12.085  14.399   9.714 -0.4578  0.0740  0.1129
  292loPI   PO4 4660  11.927  13.873   9.214  0.0332  0.0814 -0.0317
  292loPI   GL1 4661  11.876  13.983   8.775  0.1844  0.1184  0.1219
  292loPI   GL2 4662  11.608  14.193   8.854  0.0207 -0.1368  0.2457
  292loPI   C1A 4663  12.026  14.050   8.372  0.3708  0.1335  0.0405
  292loPI   C2A 4664  12.081  13.935   8.012  0.0319  0.0339  0.1286
  292loPI   C3A 4665  12.115  13.776   7.588 -0.5056 -0.0266  0.2947
  292loPI   C4A 4666  12.251  13.530   7.303 -0.0444  0.0521  0.0727
  292loPI   C5A 4667  12.607  13.317   7.044 -0.0368  0.2390  0.1971
  292loPI   C6A 4668  13.049  13.301   6.960  0.1353  0.3160  0.0905
  292loPI   C1B 4669  11.727  14.526   8.543  0.2852  0.1436 -0.1847
  292loPI   C2B 4670  11.464  14.763   8.157 -0.0749 -0.0529  0.3396
  292loPI   C3B 4671  11.595  14.982   7.760 -0.2352  0.1344  0.1594
  292loPI   C4B 4672  11.426  15.309   7.360 -0.2723  0.1079 -0.0800
  293loPI    C1 4673  10.214   6.637  10.286  0.0388  0.4745 -0.1813
  293loPI    C2 4674  10.183   6.497  10.660 -0.0889  0.0284 -0.3532
  293loPI    C3 4675  10.224   6.890  10.596  0.4421  0.0686  0.1505
  293loPI   PO4 4676  10.046   6.513  10.160  0.1759 -0.2973 -0.0911
  293loPI   GL1 4677   9.873   6.177   9.926  0.1579  0.0719  0.0829
  293loPI   GL2 4678   9.695   6.362   9.694 -0.1361 -0.1310  0.0648
  293loPI   C1A 4679   9.754   5.869   9.594 -0.1316  0.1644  0.1349
  293loPI   C2A 4680   9.786   5.790   9.111  0.2647 -0.1262 -0.4652
  293loPI   C3A 4681   9.572   5.776   8.642  0.0714  0.1411  0.1154
  293loPI   C4A 4682   9.417   5.776   8.316  0.0875 -0.4406 -0.1662
  293loPI   C5A 4683   9.446   5.822   7.853 -0.0402  0.0484 -0.5094
  293loPI   C6A 4684   9.609   6.006   7.467  0.2188 -0.0671  0.0744
  293loPI   C1B 4685   9.601   6.293   9.262  0.3307 -0.0496 -0.1417
  293loPI   C2B 4686   9.451   6.201   8.877 -0.5615 -0.0004  0.2616
  293loPI   C3B 4687   9.311   6.246   8.548  0.0477  0.0210 -0.0156
  293loPI   C4B 4688   9.011   6.101   8.256  0.3476  0.3037  0.0833
  294loPI    C1 4689   2.411  17.001   9.816 -0.0105 -0.0284 -0.3284
  294loPI    C2 4690   2.158  16.692   9.791  0.0504 -0.1115  0.0288
  294loPI    C3 4691   2.524  16.639   9.942  0.1351  0.0942 -0.0997
  294loPI   PO4 4692   2.275  17.131   9.567 -0.1468 -0.0773  0.1381
  294loPI   GL1 4693   2.292  17.408   9.162 -0.2685 -0.0130 -0.0967
  294loPI   GL2 4694   2.003  17.557   9.047 -0.0516 -0.1843  0.0519
  294loPI   C1A 4695   2.516  17.654   8.973 -0.2506 -0.1386  0.0954
  294loPI   C2A 4696   2.483  17.505   8.516  0.1775  0.0184  0.1951
  294loPI   C3A 4697   2.307  17.497   8.075 -0.2681  0.0135 -0.1633
  294loPI   C4A 4698   2.458  17.673   7.603 -0.2546  0.1578  0.2070
  294loPI   C5A 4699   2.534  17.868   7.180 -0.1206 -0.2237 -0.3418
  294loPI   C6A 4700   2.787  17.818   6.819  0.0138 -0.1072 -0.2989
  294loPI   C1B 4701   1.710  17.682   8.757 -0.0156  0.1121  0.0055
  294loPI   C2B 4702   1.671  18.028   8.524  0.2562 -0.1828 -0.1286
  294loPI   C3B 4703   1.437  18.052   8.087  0.0481  0.1358 -0.3368
  294loPI   C4B 4704   1.078  17.801   8.070  0.3892 -0.1145  0.2793
  295loPI    C1 4705  11.101  17.479   9.870  0.1939 -0.0958  0.1419
  295loPI    C2 4706  10.934  17.685  10.170 -0.0119 -0.1384  0.0583
  295loPI    C3 4707  11.303  17.776  10.046 -0.0995  0.1801  0.0233
  295loPI   PO4 4708  10.907  17.570   9.668 -0.2194 -0.1881  0.1294
  295loPI   GL1 4709  11.015  17.819   9.310 -0.0698 -0.3512 -0.1489
  295loPI   GL2 4710  11.012  17.936   8.980  0.1297 -0.0999  0.0660
  295loPI   C1A 4711  11.195  17.513   9.029 -0.3596  0.0007 -0.0204
  295loPI   C2A 4712  11.272  17.261   8.656 -0.1930 -0.0946 -0.0108
  295loPI   C3A 4713  11.343  17.193   8.235  0.2131  0.2858  0.2193
  295loPI   C4A 4714  11.133  17.295   7.845 -0.1734  0.1088  0.0275
  295loPI   C5A 4715  11.063  17.478   7.381  0.2706 -0.4020 -0.1960
  295loPI   C6A 4716  10.902  17.609   6.930 -0.0038  0.0939  0.0756
  295loPI   C1B 4717  11.076  17.804   8.594  0.1106  0.0250 -0.2780
  295loPI   C2B 4718  11.298  17.755   8.253  0.0551  0.3024  0.0749
  295loPI   C3B 4719  11.392  17.712   7.765  0.4161  0.4246 -0.2291
  295loPI   C4B 4720  11.637  17.795   7.438  0.0949 -0.0178  0.0376
  296loPI    C1 4721   0.012  18.451   9.373 -0.1251 -0.1380 -0.1261
  296loPI    C2 4722  -0.170  18.197   9.623  0.0691 -0.2529 -0.0996
  296loPI    C3 4723   0.122  18.436   9.758 -0.1473  0.0236 -0.1127
  296loPI   PO4 4724  -0.243  18.513   9.212 -0.3343 -0.0279 -0.2256
  296loPI   GL1 4725  -0.429  18.340   8.828 -0.0531  0.0919 -0.3219
  296loPI   GL2 4726  -0.571  18.658   8.839  0.1537 -0.4212 -0.1250
  296loPI   C1A 4727  -0.350  17.954   8.589 -0.1126 -0.0156 -0.0412
  296loPI   C2A 4728  -0.526  17.649   8.310 -0.1029 -0.2006 -0.1903
  296loPI   C3A 4729  -0.690  17.334   8.057  0.1292  0.1237  0.1218
  296loPI   C4A 4730  -0.849  17.260   7.702 -0.2007 -0.0596  0.1042
  296loPI   C5A 4731  -1.172  17.062   7.465  0.1861  0.4576  0.0975
  296loPI   C6A 4732  -1.479  16.761   7.219  0.0588  0.2203  0.2330
  296loPI   C1B 4733  -0.505  18.437   8.351  0.0903 -0.3980  0.0643
  296loPI   C2B 4734  -0.358  18.270   7.961 -0.1405 -0.0520  0.1719
  296loPI   C3B 4735  -0.270  18.190   7.609  0.1248  0.2351  0.0754
  296loPI   C4B 4736  -0.116  18.471   7.238  0.3593 -0.0510  0.4291
  297loPI    C1 4737   8.422   1.666  10.431  0.1809  0.0962 -0.1100
  297loPI    C2 4738   8.533   1.309  10.573 -0.1199 -0.0425 -0.2137
  297loPI    C3 4739   8.303   1.549  10.795 -0.0476  0.0210 -0.2069
  297loPI   PO4 4740   8.421   1.575  10.186  0.2229  0.0560  0.0775
  297loPI   GL1 4741   8.518   1.510   9.734  0.4680  0.1295 -0.0067
  297loPI   GL2 4742   8.158   1.442   9.702  0.0316  0.1996 -0.0415
  297loPI   C1A 4743   8.426   1.833   9.326 -0.1057  0.0963  0.0385
  297loPI   C2A 4744   8.199   2.103   9.046 -0.0010 -0.4402  0.0065
  297loPI   C3A 4745   8.238   2.087   8.650  0.1823 -0.0712  0.0821
  297loPI   C4A 4746   8.265   2.020   8.174 -0.3848 -0.2019 -0.0123
  297loPI   C5A 4747   8.383   1.923   7.745 -0.1698  0.0277  0.0334
  297loPI   C6A 4748   8.249   1.911   7.357 -0.3118 -0.5942  0.0771
  297loPI   C1B 4749   7.844   1.295   9.302 -0.2048  0.3605 -0.0248
  297loPI   C2B 4750   7.719   1.359   8.920  0.1636  0.1851  0.0994
  297loPI   C3B 4751   7.690   1.702   8.535 -0.0172  0.1753 -0.0755
  297loPI   C4B 4752   7.837   1.839   8.030  0.1581 -0.1859 -0.0773
  298loPI    C1 4753   6.330   3.804  10.015 -0.2544  0.1217 -0.0872
  298loPI    C2 4754   6.359   4.202   9.995  0.0553  0.0997 -0.1211
  298loPI    C3 4755   6.325   4.021  10.350 -0.2763  0.1663 -0.1162
  298loPI   PO4 4756   6.334   3.737   9.662 -0.1527  0.2454 -0.0721
  298loPI   GL1 4757   6.481   3.858   9.335  0.0946 -0.3894 -0.2241
  298loPI   GL2 4758   6.624   3.695   9.083  0.1094 -0.0308 -0.0613
  298loPI   C1A 4759   6.418   4.126   8.915 -0.1274  0.1335 -0.1390
  298loPI   C2A 4760   6.437   4.158   8.464 -0.0115  0.0531  0.0239
  298loPI   C3A 4761   6.594   4.170   8.007  0.1172 -0.1082  0.0170
  298loPI   C4A 4762   6.878   4.507   7.735  0.0587 -0.0342  0.0051
  298loPI   C5A 4763   6.839   4.613   7.354  0.0827 -0.0110  0.0446
  298loPI   C6A 4764   6.599   4.973   7.118  0.0162 -0.0192 -0.1808
  298loPI   C1B 4765   6.496   3.725   8.679  0.0296 -0.1159  0.0876
  298loPI   C2B 4766   6.567   3.648   8.206  0.0393  0.0565  0.1492
  298loPI   C3B 4767   6.528   3.657   7.785  0.2169  0.0128  0.2778
  298loPI   C4B 4768   6.423   3.771   7.335 -0.1595  0.0047  0.1735
  299loPI    C1 4769  12.913  13.574   9.872  0.2612 -0.1623 -0.2249
  299loPI    C2 4770  12.782  13.707  10.226  0.0578  0.1196 -0.4025
  299loPI    C3 4771  13.003  13.374  10.207 -0.1941 -0.0746 -0.0439
  299loPI   PO4 4772  12.728  13.537   9.632  0.2411 -0.1427  0.1670
  299loPI   GL1 4773  12.692  13.603   9.211  0.2067 -0.0366 -0.0426
  299loPI   GL2 4774  12.456  13.706   9.068 -0.0690  0.0408  0.1450
  299loPI   C1A 4775  12.747  13.511   8.746 -0.0672  0.0057 -0.1501
  299loPI   C2A 4776  12.620  13.427   8.297  0.1393 -0.0264 -0.0764
  299loPI   C3A 4777  12.800  13.405   7.849 -0.2335 -0.1117 -0.0584
  299loPI   C4A 4778  12.946  13.239   7.447  0.2745 -0.0732  0.3097
  299loPI   C5A 4779  12.830  12.926   7.170 -0.2591 -0.0352 -0.1332
  299loPI   C6A 4780  12.315  12.893   7.112  0.0419  0.1636  0.0316
  299loPI   C1B 4781  12.173  13.532   8.715 -0.0388  0.1213  0.3778
  299loPI   C2B 4782  12.149  13.522   8.223 -0.2575  0.1080 -0.0061
  299loPI   C3B 4783  12.300  13.393   7.837  0.0364  0.4460 -0.0563
  299loPI   C4B 4784  12.488  13.194   7.543  0.0275 -0.2286 -0.0143
  300loPI    C1 4785  12.947   2.399  10.487  0.0180  0.2213  0.1191
  300loPI    C2 4786  13.330   2.514  10.471  0.0254  0.1730 -0.0757
  300loPI    C3 4787  13.100   2.626  10.779  0.1440  0.3623 -0.0544
  300loPI   PO4 4788  12.857   2.425  10.283  0.1475  0.2978  0.1569
  300loPI   GL1 4789  12.751   2.564   9.830 -0.1832  0.0420  0.1848
  300loPI   GL2 4790  12.705   2.674   9.636 -0.3251 -0.1618  0.2860
  300loPI   C1A 4791  12.578   2.212   9.538 -0.0634 -0.2150 -0.2827
  300loPI   C2A 4792  12.290   2.082   9.180  0.0592  0.1530 -0.2168
  300loPI   C3A 4793  12.277   1.965   8.639 -0.0685  0.4529  0.0770
  300loPI   C4A 4794  12.369   1.565   8.326 -0.4318 -0.1832  0.0978
  300loPI   C5A 4795  11.980   1.261   8.280 -0.1896 -0.0081  0.2789
  300loPI   C6A 4796  11.981   1.039   7.860 -0.1098  0.0815 -0.1177
  300loPI   C1B 4797  12.579   2.513   9.142  0.0863 -0.1529  0.0574
  300loPI   C2B 4798  12.562   2.379   8.745 -0.2881  0.0903 -0.1877
  300loPI   C3B 4799  12.498   2.441   8.199  0.0656  0.0719  0.3876
  300loPI   C4B 4800  12.302   2.355   7.822 -0.1697  0.1833  0.0656
  301loPI    C1 4801   1.358  13.376   9.775 -0.1551  0.3757 -0.1094
  301loPI    C2 4802   1.293  13.426  10.166  0.2330  0.1046 -0.0034
  301loPI    C3 4803   0.996  13.303   9.928  0.0372  0.1101  0.2336
  301loPI   PO4 4804   1.600  13.201   9.743  0.1272  0.0194  0.2237
  301loPI   GL1 4805   1.790  12.934   9.449 -0.1114  0.0152  0.5008
  301loPI   GL2 4806   2.168  12.818   9.396 -0.1063 -0.1199  0.0386
  301loPI   C1A 4807   1.726  12.865   8.907  0.1100 -0.1506  0.0789
  301loPI   C2A 4808   1.748  12.683   8.482 -0.3012  0.1090  0.3463
  301loPI   C3A 4809   1.760  12.472   7.999 -0.2175  0.3698  0.1465
  301loPI   C4A 4810   1.789  12.318   7.672 -0.0851  0.1270  0.4213
  301loPI   C5A 4811   1.898  12.018   7.449  0.1347  0.6088 -0.0794
  301loPI   C6A 4812   2.187  11.675   7.394 -0.0612 -0.0655  0.1292
  301loPI   C1B 4813   2.136  13.351   9.194  0.0231  0.1508 -0.0924
  301loPI   C2B 4814   2.253  13.567   8.762 -0.0626 -0.3281 -0.0513
  301loPI   C3B 4815   2.370  13.456   8.375 -0.5172  0.1295 -0.2720
  301loPI   C4B 4816   2.391  13.137   8.010 -0.0815 -0.1145 -0.0741
  302loPI    C1 4817  18.964   1.622   9.452 -0.1120 -0.1348  0.0845
  302loPI    C2 4818  19.025   1.254   9.597  0.0240 -0.1321  0.0363
  302loPI    C3 4819  18.997   1.566   9.846  0.4232 -0.1039  0.0515
  302loPI   PO4 4820  18.877   1.661   9.208 -0.0770 -0.3911  0.1601
  302loPI   GL1 4821  18.579   1.592   8.971  0.1730 -0.0291 -0.3661
  302loPI   GL2 4822  18.656   1.838   8.791 -0.3732 -0.0211 -0.3860
  302loPI   C1A 4823  18.370   1.444   8.625 -0.3270 -0.0353 -0.0938
  302loPI   C2A 4824  18.241   1.510   8.232  0.1966 -0.0686 -0.1527
  302loPI   C3A 4825  18.199   1.720   7.852 -0.0894 -0.0994 -0.0100
  302loPI   C4A 4826  18.053   1.777   7.596  0.1924  0.0665 -0.0467
  302loPI   C5A 4827  18.066   2.106   7.330 -0.3458 -0.0303 -0.2150
  302loPI   C6A 4828  17.666   2.424   7.332 -0.0709 -0.0394  0.0542
  302loPI   C1B 4829  18.729   1.700   8.380  0.0818  0.0012 -0.2501
  302loPI   C2B 4830  18.766   1.772   7.812  0.2202 -0.2960  0.0619
  302loPI   C3B 4831  18.883   1.751   7.249  0.1844  0.0364 -0.4473
  302loPI   C4B 4832  18.595   1.525   6.975 -0.1264 -0.3300  0.2298
  303loPI    C1 4833  10.563  16.539  10.072  0.3305  0.0530  0.0935
  303loPI    C2 4834  10.372  16.666  10.399  0.1047 -0.2526  0.0845
  303loPI    C3 4835  10.593  16.333  10.413  0.1787 -0.2101 -0.0490
  303loPI   PO4 4836  10.381  16.547   9.814 -0.0978  0.1700  0.2442
  303loPI   GL1 4837  10.377  16.510   9.371  0.0695 -0.3880 -0.1316
  303loPI   GL2 4838  10.387  16.229   9.313  0.1428 -0.2462  0.0096
  303loPI   C1A 4839  10.502  16.615   8.938 -0.2050 -0.0795  0.2981
  303loPI   C2A 4840  10.463  16.613   8.569  0.2795  0.1061  0.2444
  303loPI   C3A 4841  10.459  16.650   8.129  0.5533 -0.0318  0.1829
  303loPI   C4A 4842  10.285  16.657   7.746 -0.0561  0.1669 -0.0036
  303loPI   C5A 4843  10.156  16.616   7.413 -0.0941 -0.1733  0.1742
  303loPI   C6A 4844  10.164  16.824   7.135 -0.4627 -0.3156 -0.0719
  303loPI   C1B 4845  10.211  16.190   8.977  0.2371  0.0645  0.1515
  303loPI   C2B 4846  10.300  16.139   8.616 -0.3071  0.2008  0.4324
  303loPI   C3B 4847  10.250  16.186   8.186 -0.0442 -0.2440 -0.0623
  303loPI   C4B 4848  10.490  16.177   7.894 -0.0768 -0.2278 -0.0595
  304loPI    C1 4849   6.290  10.157   9.471 -0.2035  0.2521 -0.0940
  304loPI    C2 4850   6.675  10.217   9.382 -0.2075  0.0368 -0.2643
  304loPI    C3 4851   6.515  10.390   9.706  0.0693  0.0094 -0.1096
  304loPI   PO4 4852   6.063  10.291   9.275  0.2793  0.0343  0.0893
  304loPI   GL1 4853   5.954  10.478   8.955  0.1270 -0.0044  0.0835
  304loPI   GL2 4854   5.860  10.774   9.032 -0.2990  0.0209 -0.1235
  304loPI   C1A 4855   5.906  10.372   8.467 -0.0383  0.1953 -0.2937
  304loPI   C2A 4856   5.841  10.403   8.130  0.3710 -0.1443  0.1253
  304loPI   C3A 4857   5.903  10.410   7.700  0.2762 -0.2174 -0.0475
  304loPI   C4A 4858   6.079  10.437   7.328  0.1170 -0.0905 -0.0072
  304loPI   C5A 4859   6.538  10.365   7.204  0.0082 -0.0741 -0.0970
  304loPI   C6A 4860   6.952  10.312   7.262  0.0851  0.1071 -0.2186
  304loPI   C1B 4861   5.897  11.094   8.788  0.0668  0.0012 -0.1603
  304loPI   C2B 4862   5.649  11.362   8.393 -0.3203 -0.3028  0.0865
  304loPI   C3B 4863   5.659  11.179   7.982 -0.0720  0.2320 -0.0727
  304loPI   C4B 4864   5.593  11.253   7.548  0.2186 -0.3340 -0.1453
  305loPI    C1 4865  17.515   5.645   9.820  0.0218  0.0450 -0.0103
  305loPI    C2 4866  17.602   5.299  10.000  0.2797 -0.0077 -0.2314
  305loPI    C3 4867  17.424   5.592  10.206  0.2097 -0.2105  0.0006
  305loPI   PO4 4868  17.372   5.710   9.565  0.1480  0.1301 -0.2447
  305loPI   GL1 4869  17.761   5.808   9.346 -0.0310 -0.0351 -0.2125
  305loPI   GL2 4870  18.033   5.594   9.306 -0.1099 -0.0967  0.1134
  305loPI   C1A 4871  17.754   5.881   8.914  0.2277  0.3415  0.0167
  305loPI   C2A 4872  17.523   6.091   8.640  0.2895 -0.1158 -0.0154
  305loPI   C3A 4873  17.528   6.263   8.218  0.1346  0.0170 -0.0045
  305loPI   C4A 4874  17.622   6.646   7.999  0.2182 -0.1217  0.0797
  305loPI   C5A 4875  17.705   6.973   7.724  0.1186  0.1640 -0.0400
  305loPI   C6A 4876  18.077   7.078   7.392  0.2455  0.2165 -0.0012
  305loPI   C1B 4877  18.146   5.180   8.934  0.2691 -0.0255 -0.1065
  305loPI   C2B 4878  17.853   4.980   8.713 -0.0139  0.0902  0.0183
  305loPI   C3B 4879  17.781   4.959   8.337  0.0749  0.4941  0.2790
  305loPI   C4B 4880  17.889   5.093   7.925 -0.1236 -0.2161  0.1053
  306loPI    C1 4881   4.936   9.785   9.832  0.0301  0.1167  0.1463
  306loPI    C2 4882   4.972  10.183   9.848  0.3616  0.0959  0.0151
  306loPI    C3 4883   4.917   9.973  10.184 -0.0654  0.2691  0.0613
  306loPI   PO4 4884   5.103   9.743   9.598  0.1587  0.0113 -0.1742
  306loPI   GL1 4885   5.223   9.808   9.125 -0.0400  0.2179 -0.0972
  306loPI   GL2 4886   4.864   9.676   9.154  0.0439  0.1376 -0.0288
  306loPI   C1A 4887   5.019   9.659   8.654  0.3303 -0.3460 -0.0889
  306loPI   C2A 4888   5.184   9.402   8.334 -0.1125  0.0978 -0.2562
  306loPI   C3A 4889   5.344   9.551   7.922  0.1951 -0.2182  0.0195
  306loPI   C4A 4890   5.282   9.811   7.600  0.2636  0.0400  0.0298
  306loPI   C5A 4891   5.341   9.771   7.271 -0.0441 -0.2077 -0.0586
  306loPI   C6A 4892   5.175   9.604   7.000  0.0667 -0.0813  0.0333
  306loPI   C1B 4893   4.585   9.947   9.105  0.3013  0.1052  0.3870
  306loPI   C2B 4894   4.213  10.060   8.795 -0.0962  0.2345 -0.0490
  306loPI   C3B 4895   4.200  10.039   8.363 -0.1263  0.2925 -0.1198
  306loPI   C4B 4896   4.432   9.875   8.111  0.1662 -0.1796 -0.0631
  307loPI    C1 4897   3.389   8.356   9.965  0.0925  0.0990  0.2438
  307loPI    C2 4898   3.157   8.604   9.752  0.0701 -0.0987  0.0345
  307loPI    C3 4899   3.129   8.597  10.151 -0.1727 -0.0090  0.0203
  307loPI   PO4 4900   3.417   8.120   9.712 -0.2480 -0.2792 -0.2433
  307loPI   GL1 4901   3.158   8.042   9.480 -0.3100  0.4062 -0.1638
  307loPI   GL2 4902   3.486   7.962   9.203 -0.0284  0.0441  0.0547
  307loPI   C1A 4903   3.076   8.332   9.099 -0.1102  0.0223 -0.0481
  307loPI   C2A 4904   3.192   8.704   8.986 -0.0334 -0.0009 -0.0193
  307loPI   C3A 4905   3.358   8.839   8.610  0.0695 -0.2104 -0.1782
  307loPI   C4A 4906   3.401   9.246   8.582 -0.1786 -0.0214 -0.0299
  307loPI   C5A 4907   3.608   9.367   8.200 -0.1182 -0.0508  0.0890
  307loPI   C6A 4908   3.943   9.099   7.939 -0.2519 -0.0359  0.2878
  307loPI   C1B 4909   3.457   7.952   8.779 -0.0689  0.0872  0.0730
  307loPI   C2B 4910   3.330   7.978   8.292  0.0338  0.1166  0.0722
  307loPI   C3B 4911   3.329   7.893   7.786  0.3839  0.0423 -0.2394
  307loPI   C4B 4912   3.267   7.846   7.402 -0.0121 -0.2450  0.0556
  308loPI    C1 4913   4.180   1.288   9.889  0.0481 -0.3198  0.0365
  308loPI    C2 4914   4.331   1.522  10.176  0.1103 -0.2515 -0.0511
  308loPI    C3 4915   3.985   1.330  10.236 -0.0653  0.0540 -0.0679
  308loPI   PO4 4916   4.427   1.459   9.707 -0.2478  0.3084  0.0355
  308loPI   GL1 4917   4.406   1.377   9.283 -0.0979 -0.1958  0.0263
  308loPI   GL2 4918   4.235   1.418   9.022 -0.1510  0.0488  0.1812
  308loPI   C1A 4919   4.614   1.718   8.901  0.0579  0.3510  0.1855
  308loPI   C2A 4920   4.731   1.909   8.437 -0.1252 -0.3634 -0.0165
  308loPI   C3A 4921   4.769   1.765   7.925 -0.0936  0.0828 -0.1293
  308loPI   C4A 4922   5.031   1.713   7.600 -0.1615 -0.1860 -0.0428
  308loPI   C5A 4923   5.253   1.433   7.447  0.1670 -0.1806  0.1079
  308loPI   C6A 4924   5.485   1.427   6.931 -0.0384 -0.1768 -0.2741
  308loPI   C1B 4925   4.455   1.280   8.707  0.3367 -0.0094 -0.0509
  308loPI   C2B 4926   4.615   1.422   8.277  0.1821 -0.3651 -0.0355
  308loPI   C3B 4927   4.735   1.258   7.860 -0.1258 -0.3210 -0.0944
  308loPI   C4B 4928   4.677   1.254   7.400  0.2865  0.0073  0.1487
  309loPI    C1 4929   4.454   8.297   9.853 -0.1263 -0.2124 -0.0034
  309loPI    C2 4930   4.797   8.386  10.037 -0.1551  0.1731 -0.1262
  309loPI    C3 4931   4.466   8.320  10.252 -0.0344 -0.0801 -0.0131
  309loPI   PO4 4932   4.433   8.508   9.571 -0.1757  0.1566 -0.0784
  309loPI   GL1 4933   4.203   8.376   9.174  0.0954  0.0697  0.1109
  309loPI   GL2 4934   4.092   8.659   9.141 -0.0501  0.0228  0.2303
  309loPI   C1A 4935   4.231   8.131   8.782  0.3339  0.1286 -0.2532
  309loPI   C2A 4936   4.249   8.146   8.371  0.1849  0.0521  0.0713
  309loPI   C3A 4937   4.303   8.051   7.902 -0.3140 -0.0693  0.1254
  309loPI   C4A 4938   4.601   8.054   7.622 -0.0661 -0.0705  0.0325
  309loPI   C5A 4939   4.751   8.211   7.222 -0.1329  0.3830 -0.1613
  309loPI   C6A 4940   5.079   8.402   7.172  0.2444  0.0611 -0.3624
  309loPI   C1B 4941   4.198   8.631   8.672 -0.3090 -0.0218  0.0733
  309loPI   C2B 4942   4.090   8.665   8.272  0.2501  0.1138  0.1044
  309loPI   C3B 4943   3.930   8.611   7.858  0.2369 -0.0764 -0.0969
  309loPI   C4B 4944   4.163   8.445   7.430  0.1357 -0.0563 -0.1108
  310loPI    C1 4945   2.236   0.925   9.877 -0.0440  0.0177 -0.0565
  310loPI    C2 4946   2.579   0.720   9.850 -0.2220 -0.3149  0.1441
  310loPI    C3 4947   2.420   0.798  10.209 -0.3262 -0.1088  0.0548
  310loPI   PO4 4948   2.046   0.786   9.583  0.2585 -0.1457  0.0967
  310loPI   GL1 4949   2.111   0.915   9.150 -0.0383 -0.1548  0.1219
  310loPI   GL2 4950   2.308   1.103   9.029 -0.1737 -0.0713 -0.0736
  310loPI   C1A 4951   1.979   0.749   8.654 -0.2686 -0.0272 -0.2115
  310loPI   C2A 4952   1.878   0.843   8.204  0.1049  0.2505 -0.0547
  310loPI   C3A 4953   2.108   0.742   7.804  0.2643 -0.0949  0.0173
  310loPI   C4A 4954   2.530   0.547   7.794 -0.4167 -0.1152 -0.2040
  310loPI   C5A 4955   2.794   0.529   7.483  0.2685 -0.0106 -0.0947
  310loPI   C6A 4956   2.856   0.285   7.114 -0.1795 -0.1653 -0.1904
  310loPI   C1B 4957   2.325   1.147   8.596  0.0161 -0.3033  0.1679
  310loPI   C2B 4958   2.415   1.575   8.389  0.1206  0.0755 -0.3101
  310loPI   C3B 4959   2.808   1.748   8.300  0.0786  0.0873 -0.1257
  310loPI   C4B 4960   3.154   1.709   8.144 -0.2426  0.1025  0.0104
  311loPI    C1 4961  12.598  11.654   9.755 -0.2469  0.2030 -0.1259
  311loPI    C2 4962  12.260  11.667   9.968 -0.1684  0.1193  0.0053
  311loPI    C3 4963  12.610  11.744  10.145 -0.1258  0.2832 -0.1476
  311loPI   PO4 4964  12.582  11.821   9.499  0.2544 -0.1175 -0.2236
  311loPI   GL1 4965  12.908  11.923   9.193 -0.2720  0.2774 -0.0044
  311loPI   GL2 4966  13.012  12.204   9.104  0.1346 -0.1540 -0.0929
  311loPI   C1A 4967  12.890  11.702   8.927  0.4658  0.1037 -0.1232
  311loPI   C2A 4968  12.975  11.348   8.567 -0.2827 -0.1942  0.0339
  311loPI   C3A 4969  12.984  11.319   8.202  0.0322  0.0311 -0.2714
  311loPI   C4A 4970  13.091  11.314   7.792  0.0045 -0.1787  0.0465
  311loPI   C5A 4971  12.966  11.556   7.444 -0.3232  0.0939 -0.2391
  311loPI   C6A 4972  13.220  11.805   7.183  0.1738 -0.3730  0.1213
  311loPI   C1B 4973  13.184  12.184   8.634 -0.1553  0.0806  0.2764
  311loPI   C2B 4974  13.267  12.138   8.295 -0.2558  0.2858  0.3549
  311loPI   C3B 4975  13.227  11.795   7.978 -0.1861 -0.3434  0.0293
  311loPI   C4B 4976  13.419  11.795   7.651 -0.0561  0.1928  0.3128
  312loPI    C1 4977  17.594  12.779   9.941  0.0091 -0.0897 -0.0995
  312loPI    C2 4978  17.312  12.589  10.152  0.0008 -0.0250 -0.0522
  312loPI    C3 4979  17.628  12.749  10.338  0.0974 -0.1460 -0.1111
  312loPI   PO4 4980  17.658  12.737   9.687  0.2786 -0.0662 -0.1016
  312loPI   GL1 4981  17.508  12.685   9.295  0.3163  0.0084  0.2016
  312loPI   GL2 4982  17.494  12.950   9.216  0.1698 -0.2537  0.0805
  312loPI   C1A 4983  17.224  12.524   8.946 -0.1328  0.2142  0.1326
  312loPI   C2A 4984  17.445  12.359   8.678 -0.2796 -0.2397  0.2839
  312loPI   C3A 4985  17.628  12.465   8.258  0.1627  0.1584 -0.0512
  312loPI   C4A 4986  17.822  12.418   7.936 -0.3979 -0.1109 -0.1065
  312loPI   C5A 4987  18.120  12.344   7.632  0.0442  0.0443  0.0624
  312loPI   C6A 4988  18.536  12.456   7.549  0.2872 -0.1365 -0.0466
  312loPI   C1B 4989  17.512  12.874   8.793  0.1177 -0.0086  0.1162
  312loPI   C2B 4990  17.427  12.993   8.353 -0.2330 -0.1055  0.1495
  312loPI   C3B 4991  17.533  12.953   7.847 -0.1476 -0.1397 -0.0582
  312loPI   C4B 4992  17.256  13.015   7.553  0.0185 -0.0091  0.1671
  313loPI    C1 4993  13.946   4.074   9.712  0.0281 -0.0311 -0.1633
  313loPI    C2 4994  14.030   3.855  10.036 -0.0191  0.1612 -0.0190
  313loPI    C3 4995  13.981   3.677   9.681 -0.3304 -0.0925  0.1459
  313loPI   PO4 4996  13.774   4.247   9.701  0.0939 -0.2060 -0.4839
  313loPI   GL1 4997  13.785   4.430   9.261  0.0669  0.0094 -0.3215
  313loPI   GL2 4998  13.943   4.107   9.177  0.0939  0.2970 -0.0726
  313loPI   C1A 4999  13.596   4.312   8.904  0.4218 -0.0866  0.2265
  313loPI   C2A 5000  13.359   4.027   8.625  0.1461  0.1223 -0.0119
  313loPI   C3A 5001  13.470   3.698   8.254  0.0739  0.0849  0.0576
  313loPI   C4A 5002  13.452   3.527   7.905  0.0365  0.0379 -0.0541
  313loPI   C5A 5003  13.190   3.414   7.525 -0.2980 -0.0498 -0.1943
  313loPI   C6A 5004  12.880   3.662   7.397 -0.0841  0.0429  0.0484
  313loPI   C1B 5005  13.984   4.092   8.728  0.0371 -0.2416 -0.1019
  313loPI   C2B 5006  13.885   4.086   8.339  0.1346  0.2151  0.2535
  313loPI   C3B 5007  13.780   4.184   7.835  0.0541 -0.1833 -0.1330
  313loPI   C4B 5008  13.832   4.140   7.470 -0.1941 -0.3888  0.1117
  314loPI    C1 5009   5.390  16.190   9.919 -0.0929  0.1416  0.2167
  314loPI    C2 5010   5.565  16.257   9.566 -0.2943 -0.2022  0.0465
  314loPI    C3 5011   5.754  16.355   9.904 -0.1243  0.1865 -0.1540
  314loPI   PO4 5012   5.187  16.085   9.807  0.0026 -0.0885  0.1535
  314loPI   GL1 5013   5.028  15.966   9.396 -0.0771 -0.0436  0.0792
  314loPI   GL2 5014   5.234  15.842   9.321 -0.1847 -0.1012  0.0177
  314loPI   C1A 5015   5.134  16.135   8.938  0.5501 -0.2536  0.0268
  314loPI   C2A 5016   5.062  16.315   8.545 -0.1759  0.0739 -0.1633
  314loPI   C3A 5017   5.034  16.437   8.191  0.1010  0.0050 -0.0344
  314loPI   C4A 5018   5.065  16.575   7.744 -0.1971 -0.0125  0.1727
  314loPI   C5A 5019   5.124  16.666   7.294  0.0373 -0.2966 -0.0603
  314loPI   C6A 5020   5.269  17.045   7.199  0.0737  0.0486 -0.0139
  314loPI   C1B 5021   5.325  15.732   8.962  0.0912  0.3248 -0.0683
  314loPI   C2B 5022   5.105  15.788   8.541 -0.0383  0.0641  0.0195
  314loPI   C3B 5023   5.148  15.869   8.114 -0.3030 -0.0977  0.0755
  314loPI   C4B 5024   5.097  15.811   7.707 -0.2083 -0.1132 -0.0980
  315loPI    C1 5025   7.251   9.035   9.795 -0.0663 -0.1549  0.1280
  315loPI    C2 5026   7.392   8.677   9.688  0.1617 -0.0706  0.1394
  315loPI    C3 5027   7.056   8.704   9.903 -0.0608 -0.2599 -0.1753
  315loPI   PO4 5028   7.313   9.172   9.554 -0.0515  0.0275  0.1465
  315loPI   GL1 5029   7.196   9.105   9.079 -0.0125  0.2580  0.1214
  315loPI   GL2 5030   7.340   8.740   9.154  0.0508 -0.1812 -0.2370
  315loPI   C1A 5031   7.145   9.042   8.617  0.3384 -0.1409  0.2288
  315loPI   C2A 5032   7.143   9.130   8.190  0.1628  0.1172  0.0492
  315loPI   C3A 5033   7.193   9.086   7.823  0.2730  0.1382 -0.0045
  315loPI   C4A 5034   7.301   9.303   7.412  0.0442 -0.1359 -0.1688
  315loPI   C5A 5035   7.200   9.478   7.020  0.3310 -0.1571  0.2326
  315loPI   C6A 5036   6.921   9.576   6.725 -0.0210  0.1372  0.1224
  315loPI   C1B 5037   7.247   8.556   8.735 -0.1631  0.3745 -0.0397
  315loPI   C2B 5038   7.272   8.511   8.348  0.0216 -0.5164  0.1864
  315loPI   C3B 5039   7.214   8.659   8.044  0.0426  0.1797 -0.0071
  315loPI   C4B 5040   7.139   8.603   7.673  0.0888  0.0178 -0.0882
  316loPI    C1 5041   1.777   5.765   9.478 -0.0661 -0.0002  0.0316
  316loPI    C2 5042   2.117   5.573   9.566  0.0052  0.0866 -0.0522
  316loPI    C3 5043   1.841   5.630   9.849  0.0922  0.0799  0.0345
  316loPI   PO4 5044   1.808   5.753   9.215  0.1453  0.0941  0.0164
  316loPI   GL1 5045   1.920   6.045   8.913 -0.2620 -0.3817 -0.1130
  316loPI   GL2 5046   1.685   6.056   8.813 -0.0679  0.0673 -0.2110
  316loPI   C1A 5047   2.178   6.338   8.596 -0.1041  0.1325  0.1047
  316loPI   C2A 5048   2.282   6.329   8.098  0.0738 -0.1047  0.0582
  316loPI   C3A 5049   2.225   6.547   7.757  0.3054 -0.3198  0.3409
  316loPI   C4A 5050   1.804   6.486   7.547  0.1806  0.1248  0.0721
  316loPI   C5A 5051   1.568   6.650   7.174  0.1213 -0.1201  0.3306
  316loPI   C6A 5052   1.411   7.051   7.192  0.3082  0.0387 -0.2242
  316loPI   C1B 5053   1.782   5.954   8.360  0.2219  0.1510 -0.1757
  316loPI   C2B 5054   1.782   6.118   7.941 -0.1254  0.0890  0.0371
  316loPI   C3B 5055   1.479   5.995   7.736  0.2460  0.0480 -0.1766
  316loPI   C4B 5056   1.203   6.200   7.533  0.0694  0.0191 -0.1481
  317loPI    C1 5057  13.445   5.697   9.748  0.1848  0.1620  0.0365
  317loPI    C2 5058  13.437   5.855  10.115  0.1938 -0.1380  0.1682
  317loPI    C3 5059  13.254   5.507  10.043  0.3201 -0.1563 -0.0763
  317loPI   PO4 5060  13.334   5.865   9.562 -0.1532 -0.2242  0.0920
  317loPI   GL1 5061  13.272   6.195   9.223 -0.0632  0.1347 -0.0516
  317loPI   GL2 5062  13.492   6.479   9.277  0.2235  0.2243  0.2453
  317loPI   C1A 5063  13.169   6.065   8.839  0.0477  0.1672 -0.0319
  317loPI   C2A 5064  13.056   6.115   8.493 -0.1910 -0.1759  0.3182
  317loPI   C3A 5065  12.621   6.130   8.449  0.0459  0.1325  0.0839
  317loPI   C4A 5066  12.468   6.067   8.060 -0.2404 -0.0063  0.0782
  317loPI   C5A 5067  12.371   6.029   7.664  0.1212 -0.1372  0.1757
  317loPI   C6A 5068  12.529   6.105   7.300  0.2289 -0.2811  0.1327
  317loPI   C1B 5069  13.279   6.542   8.894  0.1049  0.1077  0.1544
  317loPI   C2B 5070  13.202   6.633   8.418 -0.0225  0.3343 -0.1729
  317loPI   C3B 5071  13.262   6.452   8.024 -0.0012  0.2892  0.2705
  317loPI   C4B 5072  13.703   6.477   7.780  0.0066  0.3629 -0.0899
  318loPI    C1 5073  17.708   0.322   9.459  0.0493 -0.1728 -0.1034
  318loPI    C2 5074  17.453   0.111   9.684 -0.1038  0.1009 -0.0146
  318loPI    C3 5075  17.791   0.252   9.844  0.0107 -0.0949 -0.0806
  318loPI   PO4 5076  17.579   0.260   9.230  0.0507 -0.2921 -0.0367
  318loPI   GL1 5077  17.350   0.470   8.793 -0.1312  0.0134  0.2130
  318loPI   GL2 5078  17.140   0.457   8.605 -0.1201 -0.0839  0.3596
  318loPI   C1A 5079  17.626   0.653   8.413 -0.1610 -0.3969  0.1403
  318loPI   C2A 5080  17.673   0.675   8.025 -0.0578 -0.1900  0.0990
  318loPI   C3A 5081  17.532   0.437   7.651 -0.2865  0.0713 -0.1522
  318loPI   C4A 5082  17.623   0.123   7.312 -0.1333  0.2240 -0.2261
  318loPI   C5A 5083  17.670  -0.007   7.080 -0.3568  0.1065 -0.3377
  318loPI   C6A 5084  17.931  -0.148   6.793 -0.0777 -0.2434 -0.0408
  318loPI   C1B 5085  17.260   0.411   8.070  0.1292  0.0398 -0.0197
  318loPI   C2B 5086  17.281   0.043   7.723 -0.3011 -0.3269  0.0792
  318loPI   C3B 5087  17.531  -0.268   7.699 -0.2089 -0.0425 -0.0051
  318loPI   C4B 5088  17.818  -0.336   7.487 -0.2931  0.1261  0.1567
  319loPI    C1 5089   5.248   8.086   9.405 -0.2477  0.1454  0.0461
  319loPI    C2 5090   5.247   8.058   9.804 -0.0025 -0.1152  0.0318
  319loPI    C3 5091   4.905   8.023   9.601 -0.1368  0.0743  0.2204
  319loPI   PO4 5092   5.456   8.347   9.459  0.0428 -0.0411  0.3525
  319loPI   GL1 5093   5.838   8.433   9.131  0.1025 -0.2666  0.0019
  319loPI   GL2 5094   6.012   8.628   9.112 -0.0815  0.0784 -0.1667
  319loPI   C1A 5095   5.792   8.395   8.723 -0.0098  0.1675 -0.0507
  319loPI   C2A 5096   5.644   8.463   8.326  0.3105 -0.3934 -0.2784
  319loPI   C3A 5097   5.600   8.550   7.907  0.1021  0.0461  0.0194
  319loPI   C4A 5098   5.440   8.665   7.575  0.1094  0.2946 -0.0629
  319loPI   C5A 5099   5.592   8.795   7.179 -0.0744 -0.0164 -0.4522
  319loPI   C6A 5100   5.463   9.120   6.780  0.2190 -0.1755 -0.3014
  319loPI   C1B 5101   6.053   8.772   8.643  0.0393  0.2074  0.3066
  319loPI   C2B 5102   6.139   9.042   8.314 -0.1963 -0.4431  0.0159
  319loPI   C3B 5103   6.274   9.109   7.860 -0.1817 -0.1241 -0.4155
  319loPI   C4B 5104   6.392   9.381   7.525 -0.0919 -0.0365  0.0096
  320loPI    C1 5105   8.838   9.559   9.486  0.1199 -0.0932 -0.1176
  320loPI    C2 5106   8.773   9.626   9.875 -0.1905 -0.0909 -0.1666
  320loPI    C3 5107   9.075   9.390   9.760  0.0762  0.1317  0.0619
  320loPI   PO4 5108   8.682   9.792   9.413 -0.2243 -0.2111 -0.1680
  320loPI   GL1 5109   8.421   9.990   9.179  0.0346 -0.0483  0.3389
  320loPI   GL2 5110   8.751  10.129   8.980 -0.0415  0.1340 -0.0444
  320loPI   C1A 5111   8.441   9.725   8.828  0.2176 -0.0407  0.1092
  320loPI   C2A 5112   8.487   9.801   8.423  0.0383 -0.0694 -0.1219
  320loPI   C3A 5113   8.454   9.767   8.056 -0.0239  0.0103 -0.0880
  320loPI   C4A 5114   8.357  10.063   7.799 -0.0658 -0.2170 -0.0747
  320loPI   C5A 5115   8.420  10.288   7.445 -0.0730  0.3544  0.3906
  320loPI   C6A 5116   8.553  10.561   7.068 -0.1145 -0.2451 -0.1697
  320loPI   C1B 5117   8.890  10.217   8.591 -0.0045 -0.2512  0.0776
  320loPI   C2B 5118   8.796  10.213   8.150  0.1456 -0.0171  0.0125
  320loPI   C3B 5119   8.621  10.446   7.891 -0.3412  0.0284 -0.2289
  320loPI   C4B 5120   8.385  10.826   7.634  0.0168  0.2249 -0.0993
  321loPI    C1 5121  14.882  15.558   9.736  0.0745  0.1411 -0.0875
  321loPI    C2 5122  14.882  15.955   9.684  0.1719  0.1562  0.0246
  321loPI    C3 5123  15.086  15.792   9.988  0.2028  0.0136 -0.0713
  321loPI   PO4 5124  14.962  15.413   9.514 -0.0701  0.1403 -0.1782
  321loPI   GL1 5125  14.834  15.342   9.131 -0.2938  0.2423  0.0871
  321loPI   GL2 5126  14.717  15.104   8.911  0.0487 -0.1223 -0.1625
  321loPI   C1A 5127  15.180  15.389   8.774  0.1294  0.0619  0.2873
  321loPI   C2A 5128  15.062  15.466   8.316 -0.0187 -0.2599 -0.1687
  321loPI   C3A 5129  15.388  15.379   8.023  0.0198  0.0884 -0.2598
  321loPI   C4A 5130  15.648  15.200   7.803 -0.1751  0.0770 -0.1446
  321loPI   C5A 5131  15.555  15.152   7.423 -0.1550 -0.3467 -0.1592
  321loPI   C6A 5132  15.439  14.893   7.118  0.0456  0.2970 -0.2873
  321loPI   C1B 5133  14.582  15.290   8.502  0.0767 -0.0877 -0.1131
  321loPI   C2B 5134  14.228  15.483   8.437 -0.5742 -0.0078 -0.3885
  321loPI   C3B 5135  14.270  15.918   8.528 -0.0025 -0.0426  0.0631
  321loPI   C4B 5136  14.191  16.241   8.681  0.1494 -0.1797 -0.0101
  322loPI    C1 5137   6.906  11.195   9.758  0.0057  0.1087 -0.0206
  322loPI    C2 5138   6.708  11.433   9.504  0.1105  0.2315  0.0113
  322loPI    C3 5139   6.599  11.416   9.889 -0.2167 -0.1538 -0.0914
  322loPI   PO4 5140   7.138  11.213   9.774  0.1029  0.0412  0.2066
  322loPI   GL1 5141   7.422  11.267   9.437  0.3866  0.0987  0.0138
  322loPI   GL2 5142   7.194  11.069   9.303 -0.1028  0.1778  0.1600
  322loPI   C1A 5143   7.505  11.343   9.061  0.0322 -0.0694 -0.0383
  322loPI   C2A 5144   7.411  11.455   8.686  0.0061  0.1321  0.0238
  322loPI   C3A 5145   7.175  11.506   8.386 -0.1576 -0.0806 -0.0331
  322loPI   C4A 5146   7.015  11.276   7.985 -0.0338  0.0631 -0.3011
  322loPI   C5A 5147   7.083  11.433   7.691 -0.0853  0.1509  0.2270
  322loPI   C6A 5148   7.359  11.629   7.328  0.2212 -0.1728 -0.3362
  322loPI   C1B 5149   7.234  11.009   8.751  0.0592  0.0295  0.2645
  322loPI   C2B 5150   7.462  11.055   8.352  0.1455  0.1294  0.3532
  322loPI   C3B 5151   7.504  11.086   7.901  0.1560  0.1710  0.4459
  322loPI   C4B 5152   7.473  11.124   7.489  0.1333  0.1658  0.3531
  323loPI    C1 5153  16.963   9.576   9.686 -0.1124  0.3154  0.0183
  323loPI    C2 5154  16.664   9.374   9.513  0.0329  0.0771  0.0401
  323loPI    C3 5155  16.713   9.357   9.909  0.0233  0.1872  0.0463
  323loPI   PO4 5156  17.094   9.589   9.519  0.3889 -0.2417  0.2799
  323loPI   GL1 5157  17.117   9.542   9.150 -0.1962 -0.1912  0.0185
  323loPI   GL2 5158  16.897   9.622   9.066 -0.0784  0.0169  0.1498
  323loPI   C1A 5159  17.232   9.839   8.838 -0.0307  0.0812  0.3241
  323loPI   C2A 5160  17.293   9.837   8.432  0.0039 -0.0811 -0.3075
  323loPI   C3A 5161  17.277   9.956   8.015  0.1011  0.0043 -0.0180
  323loPI   C4A 5162  17.106  10.076   7.700  0.2075  0.1729 -0.3528
  323loPI   C5A 5163  17.100  10.300   7.324  0.1827 -0.2549 -0.4329
  323loPI   C6A 5164  17.477  10.556   7.314 -0.0669  0.3020 -0.1806
  323loPI   C1B 5165  16.887   9.510   8.702 -0.1873  0.0916  0.0155
  323loPI   C2B 5166  16.963   9.460   8.283  0.2248  0.0804  0.0044
  323loPI   C3B 5167  16.865   9.692   7.858  0.4070  0.0966  0.1550
  323loPI   C4B 5168  16.542   9.719   7.581  0.2330  0.0232 -0.1306
  324loPI    C1 5169   8.945   7.489   9.737 -0.0437 -0.2111 -0.0494
  324loPI    C2 5170   8.729   7.826   9.728 -0.0976 -0.2487 -0.1779
  324loPI    C3 5171   8.771   7.625  10.071 -0.0268 -0.0867 -0.0905
  324loPI   PO4 5172   9.131   7.566   9.558 -0.1829  0.1008  0.0395
  324loPI   GL1 5173   9.149   7.626   9.142  0.3015 -0.1799 -0.1716
  324loPI   GL2 5174   8.787   7.565   9.080  0.1734 -0.1527  0.2786
  324loPI   C1A 5175   9.168   7.380   8.799 -0.1729  0.0895 -0.0067
  324loPI   C2A 5176   9.039   7.204   8.360  0.0379 -0.0039  0.0399
  324loPI   C3A 5177   9.199   7.297   7.954  0.0097  0.1528  0.1372
  324loPI   C4A 5178   8.987   7.504   7.613  0.0323  0.1389 -0.2029
  324loPI   C5A 5179   9.026   7.464   7.163 -0.4155 -0.1227  0.1403
  324loPI   C6A 5180   9.056   6.969   7.096 -0.3942  0.0755 -0.3836
  324loPI   C1B 5181   8.756   7.587   8.655 -0.1776 -0.2751 -0.0398
  324loPI   C2B 5182   8.600   7.406   8.291 -0.0134 -0.1031  0.2750
  324loPI   C3B 5183   8.481   7.441   7.980  0.1414  0.1221  0.1247
  324loPI   C4B 5184   8.275   7.644   7.679 -0.3893  0.0998  0.0907
  325loPI    C1 5185   8.624   6.964   9.702  0.1601  0.1798  0.0470
  325loPI    C2 5186   8.676   7.133  10.061  0.2513  0.1498  0.0482
  325loPI    C3 5187   8.730   6.739  10.016  0.0379  0.1193  0.0457
  325loPI   PO4 5188   8.448   6.911   9.621  0.0747  0.0504  0.2104
  325loPI   GL1 5189   8.361   6.862   9.227  0.0744  0.0212  0.0618
  325loPI   GL2 5190   8.066   6.628   9.391 -0.2032 -0.0167  0.2677
  325loPI   C1A 5191   8.559   6.536   9.055 -0.0484 -0.2460 -0.3093
  325loPI   C2A 5192   8.717   6.411   8.627  0.0406  0.3418 -0.1029
  325loPI   C3A 5193   8.840   6.552   8.182 -0.2051  0.1048  0.2280
  325loPI   C4A 5194   8.740   6.292   7.821  0.1238  0.3651  0.1416
  325loPI   C5A 5195   8.524   6.049   7.603  0.0918  0.3027  0.2944
  325loPI   C6A 5196   8.267   5.580   7.552  0.0510  0.0099  0.0937
  325loPI   C1B 5197   8.085   6.572   8.899  0.2081  0.2472 -0.0162
  325loPI   C2B 5198   8.249   6.258   8.665  0.0193  0.2387 -0.1755
  325loPI   C3B 5199   8.300   6.223   8.254 -0.4998  0.2085  0.1755
  325loPI   C4B 5200   7.997   6.327   7.987  0.2748 -0.2952  0.3262
  326loPI    C1 5201  17.118   9.986   9.991  0.0643  0.0728 -0.2508
  326loPI    C2 5202  16.728  10.071   9.961 -0.0334 -0.2266  0.0974
  326loPI    C3 5203  16.848   9.754  10.173  0.4122 -0.0372  0.1400
  326loPI   PO4 5204  17.167  10.041   9.718 -0.1509  0.1467 -0.0412
  326loPI   GL1 5205  17.279  10.134   9.269 -0.0944  0.3523 -0.1145
  326loPI   GL2 5206  16.962  10.218   9.180  0.4368  0.1053  0.0550
  326loPI   C1A 5207  17.652  10.138   8.974  0.2648 -0.1151 -0.4036
  326loPI   C2A 5208  17.749  10.044   8.582 -0.0159 -0.1367  0.0774
  326loPI   C3A 5209  17.670  10.282   8.205 -0.1761 -0.2109  0.0407
  326loPI   C4A 5210  17.739  10.613   7.865  0.1419 -0.1819  0.1947
  326loPI   C5A 5211  17.970  10.644   7.496  0.3685 -0.2744 -0.2517
  326loPI   C6A 5212  18.194  10.537   7.148  0.0175 -0.0454  0.0100
  326loPI   C1B 5213  17.184  10.288   8.743 -0.1121 -0.0772 -0.1816
  326loPI   C2B 5214  17.205  10.319   8.367 -0.1259 -0.3431  0.0622
  326loPI   C3B 5215  16.924  10.319   8.126  0.0842  0.2181  0.5598
  326loPI   C4B 5216  16.677  10.278   7.707 -0.1882  0.1544  0.3500
  327loPI    C1 5217   6.303  18.694   9.992 -0.0559  0.1475 -0.0149
  327loPI    C2 5218   6.152  19.028  10.151 -0.2484  0.0270  0.0598
  327loPI    C3 5219   5.914  18.714  10.084 -0.0123 -0.2006  0.2687
  327loPI   PO4 5220   6.446  18.755   9.756 -0.2809  0.0451  0.0312
  327loPI   GL1 5221   6.503  18.754   9.316 -0.3299  0.1278 -0.2000
  327loPI   GL2 5222   6.363  18.627   9.106  0.1575 -0.0465  0.4138
  327loPI   C1A 5223   6.881  18.948   9.112  0.0962 -0.0752 -0.1943
  327loPI   C2A 5224   7.155  19.073   8.720 -0.1612  0.2327  0.0366
  327loPI   C3A 5225   7.398  19.246   8.343  0.0319  0.1531 -0.2577
  327loPI   C4A 5226   7.376  19.336   7.912  0.1180 -0.1499  0.1208
  327loPI   C5A 5227   7.713  19.305   7.600 -0.3818  0.1331 -0.0265
  327loPI   C6A 5228   8.006  19.122   7.328 -0.3080  0.0818 -0.3381
  327loPI   C1B 5229   6.490  18.768   8.750 -0.2380  0.3231 -0.2102
  327loPI   C2B 5230   6.558  18.751   8.322  0.1947 -0.0066  0.2832
  327loPI   C3B 5231   6.563  18.817   7.796 -0.0045 -0.2682 -0.0133
  327loPI   C4B 5232   6.652  18.620   7.559 -0.1762  0.1455  0.2045
  328loPI    C1 5233   1.601  14.119   9.716 -0.2612 -0.1426  0.2944
  328loPI    C2 5234   1.915  14.119   9.964 -0.1846 -0.1888  0.1978
  328loPI    C3 5235   1.759  14.465   9.838  0.0734 -0.1634 -0.0631
  328loPI   PO4 5236   1.644  14.093   9.495  0.2180 -0.0078 -0.1301
  328loPI   GL1 5237   1.469  13.660   9.288  0.2132 -0.3698 -0.0087
  328loPI   GL2 5238   1.688  13.504   9.336  0.0010 -0.0032 -0.0389
  328loPI   C1A 5239   1.385  13.738   8.860  0.1507  0.0501 -0.0681
  328loPI   C2A 5240   1.614  13.989   8.558  0.3346  0.0554  0.1813
  328loPI   C3A 5241   1.633  14.407   8.264  0.0851 -0.2520 -0.0207
  328loPI   C4A 5242   1.740  14.494   7.881  0.1156  0.0841 -0.1306
  328loPI   C5A 5243   1.808  14.655   7.427  0.1158 -0.0342 -0.0880
  328loPI   C6A 5244   1.696  15.008   7.123  0.0628  0.0607 -0.3084
  328loPI   C1B 5245   1.748  13.391   8.887 -0.1672  0.0790 -0.1455
  328loPI   C2B 5246   1.865  13.518   8.496 -0.1226 -0.0596  0.1892
  328loPI   C3B 5247   1.798  13.486   8.130  0.1808  0.2096  0.2351
  328loPI   C4B 5248   2.059  13.548   7.837 -0.0723 -0.3485 -0.0474
  329loPI    C1 5249  12.697  18.481  10.237  0.0247  0.1371  0.0884
  329loPI    C2 5250  12.617  18.267  10.565 -0.1763  0.0821  0.0051
  329loPI    C3 5251  12.898  18.551  10.575 -0.1086  0.0099  0.1954
  329loPI   PO4 5252  12.447  18.626  10.151  0.3583  0.0537 -0.1163
  329loPI   GL1 5253  12.244  18.529   9.733  0.0936 -0.2545  0.2979
  329loPI   GL2 5254  12.703  18.474   9.730  0.0557 -0.0348 -0.0714
  329loPI   C1A 5255  12.380  18.149   9.502  0.2440 -0.0937  0.0535
  329loPI   C2A 5256  12.456  18.013   9.054  0.1243 -0.2224  0.1836
  329loPI   C3A 5257  12.635  17.764   8.658 -0.0995 -0.0507  0.1190
  329loPI   C4A 5258  12.797  17.714   8.237 -0.0862 -0.2114 -0.0762
  329loPI   C5A 5259  12.906  17.385   8.050 -0.4052 -0.2580  0.0983
  329loPI   C6A 5260  12.653  17.025   7.946 -0.0751 -0.1845  0.1045
  329loPI   C1B 5261  12.579  18.796   9.395 -0.2554  0.4604 -0.1939
  329loPI   C2B 5262  12.805  18.850   9.022  0.0983 -0.4767 -0.0760
  329loPI   C3B 5263  12.736  19.166   8.651  0.0109  0.1081 -0.0858
  329loPI   C4B 5264  12.437  19.335   8.471  0.2377  0.1106 -0.0778
  330loPI    C1 5265   4.088   4.255   9.315 -0.0171 -0.0518  0.1577
  330loPI    C2 5266   4.051   4.159   9.701 -0.0848  0.2895  0.2390
  330loPI    C3 5267   3.736   4.300   9.500 -0.0905 -0.0331  0.0150
  330loPI   PO4 5268   4.164   4.009   9.161  0.1077  0.0279 -0.2266
  330loPI   GL1 5269   4.135   3.891   8.780  0.1092 -0.3003 -0.2504
  330loPI   GL2 5270   4.601   4.047   8.720 -0.1149 -0.1009 -0.0600
  330loPI   C1A 5271   4.209   3.906   8.297  0.1421 -0.0422  0.0783
  330loPI   C2A 5272   4.220   4.000   7.808  0.1379 -0.1640  0.3829
  330loPI   C3A 5273   4.292   3.809   7.464 -0.0342  0.1993  0.1565
  330loPI   C4A 5274   4.243   3.364   7.291  0.3128 -0.0114  0.1022
  330loPI   C5A 5275   4.002   3.081   7.131  0.0464  0.1914  0.1160
  330loPI   C6A 5276   3.655   3.060   6.993  0.1466  0.0521  0.0399
  330loPI   C1B 5277   4.673   3.959   8.199  0.3328  0.0673 -0.0167
  330loPI   C2B 5278   4.789   4.045   7.821 -0.0070  0.0714  0.2748
  330loPI   C3B 5279   5.168   4.268   7.505 -0.1804  0.2900 -0.0238
  330loPI   C4B 5280   5.111   4.199   7.053 -0.1556  0.0752  0.2222
  331loPI    C1 5281  17.039  11.648   9.854  0.1715 -0.1804  0.0408
  331loPI    C2 5282  16.795  11.395  10.044  0.1074 -0.1788 -0.0386
  331loPI    C3 5283  16.951  11.708  10.239  0.0621 -0.1912  0.0178
  331loPI   PO4 5284  17.104  11.422   9.602 -0.0581  0.0181  0.1955
  331loPI   GL1 5285  17.296  11.426   9.187 -0.0491 -0.0687  0.1328
  331loPI   GL2 5286  17.308  11.141   9.048 -0.1800  0.1627  0.1794
  331loPI   C1A 5287  17.383  11.613   8.858  0.2488  0.1787 -0.0879
  331loPI   C2A 5288  17.410  11.815   8.524  0.0899  0.1476  0.1402
  331loPI   C3A 5289  17.497  11.954   8.051  0.0608 -0.1734  0.0493
  331loPI   C4A 5290  17.722  12.033   7.625 -0.1562  0.0372  0.0309
  331loPI   C5A 5291  18.097  11.868   7.420 -0.0178 -0.2561 -0.2890
  331loPI   C6A 5292  18.548  11.939   7.692  0.0977 -0.0964  0.0633
  331loPI   C1B 5293  17.084  10.830   8.781  0.4143 -0.0042  0.0140
  331loPI   C2B 5294  16.923  10.704   8.385 -0.0974 -0.1197 -0.0547
  331loPI   C3B 5295  16.762  10.815   7.970 -0.3186  0.1487  0.4338
  331loPI   C4B 5296  16.933  10.825   7.566  0.0336  0.0312 -0.1825
  332loPI    C1 5297  15.860  18.938   9.541  0.0102 -0.2028  0.0133
  332loPI    C2 5298  16.160  18.727   9.702  0.1415  0.0228  0.0684
  332loPI    C3 5299  15.985  19.020   9.912 -0.0238 -0.0142 -0.0161
  332loPI   PO4 5300  15.966  18.845   9.186 -0.0500 -0.0726  0.2041
  332loPI   GL1 5301  15.888  19.061   8.908 -0.1634 -0.1405 -0.2612
  332loPI   GL2 5302  15.698  19.482   8.850  0.0495  0.1138  0.1937
  332loPI   C1A 5303  15.988  19.303   8.442  0.0373  0.0174 -0.0057
  332loPI   C2A 5304  15.952  19.409   8.085  0.1419  0.2356  0.2618
  332loPI   C3A 5305  15.984  19.448   7.603  0.0438 -0.2555 -0.2626
  332loPI   C4A 5306  15.824  19.500   7.219  0.0667  0.0906  0.0170
  332loPI   C5A 5307  15.610  19.417   6.796 -0.2116 -0.3436  0.1593
  332loPI   C6A 5308  15.565  19.220   6.417  0.0169  0.2723  0.2915
  332loPI   C1B 5309  15.528  19.439   8.556  0.2577 -0.2391  0.2626
  332loPI   C2B 5310  15.502  19.500   8.145  0.1082 -0.1546  0.0658
  332loPI   C3B 5311  15.609  19.662   7.790 -0.1858  0.3301 -0.1982
  332loPI   C4B 5312  15.423  19.703   7.419  0.1587  0.1548 -0.3410
  333loPI    C1 5313  13.049  16.762   9.856 -0.0231 -0.0499 -0.0672
  333loPI    C2 5314  13.082  17.084  10.092  0.3493 -0.1861  0.0744
  333loPI    C3 5315  13.193  16.724  10.227  0.0549 -0.3570 -0.1261
  333loPI   PO4 5316  12.884  16.894   9.677  0.1192  0.2191  0.3089
  333loPI   GL1 5317  13.053  16.836   9.238  0.0205  0.0052  0.3686
  333loPI   GL2 5318  12.778  16.828   9.047  0.2152 -0.0466 -0.2149
  333loPI   C1A 5319  13.233  16.853   8.834 -0.0405  0.0066 -0.0962
  333loPI   C2A 5320  13.181  17.056   8.340 -0.0409 -0.0153  0.0187
  333loPI   C3A 5321  13.487  17.282   7.994 -0.1107 -0.2539  0.2399
  333loPI   C4A 5322  13.191  17.264   7.622  0.0078 -0.3769 -0.1250
  333loPI   C5A 5323  12.891  17.152   7.264 -0.1302  0.0045 -0.4834
  333loPI   C6A 5324  12.873  16.804   7.022  0.0822  0.0359  0.1706
  333loPI   C1B 5325  12.789  16.798   8.562  0.3293 -0.0848 -0.0217
  333loPI   C2B 5326  12.807  16.581   8.133 -0.1812 -0.0357 -0.0619
  333loPI   C3B 5327  12.791  16.656   7.647  0.2742 -0.0453  0.0833
  333loPI   C4B 5328  12.870  16.386   7.318 -0.3645 -0.3023  0.0671
  334loPI    C1 5329  15.419  10.784   9.706  0.0091  0.2959  0.0047
  334loPI    C2 5330  15.646  10.986   9.966  0.2691  0.0651 -0.0384
  334loPI    C3 5331  15.736  10.607   9.875  0.1616  0.1320 -0.4399
  334loPI   PO4 5332  15.297  10.994   9.595  0.3213 -0.3260  0.0776
  334loPI   GL1 5333  15.094  11.152   9.265 -0.1552  0.1147  0.2085
  334loPI   GL2 5334  14.826  10.997   9.247  0.1129  0.2785  0.4229
  334loPI   C1A 5335  15.110  11.059   8.844  0.2501 -0.0959 -0.0334
  334loPI   C2A 5336  14.916  11.009   8.491  0.0714  0.0231  0.1773
  334loPI   C3A 5337  14.807  10.816   8.095  0.1318  0.0746 -0.0575
  334loPI   C4A 5338  14.720  10.522   7.871  0.1916  0.0166  0.2280
  334loPI   C5A 5339  14.649  10.464   7.439  0.0057 -0.0198  0.1456
  334loPI   C6A 5340  14.432  10.728   7.184  0.1145 -0.0312 -0.0653
  334loPI   C1B 5341  14.583  11.147   8.851 -0.1338  0.2406  0.2611
  334loPI   C2B 5342  14.566  11.391   8.534 -0.0870  0.4568 -0.0851
  334loPI   C3B 5343  14.620  11.390   8.178 -0.1926  0.0210 -0.1775
  334loPI   C4B 5344  14.433  11.450   7.784 -0.1266  0.0234 -0.1413
  335loPI    C1 5345  11.706  15.801   9.975 -0.1578 -0.3256  0.0060
  335loPI    C2 5346  11.561  16.136  10.138 -0.0096 -0.1991 -0.1189
  335loPI    C3 5347  11.935  16.019  10.219  0.0426 -0.1706 -0.3140
  335loPI   PO4 5348  11.664  15.752   9.644 -0.0752  0.2013 -0.1301
  335loPI   GL1 5349  11.943  15.763   9.276  0.3796  0.0542 -0.1325
  335loPI   GL2 5350  12.096  15.495   9.068  0.3330 -0.3494  0.1145
  335loPI   C1A 5351  11.800  15.954   8.955 -0.1353  0.1730 -0.0945
  335loPI   C2A 5352  11.819  16.134   8.642  0.0064 -0.3081  0.1398
  335loPI   C3A 5353  11.864  16.429   8.281  0.3593 -0.4041 -0.0609
  335loPI   C4A 5354  11.800  16.750   8.077  0.1018 -0.1250  0.2482
  335loPI   C5A 5355  11.664  17.027   7.827 -0.0510  0.2329 -0.2525
  335loPI   C6A 5356  11.844  17.488   7.830  0.2325 -0.4083 -0.0111
  335loPI   C1B 5357  12.314  15.615   8.693 -0.0982 -0.0242  0.2090
  335loPI   C2B 5358  12.409  15.535   8.352 -0.2434 -0.2220 -0.0584
  335loPI   C3B 5359  12.390  15.585   7.991  0.2666  0.1931  0.2036
  335loPI   C4B 5360  12.142  15.656   7.671  0.0150  0.3964  0.5174
  336loPI    C1 5361   0.367  10.103   9.829  0.2590  0.1826  0.1628
  336loPI    C2 5362   0.191  10.414  10.009  0.0169  0.0762  0.1134
  336loPI    C3 5363   0.191  10.055  10.185 -0.2547 -0.0374 -0.1092
  336loPI   PO4 5364   0.310  10.036   9.574  0.1871  0.0563  0.1143
  336loPI   GL1 5365   0.271  10.218   9.216 -0.0117  0.4119 -0.0725
  336loPI   GL2 5366   0.607  10.309   9.317 -0.1603 -0.2502  0.3720
  336loPI   C1A 5367  -0.129  10.200   8.833  0.0299 -0.0254  0.0905
  336loPI   C2A 5368  -0.154  10.247   8.458  0.0186 -0.3801 -0.0062
  336loPI   C3A 5369   0.079  10.143   8.094 -0.2847 -0.2302  0.2154
  336loPI   C4A 5370  -0.041  10.188   7.572  0.1737  0.3125  0.1306
  336loPI   C5A 5371  -0.193  10.504   7.295 -0.1380 -0.0443  0.0910
  336loPI   C6A 5372  -0.570  10.651   7.074  0.3995 -0.2480 -0.0875
  336loPI   C1B 5373   0.837  10.304   8.991  0.0303 -0.1079  0.0911
  336loPI   C2B 5374   0.915  10.224   8.566 -0.1602 -0.1347  0.1973
  336loPI   C3B 5375   0.630  10.515   8.338 -0.1953  0.3177 -0.1162
  336loPI   C4B 5376   0.741  10.882   8.181  0.0136 -0.0691  0.0004
  337loPI    C1 5377   2.659   3.045   9.526  0.0077  0.1926 -0.0785
  337loPI    C2 5378   2.296   3.063   9.693 -0.1432 -0.2143 -0.3483
  337loPI    C3 5379   2.601   2.904   9.896 -0.1087  0.1361 -0.1176
  337loPI   PO4 5380   2.549   3.141   9.306  0.2347 -0.2863 -0.3178
  337loPI   GL1 5381   2.763   3.236   8.922 -0.3857 -0.0167 -0.1981
  337loPI   GL2 5382   2.992   3.359   8.864  0.0755  0.0476  0.1713
  337loPI   C1A 5383   2.507   2.993   8.623 -0.1064 -0.1620  0.0082
  337loPI   C2A 5384   2.558   2.841   8.275  0.3055  0.0125 -0.0262
  337loPI   C3A 5385   2.485   2.630   7.929  0.0812  0.0989 -0.2040
  337loPI   C4A 5386   2.623   2.568   7.518 -0.1029  0.2726  0.2835
  337loPI   C5A 5387   2.779   2.442   7.122 -0.2414 -0.0891  0.3507
  337loPI   C6A 5388   3.016   2.228   6.741  0.0880  0.1098  0.5181
  337loPI   C1B 5389   3.230   3.695   8.748  0.2894 -0.0102  0.1977
  337loPI   C2B 5390   3.385   3.651   8.273 -0.0625 -0.0190 -0.1524
  337loPI   C3B 5391   3.391   3.581   7.809  0.1566 -0.1440 -0.1099
  337loPI   C4B 5392   3.353   3.830   7.403  0.1327  0.0008  0.0341
  338loPI    C1 5393  14.949   1.117   9.757 -0.0734 -0.0043  0.1619
  338loPI    C2 5394  15.223   1.181  10.041 -0.0678  0.2209  0.1074
  338loPI    C3 5395  14.858   1.053  10.142  0.1245 -0.3122  0.1610
  338loPI   PO4 5396  15.020   1.245   9.578  0.0797 -0.0970  0.2615
  338loPI   GL1 5397  14.793   1.208   9.130 -0.2279  0.0620 -0.3299
  338loPI   GL2 5398  14.843   1.459   9.181  0.0725 -0.2402 -0.1363
  338loPI   C1A 5399  14.405   1.376   8.921  0.5409  0.0698  0.0251
  338loPI   C2A 5400  14.285   1.350   8.562  0.0619 -0.2125  0.1941
  338loPI   C3A 5401  13.940   1.369   8.184  0.0836  0.1354  0.0365
  338loPI   C4A 5402  13.587   1.448   8.106  0.2702 -0.1961 -0.0009
  338loPI   C5A 5403  13.377   1.471   7.743 -0.2862 -0.1395 -0.1033
  338loPI   C6A 5404  13.084   1.529   7.417 -0.0578  0.0483 -0.1927
  338loPI   C1B 5405  14.924   1.583   8.811  0.2789 -0.2154  0.1071
  338loPI   C2B 5406  14.745   1.572   8.394 -0.1145 -0.0121  0.2170
  338loPI   C3B 5407  14.427   1.450   8.086  0.0111 -0.3361 -0.0229
  338loPI   C4B 5408  14.247   1.192   7.834  0.2674 -0.1810  0.1591
  339loPI    C1 5409   7.258  14.283   9.584 -0.1939  0.1483 -0.0378
  339loPI    C2 5410   7.086  14.313   9.944 -0.2513 -0.2077 -0.0320
  339loPI    C3 5411   6.885  14.149   9.639 -0.0574 -0.2817 -0.1217
  339loPI   PO4 5412   7.474  14.520   9.665 -0.0445  0.3268  0.2710
  339loPI   GL1 5413   7.396  14.784   9.268  0.0877  0.0139  0.0659
  339loPI   GL2 5414   7.473  14.378   9.160  0.1212 -0.2559 -0.1639
  339loPI   C1A 5415   7.352  14.891   8.875 -0.4541 -0.0425  0.0183
  339loPI   C2A 5416   7.418  15.119   8.503  0.1226  0.1758  0.1196
  339loPI   C3A 5417   7.503  15.053   8.167 -0.1092  0.3157  0.1385
  339loPI   C4A 5418   7.442  14.684   7.809 -0.0771  0.1864 -0.1404
  339loPI   C5A 5419   7.166  14.306   7.572 -0.0977 -0.1178  0.0034
  339loPI   C6A 5420   7.161  13.895   7.675 -0.0128 -0.1810 -0.0587
  339loPI   C1B 5421   7.656  14.500   8.846 -0.0913 -0.1805 -0.3816
  339loPI   C2B 5422   7.571  14.564   8.450  0.0085  0.1986 -0.2902
  339loPI   C3B 5423   7.685  14.330   8.093 -0.2359  0.1348 -0.1281
  339loPI   C4B 5424   7.325  14.258   8.057 -0.1296 -0.0580 -0.0110
  340loPI    C1 5425  14.869  11.940  10.016  0.0153  0.0427 -0.1441
  340loPI    C2 5426  15.217  11.932  10.213 -0.0228 -0.1953 -0.0828
  340loPI    C3 5427  14.954  11.635  10.261 -0.2389 -0.0129 -0.1226
  340loPI   PO4 5428  14.878  12.055   9.795 -0.0536  0.1221 -0.0532
  340loPI   GL1 5429  14.797  12.204   9.437 -0.0926 -0.0884  0.1671
  340loPI   GL2 5430  14.960  12.359   9.201  0.3293  0.0113 -0.0085
  340loPI   C1A 5431  14.723  12.034   8.973  0.1941  0.0132 -0.0229
  340loPI   C2A 5432  14.978  12.188   8.600  0.2926 -0.1373 -0.0504
  340loPI   C3A 5433  15.109  12.225   8.135  0.0438 -0.0804  0.0257
  340loPI   C4A 5434  14.986  12.368   7.710 -0.2892 -0.0477  0.0755
  340loPI   C5A 5435  14.896  12.152   7.287  0.2266  0.3087  0.0305
  340loPI   C6A 5436  14.887  11.748   7.046 -0.0219 -0.1555  0.0275
  340loPI   C1B 5437  14.910  12.587   8.879  0.1880  0.3759  0.1020
  340loPI   C2B 5438  15.045  12.760   8.503  0.0567 -0.1043 -0.3184
  340loPI   C3B 5439  15.239  12.922   8.228 -0.2183 -0.1680  0.2888
  340loPI   C4B 5440  15.200  12.779   7.786 -0.0407 -0.1671 -0.0167
  341loPI    C1 5441   5.563  18.620   9.545 -0.0763 -0.1959 -0.0385
  341loPI    C2 5442   5.424  18.649   9.919  0.1261 -0.1135  0.0315
  341loPI    C3 5443   5.511  18.290   9.765 -0.1951 -0.1698 -0.0262
  341loPI   PO4 5444   5.375  18.849   9.396 -0.5457  0.2643 -0.0818
  341loPI   GL1 5445   5.264  18.693   9.006 -0.1856  0.1019 -0.3513
  341loPI   GL2 5446   5.052  18.812   8.976  0.1674 -0.1350  0.1754
  341loPI   C1A 5447   5.105  18.573   8.474  0.0970 -0.1076  0.1488
  341loPI   C2A 5448   5.079  18.450   8.100 -0.2698 -0.2425 -0.2849
  341loPI   C3A 5449   4.811  18.338   7.935  0.0428 -0.2546  0.6023
  341loPI   C4A 5450   4.726  18.056   7.504  0.2541  0.1993  0.4922
  341loPI   C5A 5451   4.470  17.693   7.271  0.1740 -0.0216  0.1308
  341loPI   C6A 5452   4.219  17.519   6.920 -0.1703 -0.1464  0.0955
  341loPI   C1B 5453   4.703  18.881   8.704 -0.0356 -0.0725  0.3173
  341loPI   C2B 5454   4.665  18.935   8.365 -0.1882  0.0863 -0.1661
  341loPI   C3B 5455   4.805  18.849   7.913  0.1453  0.3021 -0.1831
  341loPI   C4B 5456   4.803  18.822   7.482  0.2082  0.1856 -0.0184
  342loPI    C1 5457   6.156  10.551  10.059 -0.4003 -0.2372  0.0383
  342loPI    C2 5458   5.955  10.786  10.313  0.0110 -0.0011  0.1556
  342loPI    C3 5459   6.354  10.769  10.329  0.0273 -0.2022 -0.2921
  342loPI   PO4 5460   6.125  10.691   9.815  0.1471 -0.3762 -0.4718
  342loPI   GL1 5461   6.259  10.739   9.458  0.2290 -0.0657  0.2333
  342loPI   GL2 5462   6.600  10.869   9.442 -0.2821 -0.1281  0.0121
  342loPI   C1A 5463   6.384  10.823   8.965 -0.0878  0.0581 -0.0730
  342loPI   C2A 5464   6.190  10.710   8.602 -0.3581  0.1642 -0.1364
  342loPI   C3A 5465   5.992  10.865   8.284  0.0443  0.1624  0.0747
  342loPI   C4A 5466   6.076  10.950   7.848 -0.0925  0.0588  0.3283
  342loPI   C5A 5467   5.916  10.890   7.417 -0.0003  0.1597 -0.1059
  342loPI   C6A 5468   5.841  11.079   6.988  0.0111  0.0294 -0.2067
  342loPI   C1B 5469   6.752  11.158   9.138  0.3622 -0.0182 -0.2024
  342loPI   C2B 5470   6.924  11.386   8.856  0.4761  0.0467 -0.2982
  342loPI   C3B 5471   6.742  11.348   8.378  0.0248 -0.0052  0.1965
  342loPI   C4B 5472   6.639  11.576   7.954 -0.0860  0.0677 -0.3129
  343loPI    C1 5473   5.675   5.274   9.478  0.0775  0.1176 -0.1225
  343loPI    C2 5474   5.734   5.067   9.815  0.1047  0.1996 -0.0765
  343loPI    C3 5475   5.375   5.226   9.738  0.0901  0.1552 -0.1010
  343loPI   PO4 5476   5.709   5.214   9.260  0.1825 -0.3229 -0.2709
  343loPI   GL1 5477   5.756   4.790   9.017 -0.0787  0.1123  0.1322
  343loPI   GL2 5478   5.631   4.888   8.810 -0.0210  0.1157  0.0405
  343loPI   C1A 5479   6.016   4.486   8.802  0.0283  0.1522  0.2706
  343loPI   C2A 5480   5.998   4.351   8.322  0.0192  0.4377  0.0067
  343loPI   C3A 5481   6.143   4.333   7.869 -0.0506 -0.1223 -0.3065
  343loPI   C4A 5482   6.562   4.220   7.522 -0.0334  0.2412 -0.1753
  343loPI   C5A 5483   6.879   4.146   7.186 -0.2085  0.4147  0.0705
  343loPI   C6A 5484   6.976   4.402   6.917  0.0508  0.0196  0.2757
  343loPI   C1B 5485   5.350   5.111   8.578 -0.2179 -0.4743  0.0501
  343loPI   C2B 5486   5.564   5.200   8.203 -0.1935 -0.1802  0.2981
  343loPI   C3B 5487   5.653   5.172   7.854  0.2614 -0.0968  0.1272
  343loPI   C4B 5488   5.455   5.059   7.400 -0.1321 -0.2538 -0.3727
  344loPI    C1 5489   3.369   7.089   9.892  0.0666  0.1022 -0.1652
  344loPI    C2 5490   3.062   7.192  10.125  0.0763  0.0894 -0.1469
  344loPI    C3 5491   3.357   7.453  10.057  0.1980  0.0072  0.0573
  344loPI   PO4 5492   3.304   7.115   9.664 -0.3015  0.0613 -0.4351
  344loPI   GL1 5493   3.157   6.973   9.256 -0.0008 -0.1917  0.0458
  344loPI   GL2 5494   2.802   6.883   9.160  0.2596 -0.1155 -0.0738
  344loPI   C1A 5495   3.152   7.250   8.905 -0.1475 -0.1483  0.1907
  344loPI   C2A 5496   3.160   7.535   8.510  0.3102 -0.0932  0.0805
  344loPI   C3A 5497   3.327   7.509   8.189  0.0060  0.2380 -0.0959
  344loPI   C4A 5498   3.280   7.400   7.704 -0.0247 -0.0102  0.1525
  344loPI   C5A 5499   3.130   7.195   7.321  0.2134 -0.0825  0.0186
  344loPI   C6A 5500   3.080   6.759   7.186 -0.0843  0.1541  0.0678
  344loPI   C1B 5501   2.772   7.057   8.734 -0.1081 -0.2425 -0.1126
  344loPI   C2B 5502   2.586   7.243   8.266  0.0810 -0.2544 -0.0129
  344loPI   C3B 5503   2.766   7.219   7.929 -0.0982  0.2142 -0.0134
  344loPI   C4B 5504   2.819   7.486   7.521 -0.3216 -0.0391  0.0456
  345loPI    C1 5505  13.979  10.574   9.889 -0.0272 -0.1579 -0.0978
  345loPI    C2 5506  14.258  10.807  10.057 -0.0934 -0.1333 -0.0211
  345loPI    C3 5507  13.878  10.830  10.180 -0.0877 -0.3344  0.0383
  345loPI   PO4 5508  14.003  10.603   9.628 -0.2453 -0.4137 -0.0282
  345loPI   GL1 5509  13.822  10.977   9.260 -0.1552 -0.0149 -0.3949
  345loPI   GL2 5510  13.568  10.734   9.248 -0.1969 -0.1858  0.0561
  345loPI   C1A 5511  13.927  10.651   8.813 -0.0922 -0.2147 -0.1444
  345loPI   C2A 5512  14.112  10.503   8.443  0.0287  0.0209 -0.1251
  345loPI   C3A 5513  14.311  10.618   8.080  0.3421 -0.2329 -0.3330
  345loPI   C4A 5514  14.232  10.551   7.689  0.1601 -0.0101 -0.1363
  345loPI   C5A 5515  14.093  10.343   7.342 -0.0647 -0.1274  0.2715
  345loPI   C6A 5516  14.112  10.422   6.842 -0.2166  0.0228 -0.0651
  345loPI   C1B 5517  13.452  10.641   8.798 -0.0597  0.0162 -0.2206
  345loPI   C2B 5518  13.512  10.530   8.472 -0.1023 -0.0484 -0.1153
  345loPI   C3B 5519  13.491  10.268   8.083  0.2831 -0.0289 -0.0565
  345loPI   C4B 5520  13.615  10.357   7.665  0.1449  0.0396  0.4004
  346loPI    C1 5521  17.202   8.247   9.788  0.2690  0.1468  0.1099
  346loPI    C2 5522  17.473   7.971   9.687 -0.0913 -0.2053  0.0802
  346loPI    C3 5523  17.366   8.016  10.070  0.1997  0.1199  0.1285
  346loPI   PO4 5524  17.109   8.303   9.604  0.1331 -0.3534  0.0033
  346loPI   GL1 5525  17.166   8.567   9.245 -0.1541  0.4527 -0.1847
  346loPI   GL2 5526  17.409   8.678   9.060  0.1123  0.0269  0.0710
  346loPI   C1A 5527  17.051   8.317   8.860  0.0430  0.0157  0.0920
  346loPI   C2A 5528  17.192   8.312   8.469 -0.0015  0.0099 -0.2726
  346loPI   C3A 5529  17.175   8.180   8.005  0.3271  0.0879 -0.0379
  346loPI   C4A 5530  17.013   8.279   7.693 -0.2510  0.0329 -0.1649
  346loPI   C5A 5531  16.762   8.021   7.500  0.1088 -0.2600 -0.1345
  346loPI   C6A 5532  16.644   7.766   7.207 -0.0276 -0.0439 -0.3492
  346loPI   C1B 5533  17.548   8.632   8.631  0.3015  0.2805  0.4297
  346loPI   C2B 5534  17.509   8.620   8.252 -0.0661  0.2277  0.0855
  346loPI   C3B 5535  17.440   8.604   7.913 -0.0552 -0.3528 -0.5521
  346loPI   C4B 5536  17.501   8.372   7.559  0.1064 -0.1116 -0.0628
  347loPI    C1 5537   1.521  16.839   9.709  0.1678 -0.0443 -0.0597
  347loPI    C2 5538   1.263  16.807  10.013  0.1558  0.2597 -0.0344
  347loPI    C3 5539   1.371  17.168   9.881  0.1394  0.1307 -0.4103
  347loPI   PO4 5540   1.364  16.688   9.500 -0.0183  0.1373  0.1022
  347loPI   GL1 5541   1.095  16.866   9.147 -0.1736  0.0342  0.0737
  347loPI   GL2 5542   1.467  16.698   9.059  0.0750 -0.0121  0.3884
  347loPI   C1A 5543   1.178  16.732   8.694  0.0614  0.0313 -0.1322
  347loPI   C2A 5544   1.256  16.490   8.388  0.1342  0.0059 -0.0709
  347loPI   C3A 5545   1.595  16.590   8.014  0.0601 -0.0240 -0.0785
  347loPI   C4A 5546   1.926  16.382   7.808  0.3305 -0.2021  0.3562
  347loPI   C5A 5547   1.987  16.241   7.402 -0.1719  0.0963 -0.0270
  347loPI   C6A 5548   1.989  15.969   7.223  0.4493  0.3201 -0.0262
  347loPI   C1B 5549   1.691  16.618   8.696  0.0753 -0.0085 -0.0175
  347loPI   C2B 5550   1.904  16.843   8.348  0.1577 -0.2354  0.1305
  347loPI   C3B 5551   1.998  16.890   7.883  0.0816 -0.1006 -0.1494
  347loPI   C4B 5552   1.926  16.767   7.400  0.0609  0.0804 -0.3191
  348loPI    C1 5553   2.979   1.818   9.315 -0.4990  0.1285 -0.1021
  348loPI    C2 5554   3.219   1.976   9.593 -0.1654  0.0147 -0.3195
  348loPI    C3 5555   2.822   1.988   9.641 -0.1234  0.3095 -0.0106
  348loPI   PO4 5556   2.955   1.906   9.116  0.2052 -0.4682  0.2446
  348loPI   GL1 5557   3.046   2.244   8.785 -0.1105 -0.3915  0.0484
  348loPI   GL2 5558   3.407   2.121   8.926  0.0894 -0.1898  0.0550
  348loPI   C1A 5559   3.252   2.244   8.353  0.1482  0.2147  0.1893
  348loPI   C2A 5560   3.316   2.096   7.807 -0.0470  0.0594  0.0676
  348loPI   C3A 5561   3.216   1.845   7.558  0.1325 -0.2316  0.3078
  348loPI   C4A 5562   2.869   1.726   7.427  0.1370 -0.2122  0.3056
  348loPI   C5A 5563   2.542   1.501   7.425  0.6149 -0.0529 -0.1753
  348loPI   C6A 5564   2.445   1.280   7.164 -0.2387  0.0692  0.0321
  348loPI   C1B 5565   3.389   1.806   8.566 -0.1546  0.0106  0.0757
  348loPI   C2B 5566   3.617   1.536   8.252 -0.1095 -0.5349 -0.1708
  348loPI   C3B 5567   3.622   1.395   7.793  0.0226  0.0594 -0.2473
  348loPI   C4B 5568   3.483   1.429   7.385 -0.3605 -0.0764  0.0651
  349loPI    C1 5569   7.753   1.341  10.029  0.1792 -0.1511  0.0799
  349loPI    C2 5570   7.762   1.446  10.415 -0.0405  0.1706  0.0024
  349loPI    C3 5571   7.894   1.700  10.136 -0.1122  0.0379 -0.1539
  349loPI   PO4 5572   7.509   1.207   9.980 -0.0164  0.0326  0.1609
  349loPI   GL1 5573   7.463   1.128   9.680  0.1175  0.0499 -0.2700
  349loPI   GL2 5574   7.433   0.837   9.501 -0.1083 -0.2403 -0.1389
  349loPI   C1A 5575   7.353   1.300   9.270  0.1510 -0.1311 -0.2547
  349loPI   C2A 5576   7.201   1.401   8.898  0.1465  0.1466  0.4609
  349loPI   C3A 5577   7.285   1.431   8.543  0.1892  0.0248  0.2208
  349loPI   C4A 5578   7.403   1.517   8.120  0.0304 -0.2774 -0.0523
  349loPI   C5A 5579   7.204   1.470   7.723 -0.1877  0.1315 -0.0497
  349loPI   C6A 5580   7.475   1.493   7.353  0.1524  0.1672 -0.1467
  349loPI   C1B 5581   7.416   0.841   9.100  0.0767  0.1556  0.1931
  349loPI   C2B 5582   7.555   0.999   8.646 -0.0539  0.1502 -0.3481
  349loPI   C3B 5583   7.412   1.031   8.258  0.2239  0.3652  0.1113
  349loPI   C4B 5584   7.508   0.956   7.907  0.0242  0.0768 -0.0310
  350loPI    C1 5585   5.843   7.855   9.827 -0.1536  0.0169 -0.1832
  350loPI    C2 5586   5.718   8.230   9.890  0.0062  0.0533 -0.0747
  350loPI    C3 5587   5.834   8.003  10.199  0.0362 -0.0407 -0.1545
  350loPI   PO4 5588   5.756   7.881   9.476 -0.1088  0.1307  0.0425
  350loPI   GL1 5589   5.644   7.814   9.075 -0.0438 -0.3378  0.0056
  350loPI   GL2 5590   5.524   8.098   8.973  0.3291  0.1189 -0.0925
  350loPI   C1A 5591   5.885   7.446   8.945  0.0094 -0.0396  0.0839
  350loPI   C2A 5592   6.113   7.422   8.546  0.1223 -0.1211  0.0647
  350loPI   C3A 5593   6.263   7.361   8.229  0.2895 -0.0143  0.2386
  350loPI   C4A 5594   6.428   7.329   7.757 -0.1073  0.3566  0.2129
  350loPI   C5A 5595   6.587   7.436   7.358  0.0138 -0.1079 -0.0594
  350loPI   C6A 5596   6.900   7.288   7.064  0.2988  0.0371 -0.2871
  350loPI   C1B 5597   5.342   8.014   8.491 -0.0712  0.0347  0.0777
  350loPI   C2B 5598   5.426   8.135   8.068 -0.0388 -0.3025  0.1183
  350loPI   C3B 5599   5.598   8.133   7.575 -0.3453  0.2462  0.1280
  350loPI   C4B 5600   5.959   8.468   7.323  0.2465 -0.0360  0.3053
  351loPI    C1 5601  11.330   8.764   9.943 -0.0457  0.1612 -0.1214
  351loPI    C2 5602  11.570   8.975  10.183 -0.1420  0.1898 -0.0498
  351loPI    C3 5603  11.348   8.678  10.334  0.0526 -0.0168 -0.1637
  351loPI   PO4 5604  11.368   8.757   9.767  0.2242 -0.1346  0.2583
  351loPI   GL1 5605  11.314   8.842   9.308  0.1140 -0.2602 -0.1426
  351loPI   GL2 5606  11.662   8.901   9.303  0.2444 -0.0419 -0.3352
  351loPI   C1A 5607  11.049   8.857   8.908 -0.3838 -0.1757  0.1539
  351loPI   C2A 5608  10.966   8.815   8.397 -0.0738 -0.1689 -0.1222
  351loPI   C3A 5609  10.907   8.781   7.992  0.1040 -0.0928  0.1296
  351loPI   C4A 5610  10.792   8.811   7.679  0.0909 -0.1851 -0.0646
  351loPI   C5A 5611  10.780   9.086   7.278  0.3243  0.1480 -0.1904
  351loPI   C6A 5612  10.888   9.564   7.141  0.0096 -0.2382  0.3336
  351loPI   C1B 5613  11.539   8.852   8.877 -0.2216  0.0280  0.2109
  351loPI   C2B 5614  11.401   8.590   8.592 -0.1632  0.0924  0.0674
  351loPI   C3B 5615  11.271   8.400   8.157  0.1670 -0.0916  0.1498
  351loPI   C4B 5616  11.131   8.316   7.741 -0.0066  0.0157  0.2535
  352loPI    C1 5617  18.308   5.857   9.966  0.0628  0.0253  0.2346
  352loPI    C2 5618  17.984   5.625   9.940  0.2255 -0.1991  0.1788
  352loPI    C3 5619  17.967   5.970  10.141 -0.1435 -0.0372 -0.1179
  352loPI   PO4 5620  18.388   5.756   9.663 -0.0011  0.0183  0.1118
  352loPI   GL1 5621  18.488   5.891   9.266 -0.1292  0.1513 -0.0841
  352loPI   GL2 5622  18.564   5.515   9.182 -0.1062 -0.1519 -0.1804
  352loPI   C1A 5623  18.493   6.059   8.959 -0.2322 -0.0693 -0.1238
  352loPI   C2A 5624  18.461   6.220   8.579 -0.1486  0.1607 -0.1122
  352loPI   C3A 5625  18.480   6.197   8.153 -0.3281  0.1230 -0.0186
  352loPI   C4A 5626  18.811   6.340   7.848 -0.1239  0.2768 -0.1813
  352loPI   C5A 5627  19.212   6.306   7.571 -0.1976 -0.0623  0.1473
  352loPI   C6A 5628  19.204   6.101   7.063  0.4535 -0.3002 -0.1218
  352loPI   C1B 5629  18.309   5.634   8.800  0.2015  0.0542 -0.2981
  352loPI   C2B 5630  18.363   5.682   8.398  0.2096 -0.0994 -0.2677
  352loPI   C3B 5631  18.507   5.720   7.945  0.1079 -0.2238  0.1008
  352loPI   C4B 5632  18.506   5.807   7.535 -0.1304  0.0713  0.0999
  353loPI    C1 5633   2.927  18.218   9.934  0.0260  0.1635  0.0832
  353loPI    C2 5634   2.755  18.571  10.010 -0.4074 -0.0321  0.0365
  353loPI    C3 5635   2.621  18.240  10.190 -0.0360 -0.1832  0.0435
  353loPI   PO4 5636   2.952  18.147   9.689  0.0828 -0.0700  0.1460
  353loPI   GL1 5637   2.740  17.971   9.323  0.3684 -0.0127 -0.1573
  353loPI   GL2 5638   2.495  18.034   9.343 -0.0883  0.3958 -0.1051
  353loPI   C1A 5639   2.905  17.917   9.025  0.1593 -0.1319  0.3369
  353loPI   C2A 5640   2.939  17.768   8.587 -0.0623 -0.1482 -0.2118
  353loPI   C3A 5641   2.805  17.657   8.165  0.1758  0.0542 -0.1056
  353loPI   C4A 5642   2.965  17.770   7.702  0.0701  0.2126 -0.3719
  353loPI   C5A 5643   2.976  17.815   7.325 -0.0596  0.2559 -0.0418
  353loPI   C6A 5644   3.151  17.504   6.992 -0.1980  0.2435 -0.2242
  353loPI   C1B 5645   2.248  18.043   9.040 -0.0550  0.1763 -0.1597
  353loPI   C2B 5646   2.108  17.945   8.718 -0.3176  0.0115  0.2436
  353loPI   C3B 5647   2.076  18.202   8.246  0.2990 -0.0336  0.0577
  353loPI   C4B 5648   2.174  18.552   7.972 -0.1711 -0.1204  0.1674
  354loPI    C1 5649  14.050   6.726   9.964  0.1456 -0.1082 -0.2126
  354loPI    C2 5650  14.300   6.457  10.121  0.1355  0.0144  0.0182
  354loPI    C3 5651  14.038   6.647  10.356  0.0905  0.1704 -0.1557
  354loPI   PO4 5652  13.928   6.533   9.651 -0.3328 -0.1499 -0.3141
  354loPI   GL1 5653  14.086   6.468   9.195  0.1881  0.2361 -0.4782
  354loPI   GL2 5654  14.337   6.602   9.124 -0.0726  0.0483 -0.1139
  354loPI   C1A 5655  13.822   6.351   8.922  0.2028  0.0285 -0.0882
  354loPI   C2A 5656  13.707   6.414   8.520 -0.0243 -0.2795  0.1764
  354loPI   C3A 5657  13.605   6.087   8.199 -0.1705 -0.3172 -0.0243
  354loPI   C4A 5658  13.180   5.926   7.921  0.2043 -0.2386 -0.1379
  354loPI   C5A 5659  13.112   5.641   7.612 -0.2643 -0.4414  0.0667
  354loPI   C6A 5660  12.939   5.472   7.336  0.4776  0.0581  0.1803
  354loPI   C1B 5661  14.112   6.685   8.679  0.1020 -0.0779  0.1422
  354loPI   C2B 5662  14.036   6.807   8.307  0.0866 -0.0213 -0.1285
  354loPI   C3B 5663  13.987   6.856   7.855 -0.0679 -0.1946  0.2570
  354loPI   C4B 5664  13.984   6.867   7.443  0.1274 -0.3399  0.2927
  355loPI    C1 5665  11.621   1.744  10.381 -0.0059  0.3809 -0.2381
  355loPI    C2 5666  11.913   1.735  10.108  0.0502  0.1990 -0.1733
  355loPI    C3 5667  12.002   1.788  10.494 -0.0184  0.3280 -0.1746
  355loPI   PO4 5668  11.424   1.931  10.246 -0.0010  0.2422  0.1559
  355loPI   GL1 5669  11.190   1.824   9.863 -0.0787 -0.2131  0.2161
  355loPI   GL2 5670  10.917   1.785   9.993  0.5338  0.1876  0.0204
  355loPI   C1A 5671  11.152   1.844   9.365  0.3433  0.1835 -0.0794
  355loPI   C2A 5672  10.866   1.941   9.057 -0.2270 -0.1439  0.1279
  355loPI   C3A 5673  10.686   1.720   8.791  0.0058  0.1312 -0.0253
  355loPI   C4A 5674  10.754   1.608   8.330 -0.0614  0.0832  0.0614
  355loPI   C5A 5675  11.073   1.595   7.992 -0.2307 -0.0276  0.0064
  355loPI   C6A 5676  11.458   1.843   8.104 -0.0300  0.2243  0.0662
  355loPI   C1B 5677  10.680   1.858   9.580  0.0392  0.0009 -0.0726
  355loPI   C2B 5678  10.258   1.918   9.409 -0.1359  0.2749  0.0051
  355loPI   C3B 5679  10.013   2.102   9.070 -0.0664  0.0296  0.1214
  355loPI   C4B 5680   9.904   2.138   8.648  0.1597  0.0375  0.0516
  356loPI    C1 5681   4.014   2.438   9.653  0.0186 -0.1808  0.1787
  356loPI    C2 5682   4.047   2.751   9.899  0.1096  0.0212 -0.0847
  356loPI    C3 5683   3.710   2.536   9.893  0.0603  0.0900  0.1249
  356loPI   PO4 5684   3.989   2.515   9.430  0.0598  0.3247  0.2309
  356loPI   GL1 5685   4.167   2.348   9.050  0.2288 -0.0697  0.2045
  356loPI   GL2 5686   3.855   2.307   8.996 -0.1111 -0.2788  0.2043
  356loPI   C1A 5687   4.245   2.053   8.735  0.3681  0.1722  0.0064
  356loPI   C2A 5688   4.249   1.992   8.376  0.0252 -0.2328  0.0963
  356loPI   C3A 5689   4.285   2.015   7.944  0.0478  0.1374  0.2962
  356loPI   C4A 5690   4.209   2.153   7.472 -0.1168  0.5411 -0.2013
  356loPI   C5A 5691   4.352   2.443   7.306 -0.1255 -0.1444 -0.0234
  356loPI   C6A 5692   4.308   2.750   7.224 -0.2923 -0.0723 -0.0490
  356loPI   C1B 5693   3.749   2.227   8.573  0.1901  0.3052  0.4038
  356loPI   C2B 5694   3.726   2.106   8.175 -0.1387  0.1535  0.3279
  356loPI   C3B 5695   3.816   1.858   7.713 -0.2285  0.1654 -0.2233
  356loPI   C4B 5696   4.038   1.659   7.388  0.1486  0.0643 -0.2315
  357loPI    C1 5697  12.774   9.905   9.914  0.0517 -0.1778 -0.0609
  357loPI    C2 5698  12.408   9.987  10.052  0.0859 -0.0278 -0.0576
  357loPI    C3 5699  12.655   9.756  10.265  0.0158 -0.0773 -0.0299
  357loPI   PO4 5700  12.644   9.822   9.593  0.2911 -0.0526  0.0562
  357loPI   GL1 5701  12.579  10.012   9.162  0.1465 -0.3220 -0.1386
  357loPI   GL2 5702  12.761  10.159   9.047  0.1389 -0.0744 -0.0150
  357loPI   C1A 5703  12.353   9.943   8.766 -0.1137 -0.0564  0.0984
  357loPI   C2A 5704  12.224  10.036   8.287  0.0805  0.3387 -0.0646
  357loPI   C3A 5705  12.197  10.015   7.769  0.1805 -0.1203 -0.0053
  357loPI   C4A 5706  12.135   9.909   7.355  0.3338  0.1110 -0.0333
  357loPI   C5A 5707  12.368  10.072   7.014  0.1168 -0.1675 -0.1322
  357loPI   C6A 5708  12.800   9.962   7.004  0.1548  0.1358  0.1803
  357loPI   C1B 5709  12.748  10.044   8.497 -0.0467  0.2188  0.0726
  357loPI   C2B 5710  12.665   9.826   8.073  0.2988 -0.2212  0.0338
  357loPI   C3B 5711  12.544   9.714   7.678  0.1682  0.0888 -0.0478
  357loPI   C4B 5712  12.609   9.603   7.293  0.0834  0.0914 -0.0245
  358loPI    C1 5713   2.019   1.303   9.628  0.0973 -0.1567 -0.1022
  358loPI    C2 5714   1.994   1.656   9.814 -0.1147 -0.0805 -0.2715
  358loPI    C3 5715   2.069   1.324  10.024  0.0791  0.0631 -0.1103
  358loPI   PO4 5716   2.078   1.345   9.404  0.1468  0.1046  0.0890
  358loPI   GL1 5717   1.987   1.493   9.052  0.2764 -0.2111  0.1004
  358loPI   GL2 5718   1.827   1.210   8.810  0.1211 -0.0748 -0.2105
  358loPI   C1A 5719   1.969   1.708   8.630 -0.2085  0.3890 -0.1431
  358loPI   C2A 5720   1.944   1.798   8.149  0.2242 -0.0580 -0.3960
  358loPI   C3A 5721   2.050   1.693   7.751 -0.0503  0.1393 -0.2894
  358loPI   C4A 5722   1.955   1.590   7.282 -0.2054 -0.1746 -0.0916
  358loPI   C5A 5723   1.959   1.592   6.723 -0.3611  0.0417 -0.1637
  358loPI   C6A 5724   1.833   1.584   6.332  0.2010  0.2783  0.2406
  358loPI   C1B 5725   1.887   1.281   8.396 -0.0105 -0.4106 -0.1662
  358loPI   C2B 5726   2.044   1.272   8.083 -0.0174 -0.2926  0.0128
  358loPI   C3B 5727   2.138   1.216   7.653  0.4215  0.0577  0.1890
  358loPI   C4B 5728   2.255   0.797   7.317 -0.0991  0.1402  0.2624
  359loPI    C1 5729   8.119   3.823  10.133 -0.2630  0.1086 -0.0580
  359loPI    C2 5730   8.020   3.730  10.509 -0.2590  0.1080 -0.0571
  359loPI    C3 5731   8.045   4.114  10.397 -0.1548  0.1099 -0.0284
  359loPI   PO4 5732   8.072   3.632   9.975  0.2833 -0.2935  0.0176
  359loPI   GL1 5733   7.896   3.649   9.561 -0.1983  0.0837  0.0290
  359loPI   GL2 5734   7.598   3.683   9.413 -0.0737  0.1562 -0.2688
  359loPI   C1A 5735   8.076   3.652   9.171  0.0225 -0.1833 -0.2099
  359loPI   C2A 5736   8.223   3.731   8.799 -0.2696  0.0098  0.1435
  359loPI   C3A 5737   8.439   3.857   8.378 -0.0037 -0.1418  0.0924
  359loPI   C4A 5738   8.365   3.718   7.930 -0.0060 -0.0076  0.3664
  359loPI   C5A 5739   8.150   3.841   7.594  0.0483 -0.1260  0.0712
  359loPI   C6A 5740   7.979   3.670   7.145 -0.3115  0.1151 -0.4175
  359loPI   C1B 5741   7.625   3.789   8.950  0.0149  0.0360  0.0757
  359loPI   C2B 5742   7.740   3.836   8.671  0.0425  0.2780 -0.0588
  359loPI   C3B 5743   7.617   3.957   8.346 -0.0929 -0.1061 -0.2787
  359loPI   C4B 5744   7.812   3.761   8.004 -0.1890 -0.2196 -0.0104
  360loPI    C1 5745  12.507  19.199  10.211  0.0400  0.0271 -0.3608
  360loPI    C2 5746  12.877  19.298  10.325 -0.0422 -0.0792  0.0128
  360loPI    C3 5747  12.692  18.987  10.496 -0.3399  0.0299 -0.1041
  360loPI   PO4 5748  12.490  19.154   9.984  0.2035  0.0025  0.1125
  360loPI   GL1 5749  12.211  19.121   9.649  0.0585  0.1747  0.3039
  360loPI   GL2 5750  12.096  19.431   9.714  0.0902 -0.0489 -0.3070
  360loPI   C1A 5751  12.112  19.031   9.149  0.1343 -0.2395 -0.1588
  360loPI   C2A 5752  12.121  19.118   8.779  0.2011  0.1699 -0.0863
  360loPI   C3A 5753  11.936  19.441   8.402  0.0597 -0.0489  0.1015
  360loPI   C4A 5754  11.836  19.314   8.004 -0.0208 -0.0072 -0.2792
  360loPI   C5A 5755  11.770  19.078   7.631 -0.0822 -0.0386  0.1087
  360loPI   C6A 5756  11.432  18.908   7.489 -0.3709 -0.3749 -0.0513
  360loPI   C1B 5757  12.018  19.479   9.309  0.0801  0.0927  0.0364
  360loPI   C2B 5758  11.822  19.565   8.927 -0.2650  0.3100 -0.3287
  360loPI   C3B 5759  11.706  19.876   8.538 -0.3222  0.1528 -0.3273
  360loPI   C4B 5760  11.628  20.132   8.235 -0.0562 -0.4456 -0.2430
  361loPI    C1 5761  14.177  12.485   9.885  0.1012  0.0315 -0.1781
  361loPI    C2 5762  13.858  12.574   9.662  0.0528  0.1203 -0.0744
  361loPI    C3 5763  13.846  12.626  10.058  0.2684  0.3291 -0.0929
  361loPI   PO4 5764  14.413  12.433   9.593 -0.2994 -0.1889  0.0425
  361loPI   GL1 5765  14.407  12.441   9.089 -0.3104 -0.0609  0.2195
  361loPI   GL2 5766  14.089  12.347   9.216 -0.1956 -0.2763  0.3187
  361loPI   C1A 5767  14.425  12.383   8.715  0.0635  0.1251 -0.0756
  361loPI   C2A 5768  14.610  12.392   8.304 -0.2301 -0.1354 -0.0607
  361loPI   C3A 5769  14.525  12.373   7.848  0.0915  0.0638  0.1831
  361loPI   C4A 5770  14.460  12.435   7.428 -0.1782 -0.0691 -0.2713
  361loPI   C5A 5771  14.156  12.466   7.076 -0.2468 -0.0655 -0.0658
  361loPI   C6A 5772  13.901  12.136   6.875 -0.0343 -0.1287 -0.2466
  361loPI   C1B 5773  14.004  12.130   8.809 -0.0448  0.0371 -0.2563
  361loPI   C2B 5774  13.761  11.916   8.447 -0.1288  0.0344  0.2119
  361loPI   C3B 5775  13.706  11.959   8.022  0.1294  0.0748 -0.1539
  361loPI   C4B 5776  13.892  11.618   7.751 -0.2389  0.0279 -0.0058
  362loPI    C1 5777   8.637   4.321  10.080 -0.2428 -0.1453 -0.1275
  362loPI    C2 5778   8.386   4.437  10.370 -0.0138 -0.0919  0.0525
  362loPI    C3 5779   8.559   4.076  10.387 -0.2453 -0.2174 -0.1855
  362loPI   PO4 5780   8.808   4.534  10.043  0.0566  0.1186  0.2546
  362loPI   GL1 5781   9.098   4.524   9.939  0.3349 -0.1618  0.1744
  362loPI   GL2 5782   9.110   4.281   9.658  0.1682  0.2051 -0.2128
  362loPI   C1A 5783   9.321   4.709   9.592  0.3482 -0.4042 -0.0131
  362loPI   C2A 5784   9.327   4.922   9.173  0.1872  0.0237 -0.0913
  362loPI   C3A 5785   9.448   4.786   8.684 -0.0096  0.0287 -0.0632
  362loPI   C4A 5786   9.694   4.776   8.297  0.0919  0.1388  0.2610
  362loPI   C5A 5787   9.963   4.704   7.873 -0.0439 -0.2960  0.0277
  362loPI   C6A 5788   9.999   4.966   7.471 -0.0346 -0.0409  0.0922
  362loPI   C1B 5789   8.999   4.136   9.310  0.0057  0.0586  0.0027
  362loPI   C2B 5790   9.040   3.797   9.058 -0.1871  0.2755 -0.0427
  362loPI   C3B 5791   9.458   3.704   8.817  0.0509  0.0854 -0.1434
  362loPI   C4B 5792   9.709   3.644   8.532  0.1930 -0.1431  0.0970
  363loPI    C1 5793  19.316   5.499   9.821 -0.0087  0.0967 -0.0314
  363loPI    C2 5794  19.358   5.102   9.807  0.1367  0.1010  0.2195
  363loPI    C3 5795  19.650   5.328   9.959  0.1118  0.3169 -0.0456
  363loPI   PO4 5796  19.297   5.644   9.560 -0.5410 -0.1981  0.0633
  363loPI   GL1 5797  19.032   5.664   9.220 -0.2737 -0.0703 -0.0152
  363loPI   GL2 5798  19.332   5.694   8.986  0.0096  0.1890  0.2867
  363loPI   C1A 5799  18.907   5.645   8.769  0.0615  0.2514 -0.2801
  363loPI   C2A 5800  18.823   5.409   8.327  0.0301  0.1631  0.1575
  363loPI   C3A 5801  18.845   5.338   7.916 -0.1334  0.0982  0.0761
  363loPI   C4A 5802  18.737   5.310   7.405 -0.3887 -0.2259  0.0657
  363loPI   C5A 5803  18.357   5.489   7.217 -0.0012  0.1123 -0.2091
  363loPI   C6A 5804  18.097   5.641   6.980  0.0182 -0.0151 -0.0747
  363loPI   C1B 5805  19.300   5.767   8.530  0.0233 -0.0010 -0.3833
  363loPI   C2B 5806  19.476   5.713   8.137  0.4431 -0.0053  0.0183
  363loPI   C3B 5807  19.465   5.698   7.717 -0.1309 -0.2574  0.1366
  363loPI   C4B 5808  19.394   5.613   7.280 -0.1052  0.4175 -0.1087
  364loPI    C1 5809  13.409  19.325  10.128  0.0252  0.1148  0.0158
  364loPI    C2 5810  13.748  19.456   9.960  0.0861 -0.1677 -0.0873
  364loPI    C3 5811  13.734  19.385  10.353  0.0715  0.0790 -0.0412
  364loPI   PO4 5812  13.193  19.298   9.969 -0.1067  0.2009  0.2963
  364loPI   GL1 5813  13.097  19.198   9.679 -0.3276  0.2064  0.3193
  364loPI   GL2 5814  12.821  19.217   9.586  0.0792 -0.0384  0.2144
  364loPI   C1A 5815  13.228  19.100   9.208 -0.1469  0.2633  0.1401
  364loPI   C2A 5816  13.201  19.106   8.804  0.1023  0.0025  0.2792
  364loPI   C3A 5817  13.405  19.208   8.452 -0.1164 -0.1244 -0.2687
  364loPI   C4A 5818  13.367  19.488   8.124  0.1243  0.1520  0.3696
  364loPI   C5A 5819  13.148  19.835   7.858  0.1567  0.0706  0.2066
  364loPI   C6A 5820  12.799  19.996   7.591  0.1993  0.1599  0.1820
  364loPI   C1B 5821  12.657  19.257   9.225 -0.0971  0.1606 -0.1001
  364loPI   C2B 5822  12.433  19.559   8.932 -0.0474  0.0447 -0.2697
  364loPI   C3B 5823  12.159  19.896   8.743  0.1004 -0.3873 -0.0243
  364loPI   C4B 5824  12.093  20.053   8.264 -0.0136  0.1240 -0.0081
  365loPI    C1 5825   7.254   7.477   9.789  0.1535 -0.1933  0.1888
  365loPI    C2 5826   7.503   7.770   9.680  0.0823 -0.1200  0.2223
  365loPI    C3 5827   7.644   7.401   9.746  0.1626 -0.1078  0.1203
  365loPI   PO4 5828   7.094   7.418   9.579  0.3128  0.0041  0.3404
  365loPI   GL1 5829   7.093   6.947   9.359  0.0997 -0.1050  0.2447
  365loPI   GL2 5830   7.462   7.095   9.387  0.2433  0.0193  0.4298
  365loPI   C1A 5831   6.846   6.935   8.996  0.1383 -0.2678 -0.0530
  365loPI   C2A 5832   6.975   6.776   8.520 -0.3322  0.3365  0.0735
  365loPI   C3A 5833   7.150   6.788   8.197  0.2687  0.0234 -0.0081
  365loPI   C4A 5834   7.413   6.760   7.773  0.3443 -0.0913  0.3023
  365loPI   C5A 5835   7.386   6.862   7.233 -0.0532  0.0757  0.1008
  365loPI   C6A 5836   7.295   7.136   6.866 -0.1314  0.6794 -0.2198
  365loPI   C1B 5837   7.305   7.092   8.891  0.1609  0.2036 -0.1833
  365loPI   C2B 5838   7.433   7.092   8.483 -0.1218  0.1122 -0.0398
  365loPI   C3B 5839   7.269   7.214   7.989 -0.1873  0.1675 -0.0071
  365loPI   C4B 5840   7.394   7.584   7.793  0.2287  0.1289 -0.0334
  366loPI    C1 5841  19.165   2.100   9.376  0.0788 -0.2657  0.0244
  366loPI    C2 5842  19.325   1.905   9.687  0.2358 -0.0281  0.0955
  366loPI    C3 5843  19.308   2.305   9.688  0.1795 -0.0275 -0.1746
  366loPI   PO4 5844  19.299   2.019   9.155  0.3291 -0.2363 -0.1416
  366loPI   GL1 5845  19.241   1.781   8.789  0.4081 -0.1317 -0.0390
  366loPI   GL2 5846  19.079   1.575   8.754  0.2743  0.1071  0.5253
  366loPI   C1A 5847  19.052   2.098   8.367 -0.0893  0.1241  0.1229
  366loPI   C2A 5848  18.998   2.256   7.895  0.1059  0.3871 -0.2479
  366loPI   C3A 5849  19.145   2.258   7.600 -0.1578 -0.0950 -0.0680
  366loPI   C4A 5850  19.184   2.411   7.141  0.1037 -0.2445  0.3162
  366loPI   C5A 5851  19.432   2.342   6.827 -0.4025  0.2110  0.4021
  366loPI   C6A 5852  19.598   2.165   6.639  0.2725  0.0831  0.2738
  366loPI   C1B 5853  19.201   1.500   8.383 -0.2035  0.0651  0.0524
  366loPI   C2B 5854  19.233   1.766   7.971 -0.2176 -0.0000  0.3176
  366loPI   C3B 5855  19.257   1.716   7.594 -0.0803  0.3498 -0.0889
  366loPI   C4B 5856  19.436   2.018   7.329 -0.0876 -0.0227  0.2635
  367loPI    C1 5857   5.945  15.882  10.072  0.0688  0.0378  0.1355
  367loPI    C2 5858   6.252  16.132  10.016  0.0895  0.0247  0.1898
  367loPI    C3 5859   6.223  15.925  10.357  0.0820 -0.0603  0.1377
  367loPI   PO4 5860   5.846  15.823   9.813  0.0950 -0.0508  0.1251
  367loPI   GL1 5861   5.715  15.752   9.400  0.1975 -0.2923  0.0325
  367loPI   GL2 5862   5.923  15.494   9.223  0.1282 -0.0649 -0.2929
  367loPI   C1A 5863   5.741  16.081   9.080  0.2350  0.0059 -0.1518
  367loPI   C2A 5864   5.672  16.102   8.745 -0.0379  0.0426 -0.3673
  367loPI   C3A 5865   5.473  16.161   8.375  0.0933 -0.2091 -0.3325
  367loPI   C4A 5866   5.539  16.300   7.978  0.1190 -0.2568 -0.2183
  367loPI   C5A 5867   5.351  16.239   7.503  0.2552 -0.2535 -0.5254
  367loPI   C6A 5868   5.210  16.109   7.161 -0.0921  0.1334 -0.3526
  367loPI   C1B 5869   5.805  15.512   8.801 -0.2142 -0.0177 -0.1981
  367loPI   C2B 5870   5.543  15.563   8.509  0.1144  0.0534  0.3312
  367loPI   C3B 5871   5.468  15.516   8.094 -0.0088  0.0726  0.3570
  367loPI   C4B 5872   5.564  15.759   7.663 -0.3901  0.4681 -0.1735
  368loPI    C1 5873   2.737  17.427   9.877  0.2690  0.0162 -0.1172
  368loPI    C2 5874   2.823  17.751  10.096 -0.1284  0.0657 -0.0271
  368loPI    C3 5875   3.021  17.409  10.158  0.0599  0.1980  0.1104
  368loPI   PO4 5876   2.685  17.476   9.618  0.0015 -0.0671  0.2272
  368loPI   GL1 5877   2.758  17.226   9.253  0.2771  0.0107  0.1752
  368loPI   GL2 5878   2.558  17.074   8.899 -0.0966 -0.0015  0.0716
  368loPI   C1A 5879   3.157  17.400   9.146  0.1924  0.0645  0.0507
  368loPI   C2A 5880   3.318  17.454   8.707  0.3436 -0.1023 -0.3917
  368loPI   C3A 5881   3.281  17.490   8.200 -0.3235 -0.2500 -0.2917
  368loPI   C4A 5882   3.345  17.483   7.775  0.0517  0.0568 -0.0469
  368loPI   C5A 5883   3.486  17.679   7.392  0.2098  0.2691  0.1686
  368loPI   C6A 5884   3.390  17.916   7.062 -0.0083 -0.0066  0.1766
  368loPI   C1B 5885   2.804  17.222   8.750 -0.2021 -0.3748 -0.2844
  368loPI   C2B 5886   2.849  17.177   8.348  0.3794 -0.0387 -0.1493
  368loPI   C3B 5887   2.895  17.223   7.835  0.0679  0.2053 -0.0468
  368loPI   C4B 5888   3.199  17.236   7.428  0.1731  0.0827 -0.1195
  369loPI    C1 5889  17.507  14.401   9.755 -0.0038  0.1914 -0.1073
  369loPI    C2 5890  17.834  14.462   9.533  0.0707 -0.2593 -0.1296
  369loPI    C3 5891  17.863  14.446   9.932  0.0498 -0.1462 -0.1234
  369loPI   PO4 5892  17.295  14.584   9.610 -0.2470  0.0255 -0.0393
  369loPI   GL1 5893  17.186  14.777   9.250  0.2756  0.3520  0.3232
  369loPI   GL2 5894  17.317  15.046   9.023 -0.2377 -0.0881  0.0110
  369loPI   C1A 5895  17.164  14.496   8.867 -0.1001  0.1967  0.0949
  369loPI   C2A 5896  17.272  14.401   8.391 -0.0251  0.0747  0.4441
  369loPI   C3A 5897  17.489  14.347   7.981  0.1891  0.1560 -0.0308
  369loPI   C4A 5898  17.612  14.215   7.394  0.3494 -0.3446 -0.1262
  369loPI   C5A 5899  17.920  14.282   7.134  0.1818 -0.0813 -0.2726
  369loPI   C6A 5900  18.401  14.401   7.120  0.2936 -0.2543  0.2032
  369loPI   C1B 5901  17.502  14.897   8.639  0.0699  0.1300  0.0971
  369loPI   C2B 5902  17.524  14.786   8.274  0.0067  0.3597 -0.1738
  369loPI   C3B 5903  17.517  15.037   8.023 -0.2424 -0.0815 -0.0147
  369loPI   C4B 5904  17.626  15.132   7.674  0.0923 -0.0545 -0.2926
  370loPI    C1 5905  14.186   2.644   9.540 -0.1096 -0.0538  0.2289
  370loPI    C2 5906  14.542   2.595   9.715  0.0549  0.0355 -0.0739
  370loPI    C3 5907  14.227   2.714   9.932  0.1411 -0.3077  0.2515
  370loPI   PO4 5908  14.270   2.795   9.377  0.1182  0.0981  0.3530
  370loPI   GL1 5909  14.043   3.063   9.265 -0.0919  0.2587 -0.1826
  370loPI   GL2 5910  13.822   2.952   9.314 -0.2196  0.0349  0.1379
  370loPI   C1A 5911  13.853   3.166   8.866  0.1107  0.0430  0.1403
  370loPI   C2A 5912  13.670   3.167   8.512  0.0930  0.0351  0.1371
  370loPI   C3A 5913  13.580   3.080   8.153  0.2333 -0.4007  0.0115
  370loPI   C4A 5914  13.526   3.063   7.703 -0.1028  0.0960  0.2338
  370loPI   C5A 5915  13.404   2.784   7.370  0.0644  0.1003 -0.0635
  370loPI   C6A 5916  13.297   2.569   7.148 -0.1850  0.0701  0.2525
  370loPI   C1B 5917  13.473   2.870   8.982 -0.0156  0.0255  0.3080
  370loPI   C2B 5918  13.392   2.772   8.491 -0.2230 -0.1062  0.1638
  370loPI   C3B 5919  13.060   2.802   8.191  0.0199  0.0470 -0.1436
  370loPI   C4B 5920  12.723   2.853   8.069 -0.0891 -0.3569  0.1506
  371loPI    C1 5921  17.922   3.944   9.632 -0.0857  0.1166 -0.0762
  371loPI    C2 5922  18.257   3.769   9.764 -0.0917  0.1966  0.0465
  371loPI    C3 5923  17.930   3.776   9.995 -0.1802  0.1142 -0.0750
  371loPI   PO4 5924  17.949   3.833   9.369  0.1219  0.1495  0.1335
  371loPI   GL1 5925  18.285   3.823   9.001 -0.1295 -0.0532  0.0603
  371loPI   GL2 5926  18.545   3.915   8.923  0.0167 -0.1751 -0.2490
  371loPI   C1A 5927  18.480   3.397   8.674 -0.1512  0.2978  0.0290
  371loPI   C2A 5928  18.605   3.286   8.275 -0.4316  0.0834 -0.2904
  371loPI   C3A 5929  18.461   3.254   7.848  0.0818  0.1688  0.0704
  371loPI   C4A 5930  18.416   2.994   7.481  0.1729 -0.1838 -0.0672
  371loPI   C5A 5931  18.470   2.941   7.070  0.1291 -0.1813  0.1109
  371loPI   C6A 5932  18.376   2.779   6.673  0.3141  0.1572 -0.1474
  371loPI   C1B 5933  18.618   3.828   8.395 -0.0867 -0.3336 -0.0129
  371loPI   C2B 5934  18.701   3.723   8.045  0.2138  0.0272  0.1919
  371loPI   C3B 5935  18.869   3.592   7.618 -0.0066  0.1429 -0.2549
  371loPI   C4B 5936  19.132   3.587   7.301  0.1327  0.0921 -0.2956
  372loPI    C1 5937  11.693   7.478   9.807 -0.2132 -0.1103  0.0069
  372loPI    C2 5938  11.681   7.537  10.202 -0.2525  0.2016 -0.0381
  372loPI    C3 5939  12.033   7.538  10.010 -0.1967 -0.3311  0.0467
  372loPI   PO4 5940  11.576   7.226   9.725 -0.1363  0.1005 -0.0360
  372loPI   GL1 5941  11.487   7.304   9.301 -0.0484  0.3990 -0.1423
  372loPI   GL2 5942  11.486   7.635   9.378  0.2169 -0.0774 -0.0218
  372loPI   C1A 5943  11.480   7.008   8.955 -0.1455  0.2308 -0.3681
  372loPI   C2A 5944  11.448   7.045   8.516  0.2486  0.0782 -0.0395
  372loPI   C3A 5945  11.512   6.987   8.092  0.2188 -0.1058  0.1302
  372loPI   C4A 5946  11.515   7.199   7.724  0.2371 -0.1022  0.1231
  372loPI   C5A 5947  11.796   7.183   7.488 -0.4372 -0.2603  0.4463
  372loPI   C6A 5948  12.029   7.414   7.308 -0.1721  0.0631  0.0411
  372loPI   C1B 5949  11.302   7.584   8.977 -0.2494  0.1100 -0.0180
  372loPI   C2B 5950  11.189   7.612   8.482  0.0204 -0.2516  0.1075
  372loPI   C3B 5951  11.166   7.381   8.100  0.0165 -0.0637 -0.2623
  372loPI   C4B 5952  11.066   7.289   7.650  0.1201  0.0199  0.0546
  373loPI    C1 5953   4.762   2.810   9.816 -0.2709 -0.4078  0.4065
  373loPI    C2 5954   5.039   2.850  10.102  0.2255 -0.0176 -0.1072
  373loPI    C3 5955   4.851   3.173   9.959  0.1746 -0.1751 -0.4029
  373loPI   PO4 5956   4.796   2.701   9.671  0.2965 -0.0489 -0.1731
  373loPI   GL1 5957   4.787   2.691   9.166  0.0632 -0.1114  0.1585
  373loPI   GL2 5958   5.057   2.833   9.211 -0.2826 -0.1718 -0.2376
  373loPI   C1A 5959   4.971   2.769   8.732  0.2216 -0.0217  0.4553
  373loPI   C2A 5960   4.970   2.763   8.300  0.2183  0.1381 -0.2256
  373loPI   C3A 5961   5.094   2.640   7.856 -0.1726  0.1033  0.2404
  373loPI   C4A 5962   4.812   2.593   7.484 -0.0459  0.0637 -0.1496
  373loPI   C5A 5963   4.769   2.692   7.039  0.0010 -0.0697  0.0270
  373loPI   C6A 5964   4.887   2.769   6.667  0.3742 -0.1755 -0.2417
  373loPI   C1B 5965   5.453   2.757   8.937 -0.4530 -0.0314 -0.2528
  373loPI   C2B 5966   5.428   2.659   8.504 -0.0585 -0.0986  0.0399
  373loPI   C3B 5967   5.587   2.658   8.111  0.1530 -0.1594  0.0820
  373loPI   C4B 5968   5.611   2.522   7.644  0.4274  0.2453 -0.2808
  374loPI    C1 5969  18.918   5.972   9.639  0.0071 -0.0593 -0.0525
  374loPI    C2 5970  19.230   6.002   9.888 -0.0883 -0.0785  0.0702
  374loPI    C3 5971  18.907   5.793   9.997 -0.1458 -0.0552 -0.0549
  374loPI   PO4 5972  18.976   6.167   9.454  0.1112  0.2244 -0.2447
  374loPI   GL1 5973  19.148   6.197   9.119 -0.1663  0.1571  0.0681
  374loPI   GL2 5974  19.426   6.196   9.288 -0.2147 -0.0337 -0.1386
  374loPI   C1A 5975  19.015   6.207   8.698  0.0838 -0.1220  0.2141
  374loPI   C2A 5976  18.867   5.958   8.364  0.2238  0.2093 -0.1800
  374loPI   C3A 5977  19.098   5.982   8.013  0.0266 -0.0957 -0.0757
  374loPI   C4A 5978  19.028   5.859   7.609  0.3370  0.1200 -0.2684
  374loPI   C5A 5979  18.863   5.750   7.216 -0.0866  0.2062  0.2525
  374loPI   C6A 5980  18.798   5.974   6.807 -0.2362 -0.0871  0.1278
  374loPI   C1B 5981  19.569   6.140   8.823  0.0854  0.0286 -0.0265
  374loPI   C2B 5982  19.421   6.179   8.430 -0.0420 -0.0738  0.0327
  374loPI   C3B 5983  19.272   6.492   8.097 -0.2473 -0.2514 -0.4034
  374loPI   C4B 5984  19.059   6.799   7.792  0.0168  0.1722  0.1406
  375loPI    C1 5985   1.083  15.935   9.542  0.0619  0.0579 -0.0884
  375loPI    C2 5986   1.398  15.764   9.364  0.4025  0.5043  0.0653
  375loPI    C3 5987   1.389  15.800   9.762 -0.0465  0.1153  0.0996
  375loPI   PO4 5988   0.858  15.881   9.527 -0.4408 -0.1565  0.4635
  375loPI   GL1 5989   0.748  15.968   9.130  0.1540 -0.0278 -0.1493
  375loPI   GL2 5990   0.573  16.302   9.078 -0.2713  0.0391 -0.1336
  375loPI   C1A 5991   0.655  15.822   8.781 -0.2822 -0.3611  0.2564
  375loPI   C2A 5992   0.999  15.633   8.503  0.0425  0.3328 -0.1779
  375loPI   C3A 5993   1.431  15.497   8.327  0.5039 -0.0027 -0.2314
  375loPI   C4A 5994   1.748  15.728   8.173  0.0465  0.2267 -0.3084
  375loPI   C5A 5995   1.787  15.928   7.859 -0.1585 -0.1426 -0.1585
  375loPI   C6A 5996   1.498  16.180   7.594  0.1753 -0.0939 -0.0231
  375loPI   C1B 5997   0.404  16.437   8.757 -0.3345  0.1088  0.0395
  375loPI   C2B 5998   0.490  16.419   8.293 -0.3371  0.3334 -0.0105
  375loPI   C3B 5999   0.584  16.390   7.819  0.1847  0.0336 -0.3086
  375loPI   C4B 6000   0.759  16.645   7.556  0.2041  0.2882 -0.1958
  376loPI    C1 6001  15.402   0.517   9.629 -0.2109 -0.0930 -0.0939
  376loPI    C2 6002  15.513   0.639   9.994  0.0354  0.0475 -0.2128
  376loPI    C3 6003  15.125   0.605   9.903 -0.0274 -0.1566  0.1157
  376loPI   PO4 6004  15.520   0.389   9.558  0.2865 -0.0512  0.0984
  376loPI   GL1 6005  15.266   0.138   9.213  0.1275  0.0229  0.1374
  376loPI   GL2 6006  15.274   0.312   9.138 -0.1695  0.1280 -0.1837
  376loPI   C1A 6007  15.169  -0.098   8.839  0.1846  0.0345  0.4185
  376loPI   C2A 6008  14.997  -0.089   8.412 -0.0630  0.0166 -0.0052
  376loPI   C3A 6009  15.038  -0.024   8.005 -0.1591  0.1981  0.2084
  376loPI   C4A 6010  14.990   0.102   7.553  0.3228 -0.2699  0.0526
  376loPI   C5A 6011  15.086   0.121   7.137  0.0234  0.0809 -0.0650
  376loPI   C6A 6012  15.069   0.250   6.786 -0.1036  0.0738  0.3099
  376loPI   C1B 6013  15.079   0.443   8.713  0.3515 -0.0211  0.1591
  376loPI   C2B 6014  15.065   0.420   8.253 -0.4291  0.1116  0.1222
  376loPI   C3B 6015  15.115   0.534   7.764 -0.3054  0.0628 -0.0998
  376loPI   C4B 6016  14.942   0.598   7.400 -0.0894 -0.0045  0.0021
  377loPI    C1 6017   1.501  16.195   9.549  0.0235  0.0899  0.0618
  377loPI    C2 6018   1.811  16.433   9.633 -0.0255  0.1459  0.0849
  377loPI    C3 6019   1.523  16.376   9.905  0.0672 -0.0682  0.1401
  377loPI   PO4 6020   1.505  16.265   9.255  0.0036 -0.0449  0.0322
  377loPI   GL1 6021   1.579  16.154   8.872 -0.0057 -0.0843 -0.0677
  377loPI   GL2 6022   1.222  16.023   8.875  0.1830  0.0687 -0.1143
  377loPI   C1A 6023   1.356  16.005   8.428 -0.3175 -0.0068  0.0345
  377loPI   C2A 6024   1.297  16.091   8.049  0.2245  0.1134 -0.2290
  377loPI   C3A 6025   0.943  16.074   7.686 -0.1895 -0.1268 -0.2637
  377loPI   C4A 6026   0.677  16.091   7.300 -0.0652  0.3733  0.0988
  377loPI   C5A 6027   0.550  15.726   7.112  0.1829  0.1074 -0.0570
  377loPI   C6A 6028   0.865  15.394   7.017  0.1380 -0.0732  0.1998
  377loPI   C1B 6029   0.908  16.291   8.637  0.0177 -0.0523 -0.0893
  377loPI   C2B 6030   0.824  16.055   8.185 -0.0819 -0.1039 -0.0525
  377loPI   C3B 6031   0.821  15.702   7.987  0.2854  0.0752 -0.0017
  377loPI   C4B 6032   0.379  15.463   8.023 -0.4207  0.0291  0.1213
  378loPI    C1 6033  13.259   1.775   9.903  0.0130 -0.0171  0.1491
  378loPI    C2 6034  13.615   1.602   9.842 -0.0971 -0.1907 -0.0126
  378loPI    C3 6035  13.590   1.937  10.060  0.1433 -0.2703  0.1410
  378loPI   PO4 6036  13.119   1.700   9.709 -0.2555 -0.2719 -0.0586
  378loPI   GL1 6037  13.212   1.854   9.260 -0.1525 -0.0296  0.4043
  378loPI   GL2 6038  13.066   2.217   9.271 -0.2898  0.1769  0.2067
  378loPI   C1A 6039  13.018   1.837   8.891 -0.1134  0.0193 -0.1812
  378loPI   C2A 6040  12.750   1.910   8.596 -0.0973 -0.0744  0.2176
  378loPI   C3A 6041  12.692   1.988   8.176 -0.0453  0.0407 -0.0523
  378loPI   C4A 6042  12.976   1.858   7.826 -0.2100 -0.0032 -0.2272
  378loPI   C5A 6043  13.507   1.984   7.765 -0.0885  0.0356  0.0042
  378loPI   C6A 6044  13.823   2.223   7.895 -0.2032  0.0091 -0.2253
  378loPI   C1B 6045  13.142   2.307   8.811  0.1890  0.0483 -0.0740
  378loPI   C2B 6046  12.972   2.412   8.473 -0.0338  0.3121  0.3187
  378loPI   C3B 6047  12.972   2.414   7.915 -0.1094  0.0485  0.0565
  378loPI   C4B 6048  12.649   2.617   7.599 -0.0449 -0.2146 -0.3276
  379loPI    C1 6049  18.111  11.230   9.691  0.1589  0.0591 -0.0748
  379loPI    C2 6050  18.240  11.604   9.748  0.0637  0.0807  0.0020
  379loPI    C3 6051  18.346  11.314  10.003  0.0971  0.0652 -0.0295
  379loPI   PO4 6052  18.086  11.210   9.513  0.0025  0.1565 -0.4254
  379loPI   GL1 6053  18.223  11.053   9.173  0.0061 -0.0585  0.1683
  379loPI   GL2 6054  18.491  11.297   9.225 -0.2483  0.4728  0.2254
  379loPI   C1A 6055  18.441  10.826   8.874  0.0301 -0.0702 -0.3503
  379loPI   C2A 6056  18.423  10.817   8.439  0.1377 -0.4700  0.0589
  379loPI   C3A 6057  18.326  10.827   7.968 -0.2108  0.2489 -0.1476
  379loPI   C4A 6058  18.522  10.804   7.558 -0.0345  0.0251  0.1930
  379loPI   C5A 6059  18.976  10.914   7.535 -0.2524  0.1971 -0.0968
  379loPI   C6A 6060  19.325  11.250   7.460 -0.0187 -0.0723 -0.2522
  379loPI   C1B 6061  18.326  11.306   8.743 -0.3703  0.0365 -0.0092
  379loPI   C2B 6062  18.213  11.667   8.525 -0.2735  0.0952 -0.0220
  379loPI   C3B 6063  18.532  11.746   8.290  0.0814 -0.0376  0.0607
  379loPI   C4B 6064  18.923  11.667   8.082 -0.2542  0.1454  0.3702
  380loPI    C1 6065  12.132  15.191   9.526  0.1569  0.2622  0.3123
  380loPI    C2 6066  11.865  15.312   9.798 -0.3019 -0.0330  0.0069
  380loPI    C3 6067  11.774  15.325   9.408  0.1508 -0.0963 -0.1063
  380loPI   PO4 6068  12.478  15.293   9.586 -0.1007  0.0746 -0.1231
  380loPI   GL1 6069  12.699  15.513   9.314 -0.1004 -0.4002 -0.1458
  380loPI   GL2 6070  12.562  15.779   9.285 -0.1074  0.3099 -0.1730
  380loPI   C1A 6071  12.769  15.451   8.859 -0.1040  0.3913 -0.1170
  380loPI   C2A 6072  12.881  15.292   8.503  0.1143 -0.1535 -0.1653
  380loPI   C3A 6073  12.783  15.266   8.164 -0.4976  0.1641  0.1466
  380loPI   C4A 6074  12.759  15.298   7.747  0.2615 -0.0981  0.0109
  380loPI   C5A 6075  12.852  15.286   7.322 -0.0516  0.0930 -0.2506
  380loPI   C6A 6076  12.843  15.526   6.952  0.2125 -0.2189 -0.2408
  380loPI   C1B 6077  12.703  15.928   8.953  0.0306  0.3326 -0.0297
  380loPI   C2B 6078  12.741  15.808   8.513 -0.0768 -0.3637 -0.1729
  380loPI   C3B 6079  12.887  15.796   8.026 -0.1480  0.2513  0.0809
  380loPI   C4B 6080  13.079  16.084   7.751 -0.1218 -0.1230  0.1579
  381loPI    C1 6081  13.361   3.235   9.938  0.0162  0.0225  0.0236
  381loPI    C2 6082  13.366   3.432  10.286  0.1481 -0.0101  0.0409
  381loPI    C3 6083  13.022   3.383  10.088  0.0741  0.0165  0.1621
  381loPI   PO4 6084  13.537   3.286   9.710  0.0863 -0.0575  0.0056
  381loPI   GL1 6085  13.458   3.308   9.280  0.1352 -0.1233  0.1648
  381loPI   GL2 6086  13.751   3.516   9.236 -0.1834 -0.0113  0.2709
  381loPI   C1A 6087  13.282   3.286   8.870  0.1874 -0.1777 -0.1635
  381loPI   C2A 6088  13.115   3.258   8.505  0.1468 -0.1432  0.5198
  381loPI   C3A 6089  13.043   3.231   7.954  0.2460 -0.0533 -0.2459
  381loPI   C4A 6090  12.967   2.960   7.573  0.0145  0.1621  0.0649
  381loPI   C5A 6091  12.846   2.777   7.153  0.2511 -0.3322 -0.2104
  381loPI   C6A 6092  12.867   2.735   6.765  0.2873 -0.1916  0.0698
  381loPI   C1B 6093  13.700   3.609   8.766 -0.1849 -0.1881 -0.0212
  381loPI   C2B 6094  13.937   3.569   8.365  0.4493 -0.1246  0.2289
  381loPI   C3B 6095  14.176   3.725   8.001 -0.0042 -0.0668 -0.0429
  381loPI   C4B 6096  14.326   4.149   7.795 -0.1792 -0.0890 -0.0406
  382loPI    C1 6097  15.424   9.318   9.624 -0.1266 -0.1740 -0.0570
  382loPI    C2 6098  15.791   9.236   9.761 -0.0866  0.1097  0.0125
  382loPI    C3 6099  15.516   9.392  10.006 -0.2431 -0.0641 -0.0498
  382loPI   PO4 6100  15.506   9.124   9.384  0.0735  0.2705 -0.2185
  382loPI   GL1 6101  15.569   9.363   9.025 -0.0786 -0.2905 -0.0262
  382loPI   GL2 6102  15.870   9.300   9.049  0.1780  0.2498 -0.1186
  382loPI   C1A 6103  15.590   9.106   8.694  0.1071  0.2520  0.0475
  382loPI   C2A 6104  15.443   9.051   8.277  0.1225 -0.0148 -0.2464
  382loPI   C3A 6105  15.257   8.871   7.994  0.1928  0.4427  0.0350
  382loPI   C4A 6106  15.057   8.793   7.591  0.0832  0.0923  0.2279
  382loPI   C5A 6107  14.918   9.044   7.207 -0.2189 -0.1249 -0.0601
  382loPI   C6A 6108  14.525   9.088   7.192 -0.1228  0.0033  0.0890
  382loPI   C1B 6109  16.102   9.150   8.675  0.0397  0.0224 -0.1567
  382loPI   C2B 6110  15.930   9.202   8.189  0.1990  0.0230  0.1198
  382loPI   C3B 6111  15.626   9.190   7.839  0.3146  0.2885  0.1193
  382loPI   C4B 6112  15.358   9.176   7.437  0.3339 -0.0442  0.0865
  383loPI    C1 6113   7.076  16.217   9.766  0.0874 -0.2381  0.0884
  383loPI    C2 6114   7.471  16.282   9.764  0.0396  0.0687 -0.0920
  383loPI    C3 6115   7.221  16.568   9.891 -0.1364 -0.0519 -0.1620
  383loPI   PO4 6116   7.060  16.050   9.535 -0.0660  0.3364  0.3481
  383loPI   GL1 6117   6.927  16.283   9.111  0.0898  0.0059 -0.0557
  383loPI   GL2 6118   6.751  16.165   9.130  0.0163  0.0954  0.0441
  383loPI   C1A 6119   7.108  16.159   8.681 -0.0483 -0.2841 -0.1210
  383loPI   C2A 6120   7.219  16.286   8.202 -0.0185  0.0428  0.0940
  383loPI   C3A 6121   7.213  16.591   7.861  0.0184 -0.3730 -0.3514
  383loPI   C4A 6122   7.283  16.795   7.483 -0.2408  0.0214  0.0128
  383loPI   C5A 6123   7.323  17.166   7.447 -0.2575 -0.2079  0.0935
  383loPI   C6A 6124   7.286  17.608   7.663 -0.3469  0.1001 -0.0374
  383loPI   C1B 6125   6.603  16.202   8.697 -0.3111 -0.0846 -0.0421
  383loPI   C2B 6126   6.439  16.123   8.248 -0.2488 -0.1620 -0.2327
  383loPI   C3B 6127   6.450  16.072   7.780 -0.0508 -0.0986 -0.1315
  383loPI   C4B 6128   6.234  15.911   7.472 -0.2752  0.3368  0.2868
  384loPI    C1 6129   1.741  12.756   9.974 -0.2689 -0.1315 -0.1000
  384loPI    C2 6130   1.416  12.932  10.128 -0.1072  0.1626 -0.0870
  384loPI    C3 6131   1.714  12.817  10.368 -0.2642 -0.2490 -0.0813
  384loPI   PO4 6132   1.737  12.521   9.881 -0.1848 -0.0101  0.1606
  384loPI   GL1 6133   2.064  12.424   9.636 -0.1051  0.1877  0.3713
  384loPI   GL2 6134   2.438  12.380   9.775 -0.0111  0.0210 -0.0851
  384loPI   C1A 6135   1.855  12.497   9.191 -0.0320 -0.0430  0.2036
  384loPI   C2A 6136   1.852  12.302   8.757 -0.0179  0.0784  0.1407
  384loPI   C3A 6137   2.013  12.159   8.334 -0.0938 -0.4332 -0.1481
  384loPI   C4A 6138   2.166  12.203   7.950 -0.1244  0.0969 -0.1558
  384loPI   C5A 6139   2.397  12.621   7.865  0.2046  0.0984  0.1668
  384loPI   C6A 6140   2.588  12.625   7.522 -0.0431  0.0997 -0.2378
  384loPI   C1B 6141   2.579  12.419   9.349 -0.0466 -0.1332  0.1086
  384loPI   C2B 6142   2.331  12.394   8.998  0.0547  0.0718  0.1757
  384loPI   C3B 6143   2.355  12.485   8.499  0.1017  0.1903  0.1736
  384loPI   C4B 6144   2.591  12.827   8.411 -0.1593 -0.0505  0.2494
  385loPI    C1 6145  16.204   1.563   9.615  0.1095 -0.0949  0.0392
  385loPI    C2 6146  16.350   1.934   9.586  0.0995 -0.1121 -0.2642
  385loPI    C3 6147  16.468   1.695   9.885 -0.0831  0.2173  0.0787
  385loPI   PO4 6148  16.117   1.574   9.290  0.1214 -0.3557 -0.3456
  385loPI   GL1 6149  15.813   1.283   9.027  0.2706  0.1325  0.0116
  385loPI   GL2 6150  15.916   1.040   8.954  0.0502  0.0691 -0.0326
  385loPI   C1A 6151  15.857   1.547   8.655  0.0825 -0.0146 -0.0946
  385loPI   C2A 6152  15.844   1.704   8.310 -0.2719  0.1842  0.3552
  385loPI   C3A 6153  15.787   1.789   7.926  0.1225  0.2155 -0.0300
  385loPI   C4A 6154  15.886   1.976   7.589 -0.2215 -0.0076 -0.3021
  385loPI   C5A 6155  15.906   1.917   7.109 -0.0512 -0.1437 -0.1051
  385loPI   C6A 6156  16.045   1.710   6.728 -0.0213 -0.1438 -0.2874
  385loPI   C1B 6157  15.849   1.071   8.509  0.0374 -0.1054  0.0815
  385loPI   C2B 6158  15.876   1.216   8.046 -0.2717 -0.1049 -0.2304
  385loPI   C3B 6159  15.827   1.274   7.550 -0.3024 -0.2938  0.2546
  385loPI   C4B 6160  15.789   1.214   7.131 -0.4177  0.0511 -0.1397
  386loPI    C1 6161   3.053   7.781   9.865 -0.0315 -0.1999  0.0201
  386loPI    C2 6162   2.899   7.717  10.229 -0.2052  0.0931  0.0011
  386loPI    C3 6163   3.014   8.085  10.122 -0.0868 -0.0049 -0.2155
  386loPI   PO4 6164   2.935   7.557   9.742  0.0149 -0.2302  0.3958
  386loPI   GL1 6165   3.022   7.448   9.363 -0.0972  0.1436 -0.1612
  386loPI   GL2 6166   2.777   7.387   9.214 -0.3959  0.1705 -0.0620
  386loPI   C1A 6167   3.045   7.816   9.021  0.2395  0.1220  0.0149
  386loPI   C2A 6168   2.990   8.029   8.706 -0.0597  0.0954 -0.1336
  386loPI   C3A 6169   3.163   8.416   8.439  0.2832 -0.1862  0.1110
  386loPI   C4A 6170   3.100   8.362   8.032  0.2011  0.1246 -0.0591
  386loPI   C5A 6171   2.990   8.676   7.873 -0.2393 -0.2179 -0.0357
  386loPI   C6A 6172   2.709   9.082   7.856 -0.1883 -0.2367 -0.3106
  386loPI   C1B 6173   2.690   7.537   8.768 -0.0689  0.2468  0.1360
  386loPI   C2B 6174   2.697   7.777   8.389 -0.1032 -0.1124  0.0504
  386loPI   C3B 6175   2.856   7.802   8.013 -0.0493 -0.3112  0.0700
  386loPI   C4B 6176   2.795   7.960   7.578  0.1563 -0.0897  0.0506
  387loPI    C1 6177  12.184  17.267  10.252  0.2928 -0.0163  0.0377
  387loPI    C2 6178  12.171  16.909  10.431  0.1183 -0.0931 -0.1249
  387loPI    C3 6179  12.286  17.231  10.637  0.1633 -0.2225  0.0549
  387loPI   PO4 6180  12.140  17.294   9.917 -0.0367  0.1882  0.0904
  387loPI   GL1 6181  11.950  17.498   9.532 -0.0222 -0.1604  0.1879
  387loPI   GL2 6182  12.000  17.847   9.397  0.2243 -0.0079 -0.1159
  387loPI   C1A 6183  11.759  17.545   9.107  0.1367 -0.0989  0.5605
  387loPI   C2A 6184  11.700  17.502   8.683  0.0994 -0.0749 -0.0002
  387loPI   C3A 6185  11.803  17.682   8.329  0.2078  0.3165  0.2946
  387loPI   C4A 6186  11.802  17.966   8.056 -0.2728 -0.0233  0.1058
  387loPI   C5A 6187  11.982  18.080   7.719 -0.1665 -0.2148  0.1908
  387loPI   C6A 6188  12.011  18.315   7.225  0.1614 -0.0174  0.0610
  387loPI   C1B 6189  12.003  18.011   9.000 -0.0996 -0.3380 -0.1905
  387loPI   C2B 6190  12.081  18.022   8.491 -0.2185  0.0085 -0.4829
  387loPI   C3B 6191  12.283  17.781   8.091 -0.1099 -0.3538  0.1242
  387loPI   C4B 6192  12.498  17.506   7.867 -0.3252 -0.0186 -0.0556
  388loPI    C1 6193  12.512   0.794  10.453  0.1763  0.1068 -0.0697
  388loPI    C2 6194  12.755   0.819  10.770 -0.0917 -0.0644  0.1538
  388loPI    C3 6195  12.510   0.505  10.729 -0.0718 -0.0366 -0.2174
  388loPI   PO4 6196  12.787   0.782  10.166 -0.1077 -0.0680 -0.1517
  388loPI   GL1 6197  12.899   0.794   9.738 -0.0123 -0.0867  0.0523
  388loPI   GL2 6198  13.059   0.834   9.651 -0.2500  0.0612 -0.1702
  388loPI   C1A 6199  12.749   0.834   9.295  0.1560  0.2044  0.3405
  388loPI   C2A 6200  12.611   0.755   8.836 -0.4272  0.1793  0.1731
  388loPI   C3A 6201  12.584   0.509   8.463  0.3041 -0.1243 -0.5113
  388loPI   C4A 6202  12.328   0.317   8.073  0.0406 -0.1810 -0.0738
  388loPI   C5A 6203  11.899   0.501   7.897 -0.0296 -0.1441  0.2948
  388loPI   C6A 6204  11.527   0.667   7.706  0.0175 -0.0648 -0.2892
  388loPI   C1B 6205  13.318   0.883   9.226  0.0856 -0.1434  0.0741
  388loPI   C2B 6206  13.199   0.885   8.830  0.1824 -0.0048 -0.0454
  388loPI   C3B 6207  12.971   0.799   8.489 -0.1845 -0.1426  0.0576
  388loPI   C4B 6208  12.705   0.702   8.043 -0.1527 -0.1125  0.0337
  389loPI    C1 6209  15.887   6.073   9.696  0.1260 -0.1170  0.0511
  389loPI    C2 6210  15.903   6.470   9.738  0.0432 -0.0966 -0.0989
  389loPI    C3 6211  16.222   6.246   9.829  0.1329  0.0155 -0.1342
  389loPI   PO4 6212  15.732   6.056   9.539  0.0816  0.0873 -0.1230
  389loPI   GL1 6213  15.882   5.817   9.171 -0.2419 -0.0017  0.2012
  389loPI   GL2 6214  15.718   5.535   9.266 -0.2133  0.1854 -0.0191
  389loPI   C1A 6215  15.702   5.778   8.707  0.0480  0.3043 -0.1866
  389loPI   C2A 6216  15.679   5.770   8.159  0.0348  0.0331 -0.3015
  389loPI   C3A 6217  15.442   5.883   7.834  0.0719 -0.2514  0.0509
  389loPI   C4A 6218  15.514   5.887   7.380  0.0797 -0.2685  0.2739
  389loPI   C5A 6219  15.782   5.616   7.043 -0.1211 -0.0275  0.0394
  389loPI   C6A 6220  15.703   5.567   6.599 -0.0916 -0.2142 -0.2514
  389loPI   C1B 6221  15.778   5.334   8.953  0.2128 -0.2209  0.3597
  389loPI   C2B 6222  15.738   5.218   8.579 -0.2350 -0.0939  0.3391
  389loPI   C3B 6223  15.904   5.321   8.164 -0.2295 -0.2227 -0.1725
  389loPI   C4B 6224  15.956   5.449   7.786  0.0134 -0.0258  0.2127
  390loPI    C1 6225  19.128  10.656   9.868  0.1544  0.1538 -0.0104
  390loPI    C2 6226  19.250  10.812  10.216  0.2008  0.0289  0.0298
  390loPI    C3 6227  19.033  10.475  10.212  0.3213 -0.0485 -0.0688
  390loPI   PO4 6228  19.054  10.906   9.690 -0.0486 -0.2091  0.3053
  390loPI   GL1 6229  19.335  10.770   9.237  0.0311 -0.0684  0.0005
  390loPI   GL2 6230  19.556  11.036   9.173 -0.1229 -0.0782 -0.0941
  390loPI   C1A 6231  19.247  10.695   8.866 -0.2543  0.2559 -0.5461
  390loPI   C2A 6232  18.937  10.759   8.491  0.0050 -0.6009  0.2722
  390loPI   C3A 6233  18.756  10.998   8.091 -0.0780 -0.1639  0.2388
  390loPI   C4A 6234  18.697  11.299   7.713 -0.2808  0.2760  0.0672
  390loPI   C5A 6235  18.906  11.593   7.561  0.2741  0.0821 -0.4289
  390loPI   C6A 6236  19.103  11.711   7.219  0.2016 -0.1085  0.0832
  390loPI   C1B 6237  19.723  11.147   8.727  0.1294 -0.3258 -0.0821
  390loPI   C2B 6238  19.658  11.156   8.285 -0.2123 -0.1415  0.1779
  390loPI   C3B 6239  19.691  11.082   7.872  0.4113  0.1389 -0.0058
  390loPI   C4B 6240  20.124  11.009   7.558  0.0030 -0.0025  0.0356
  391loPI    C1 6241  19.038  16.056   9.840  0.0792  0.0716  0.0489
  391loPI    C2 6242  18.961  15.812  10.147 -0.0704  0.1600  0.0827
  391loPI    C3 6243  19.210  16.121  10.196 -0.0384  0.1326  0.0951
  391loPI   PO4 6244  19.128  15.981   9.588 -0.1238  0.2494  0.1458
  391loPI   GL1 6245  18.985  15.861   9.255  0.2449  0.2445 -0.0492
  391loPI   GL2 6246  19.320  16.093   9.159  0.1686  0.0452 -0.1327
  391loPI   C1A 6247  19.108  15.810   8.797  0.0502  0.0815  0.0591
  391loPI   C2A 6248  19.038  15.390   8.591  0.1611  0.1666 -0.0200
  391loPI   C3A 6249  19.005  15.298   8.139 -0.0148 -0.1106  0.1782
  391loPI   C4A 6250  18.925  15.245   7.746 -0.1210  0.0295 -0.2988
  391loPI   C5A 6251  19.285  15.172   7.478  0.1928 -0.2358 -0.0645
  391loPI   C6A 6252  19.619  15.242   7.217  0.0284 -0.2089  0.3745
  391loPI   C1B 6253  19.546  15.960   8.891 -0.0165 -0.0896  0.2997
  391loPI   C2B 6254  19.727  15.985   8.423 -0.3153  0.0477 -0.2834
  391loPI   C3B 6255  19.731  15.930   7.950  0.0293 -0.1193  0.1223
  391loPI   C4B 6256  19.795  15.735   7.612 -0.1443 -0.2117  0.1091
  392loPI    C1 6257  15.982  12.073   9.902 -0.0230 -0.2225  0.1249
  392loPI    C2 6258  15.656  12.279   9.795  0.1663 -0.0675 -0.1674
  392loPI    C3 6259  15.637  11.882   9.835 -0.0911 -0.0449 -0.0434
  392loPI   PO4 6260  16.176  12.167   9.703 -0.2221  0.1411 -0.4051
  392loPI   GL1 6261  16.352  12.059   9.355  0.0602 -0.0699  0.0759
  392loPI   GL2 6262  16.374  12.427   9.351  0.1159  0.1308  0.0534
  392loPI   C1A 6263  16.472  11.949   9.022 -0.2196  0.3774 -0.1296
  392loPI   C2A 6264  16.483  12.009   8.705  0.0892 -0.2261  0.0877
  392loPI   C3A 6265  16.510  12.060   8.250 -0.1019 -0.1426  0.1298
  392loPI   C4A 6266  16.588  12.347   7.834  0.3137  0.0709 -0.2948
  392loPI   C5A 6267  16.489  12.630   7.379 -0.1869  0.0035 -0.1421
  392loPI   C6A 6268  16.030  12.975   7.382  0.2491 -0.1034 -0.1559
  392loPI   C1B 6269  16.311  12.699   9.101  0.0988  0.1293  0.3555
  392loPI   C2B 6270  16.453  12.789   8.719 -0.0403 -0.0645  0.3411
  392loPI   C3B 6271  16.502  13.035   8.279 -0.1705  0.2932 -0.0368
  392loPI   C4B 6272  16.524  13.499   8.172 -0.2557  0.2600  0.5901
  393loPI    C1 6273   3.081   6.370   9.497  0.2584  0.1351 -0.0585
  393loPI    C2 6274   3.144   6.645   9.780  0.0255  0.0430  0.0855
  393loPI    C3 6275   3.408   6.349   9.727  0.0213  0.0038  0.2741
  393loPI   PO4 6276   2.969   6.476   9.346  0.1645  0.0629 -0.1503
  393loPI   GL1 6277   3.088   6.557   8.944 -0.0818 -0.3100 -0.1075
  393loPI   GL2 6278   3.208   6.261   8.918 -0.1119 -0.0984 -0.1906
  393loPI   C1A 6279   3.314   6.903   8.613  0.2120  0.1672 -0.2090
  393loPI   C2A 6280   3.115   7.079   8.229  0.1896  0.2079  0.2036
  393loPI   C3A 6281   3.217   6.913   7.814 -0.2979 -0.2292  0.2112
  393loPI   C4A 6282   3.525   6.848   7.532 -0.2045 -0.3038  0.1654
  393loPI   C5A 6283   3.618   7.099   7.138  0.2771 -0.0882  0.0667
  393loPI   C6A 6284   4.110   7.303   7.212 -0.3808  0.1549  0.1342
  393loPI   C1B 6285   3.366   6.390   8.570 -0.1034  0.0949  0.3868
  393loPI   C2B 6286   3.376   6.582   8.199  0.0395  0.0871 -0.5538
  393loPI   C3B 6287   3.532   6.479   7.886  0.0308  0.0775 -0.3003
  393loPI   C4B 6288   3.544   6.324   7.451  0.2043 -0.2330 -0.1154
  394loPI    C1 6289  14.951   5.337   9.859 -0.3004 -0.0445  0.0576
  394loPI    C2 6290  14.824   5.021  10.068 -0.1822  0.0802  0.3226
  394loPI    C3 6291  15.150   5.220  10.186  0.1023 -0.0661 -0.1883
  394loPI   PO4 6292  14.864   5.195   9.605 -0.1561 -0.0840 -0.1341
  394loPI   GL1 6293  14.605   5.296   9.185  0.4058  0.2501 -0.1990
  394loPI   GL2 6294  14.929   5.365   9.108 -0.0067  0.0993 -0.1113
  394loPI   C1A 6295  14.469   5.141   8.846 -0.2650 -0.0360 -0.1088
  394loPI   C2A 6296  14.416   4.870   8.500  0.1233  0.1070 -0.0244
  394loPI   C3A 6297  14.611   4.792   8.106 -0.4247 -0.1364  0.0765
  394loPI   C4A 6298  14.909   4.966   7.736  0.0408 -0.3798  0.0601
  394loPI   C5A 6299  15.323   5.016   7.581 -0.1753  0.1183 -0.3180
  394loPI   C6A 6300  15.791   4.881   7.490 -0.2742  0.1429 -0.0979
  394loPI   C1B 6301  15.313   5.265   8.835  0.1011  0.0961  0.2834
  394loPI   C2B 6302  15.339   5.459   8.377 -0.1813  0.0369 -0.3535
  394loPI   C3B 6303  15.383   5.418   7.969 -0.1948  0.1203  0.1471
  394loPI   C4B 6304  15.539   5.421   7.549 -0.0412  0.0568 -0.1128
  395loPI    C1 6305  15.189  12.420   9.915 -0.1197  0.0196  0.1872
  395loPI    C2 6306  15.160  12.735  10.159 -0.1395  0.0023  0.2073
  395loPI    C3 6307  15.456  12.470  10.209  0.1249  0.2380 -0.0656
  395loPI   PO4 6308  15.167  12.567   9.588 -0.2657 -0.0713 -0.0045
  395loPI   GL1 6309  15.193  12.822   9.234  0.1278  0.1690  0.0894
  395loPI   GL2 6310  14.949  13.067   9.051 -0.2459 -0.3913  0.0309
  395loPI   C1A 6311  15.379  12.854   8.808 -0.1581  0.1585 -0.2397
  395loPI   C2A 6312  15.469  12.519   8.377  0.0596  0.0872  0.0892
  395loPI   C3A 6313  15.648  12.431   8.119 -0.1435 -0.0510  0.0756
  395loPI   C4A 6314  15.968  12.408   7.736 -0.0383 -0.1555 -0.1059
  395loPI   C5A 6315  15.896  12.494   7.319 -0.1423 -0.3987 -0.1588
  395loPI   C6A 6316  15.748  12.244   7.025  0.0693 -0.0010  0.0840
  395loPI   C1B 6317  14.825  13.207   8.706 -0.1902 -0.3649  0.1060
  395loPI   C2B 6318  14.924  13.293   8.319  0.2771  0.4011  0.1924
  395loPI   C3B 6319  14.911  13.374   7.939 -0.1373 -0.2544  0.0129
  395loPI   C4B 6320  14.915  13.455   7.489 -0.0403 -0.1519  0.2238
  396loPI    C1 6321  18.923   3.059   9.572  0.2082  0.2521  0.2401
  396loPI    C2 6322  18.674   2.890   9.836 -0.1378 -0.0862 -0.2835
  396loPI    C3 6323  19.045   2.747   9.790 -0.1376 -0.1430 -0.1124
  396loPI   PO4 6324  18.872   3.066   9.393 -0.0383 -0.3587  0.1350
  396loPI   GL1 6325  18.999   3.050   8.914 -0.0400  0.0408 -0.3175
  396loPI   GL2 6326  19.309   3.131   8.830 -0.3609 -0.1651 -0.1102
  396loPI   C1A 6327  19.024   2.953   8.490  0.1308 -0.3305 -0.0402
  396loPI   C2A 6328  18.956   3.043   7.994  0.1377 -0.5095  0.0792
  396loPI   C3A 6329  18.872   3.133   7.536  0.0027  0.3490  0.1142
  396loPI   C4A 6330  19.042   3.103   7.165 -0.0058  0.0959 -0.0708
  396loPI   C5A 6331  19.132   3.409   6.846  0.2898 -0.2078 -0.0358
  396loPI   C6A 6332  18.981   3.776   6.774 -0.0188 -0.1101  0.2500
  396loPI   C1B 6333  19.472   3.430   8.581  0.2157 -0.4905 -0.0533
  396loPI   C2B 6334  19.711   3.683   8.447  0.1934 -0.0200  0.3156
  396loPI   C3B 6335  19.742   3.864   8.111  0.3379  0.2658 -0.1761
  396loPI   C4B 6336  19.522   4.186   7.894 -0.2202 -0.1242 -0.1954
  397loPI    C1 6337   3.794  16.888   9.974 -0.1260 -0.0400  0.0672
  397loPI    C2 6338   3.823  16.540  10.168 -0.0865 -0.0262  0.0864
  397loPI    C3 6339   4.107  16.818  10.212 -0.0600 -0.0362 -0.0178
  397loPI   PO4 6340   3.777  16.730   9.737 -0.0033 -0.1074 -0.0461
  397loPI   GL1 6341   3.720  17.016   9.354 -0.0800 -0.0421  0.0319
  397loPI   GL2 6342   3.491  17.058   9.183  0.2181 -0.0197 -0.3936
  397loPI   C1A 6343   3.830  17.181   8.900 -0.2187 -0.0172  0.1966
  397loPI   C2A 6344   3.775  17.282   8.444 -0.1079 -0.1044 -0.0691
  397loPI   C3A 6345   3.811  17.256   7.981 -0.0631 -0.2317  0.5080
  397loPI   C4A 6346   3.685  17.122   7.563 -0.1422  0.0247 -0.0295
  397loPI   C5A 6347   3.761  16.852   7.199 -0.1388  0.1854 -0.0128
  397loPI   C6A 6348   3.937  16.984   6.775  0.0411 -0.0053  0.0091
  397loPI   C1B 6349   3.193  16.898   8.726 -0.0388  0.2578  0.0006
  397loPI   C2B 6350   3.296  16.925   8.455  0.4698 -0.1063  0.0320
  397loPI   C3B 6351   3.298  16.951   7.947 -0.0326  0.0049 -0.2101
  397loPI   C4B 6352   3.329  16.720   7.519 -0.2286  0.0991 -0.1533
  398loPI    C1 6353   3.405   9.015   9.952 -0.1584 -0.0204  0.0604
  398loPI    C2 6354   3.239   9.330   9.770  0.0057  0.0366  0.0079
  398loPI    C3 6355   3.434   9.379  10.115 -0.0577 -0.0248  0.0526
  398loPI   PO4 6356   3.561   8.911   9.751  0.1142  0.1195 -0.2767
  398loPI   GL1 6357   3.707   8.940   9.370  0.1365 -0.1227  0.1552
  398loPI   GL2 6358   3.339   9.022   9.380  0.0127  0.1329  0.0229
  398loPI   C1A 6359   3.752   8.971   8.934 -0.1116  0.1984  0.1890
  398loPI   C2A 6360   3.834   9.034   8.492  0.0910  0.1717  0.1511
  398loPI   C3A 6361   3.604   8.869   8.140  0.3902  0.0514 -0.0059
  398loPI   C4A 6362   3.458   8.617   7.756 -0.3354  0.2016  0.1446
  398loPI   C5A 6363   3.149   8.372   7.520 -0.2665 -0.2209  0.2396
  398loPI   C6A 6364   2.758   8.259   7.135  0.3962  0.2945  0.2862
  398loPI   C1B 6365   3.188   9.254   9.031 -0.1737  0.2182 -0.1215
  398loPI   C2B 6366   2.806   9.562   8.913 -0.0352  0.0358 -0.0397
  398loPI   C3B 6367   2.756   9.668   8.530 -0.4492 -0.0097  0.1291
  398loPI   C4B 6368   2.760   9.452   8.166 -0.0476 -0.1367  0.2973
  399loPI    C1 6369   7.904  16.026  10.038 -0.0767  0.0283  0.0488
  399loPI    C2 6370   8.206  16.271  10.131 -0.0642 -0.0172  0.1288
  399loPI    C3 6371   8.221  15.885  10.237  0.0609 -0.1284 -0.2735
  399loPI   PO4 6372   7.915  15.995   9.767  0.1843 -0.0362 -0.2434
  399loPI   GL1 6373   7.947  15.988   9.375 -0.4378 -0.1549  0.0756
  399loPI   GL2 6374   8.299  16.179   9.295 -0.1485 -0.3135 -0.2207
  399loPI   C1A 6375   7.769  15.702   8.985  0.0302 -0.1191  0.0699
  399loPI   C2A 6376   7.803  15.531   8.606 -0.0905 -0.2815 -0.1770
  399loPI   C3A 6377   7.644  15.627   8.248 -0.3907  0.0500 -0.0646
  399loPI   C4A 6378   7.541  15.516   7.872  0.0455 -0.1016  0.1208
  399loPI   C5A 6379   7.203  15.784   7.527 -0.0482 -0.1679 -0.0746
  399loPI   C6A 6380   7.092  15.646   7.078  0.0911 -0.1610 -0.0641
  399loPI   C1B 6381   8.302  15.877   9.050 -0.1891 -0.2505 -0.1083
  399loPI   C2B 6382   8.283  15.975   8.664  0.3320  0.0116 -0.1114
  399loPI   C3B 6383   8.250  16.076   8.285 -0.2603 -0.1674 -0.0907
  399loPI   C4B 6384   8.142  16.264   8.031  0.0239 -0.0240  0.2589
  400loPI    C1 6385  18.064   0.848   9.592  0.2920  0.2803  0.0846
  400loPI    C2 6386  18.041   0.689   9.958  0.0647  0.1088 -0.0021
  400loPI    C3 6387  18.303   0.981   9.883  0.0222  0.2359  0.3306
  400loPI   PO4 6388  18.024   0.707   9.414  0.0807 -0.3295 -0.1584
  400loPI   GL1 6389  17.951   0.819   8.915 -0.2086  0.1729 -0.1179
  400loPI   GL2 6390  17.891   0.530   8.925  0.2792  0.3855 -0.1084
  400loPI   C1A 6391  18.023   1.005   8.509  0.3554 -0.0020 -0.0247
  400loPI   C2A 6392  18.123   1.016   8.119 -0.2116 -0.1803  0.1094
  400loPI   C3A 6393  18.242   1.239   7.722 -0.0407  0.0264  0.1176
  400loPI   C4A 6394  18.379   1.471   7.422  0.1225 -0.0966 -0.1638
  400loPI   C5A 6395  18.171   1.633   7.110 -0.1882  0.2841  0.1772
  400loPI   C6A 6396  18.060   1.279   6.804  0.2099 -0.2043 -0.0642
  400loPI   C1B 6397  18.084   0.454   8.558  0.2751 -0.1729 -0.2020
  400loPI   C2B 6398  18.161   0.533   8.120 -0.3732  0.0545  0.3610
  400loPI   C3B 6399  18.072   0.749   7.672 -0.1162  0.3665  0.3256
  400loPI   C4B 6400  17.947   0.525   7.334 -0.0152 -0.1641  0.2699
  401loPI    C1 6401  19.123  15.376   9.859  0.0436  0.0582 -0.1807
  401loPI    C2 6402  18.804  15.324  10.094  0.0602 -0.0842 -0.1886
  401loPI    C3 6403  19.164  15.383  10.256 -0.0115  0.3589 -0.1781
  401loPI   PO4 6404  18.996  15.179   9.595  0.1131  0.3273 -0.1559
  401loPI   GL1 6405  18.794  15.165   9.118  0.0345 -0.0663  0.0336
  401loPI   GL2 6406  18.854  15.372   9.054  0.1288  0.0772 -0.1139
  401loPI   C1A 6407  18.809  14.992   8.724 -0.0265 -0.1573 -0.0728
  401loPI   C2A 6408  18.723  14.913   8.387 -0.1735  0.1902  0.3900
  401loPI   C3A 6409  18.426  14.964   8.111  0.0488  0.0092  0.1758
  401loPI   C4A 6410  18.270  15.021   7.750  0.0841 -0.0101 -0.0734
  401loPI   C5A 6411  18.083  15.040   7.309  0.0305  0.1842  0.6437
  401loPI   C6A 6412  17.865  15.332   6.955 -0.2086 -0.2277  0.2582
  401loPI   C1B 6413  18.460  15.453   8.755  0.2329 -0.2261 -0.0618
  401loPI   C2B 6414  18.521  15.439   8.288 -0.0625 -0.1823 -0.0308
  401loPI   C3B 6415  18.477  15.502   7.823  0.1871  0.1953  0.0169
  401loPI   C4B 6416  18.256  15.623   7.288 -0.1536 -0.2640  0.0524
  402loPI    C1 6417  10.233  11.509   9.536 -0.0815 -0.0401  0.2021
  402loPI    C2 6418  10.224  11.847   9.750  0.0313  0.1003 -0.0110
  402loPI    C3 6419  10.537  11.767   9.514 -0.1180 -0.0228 -0.1703
  402loPI   PO4 6420   9.960  11.501   9.387 -0.3805  0.2314 -0.1140
  402loPI   GL1 6421   9.829  11.064   9.144  0.1989  0.1345 -0.2742
  402loPI   GL2 6422   9.536  11.364   9.247  0.0862 -0.3563  0.0067
  402loPI   C1A 6423   9.954  10.904   8.678  0.1208 -0.1874  0.2506
  402loPI   C2A 6424   9.930  10.764   8.283 -0.0391 -0.1008 -0.2249
  402loPI   C3A 6425   9.954  10.668   7.909 -0.2653  0.0153 -0.1298
  402loPI   C4A 6426  10.032  10.855   7.465  0.0248 -0.0595 -0.0490
  402loPI   C5A 6427   9.896  10.753   7.073 -0.0640 -0.0881  0.0404
  402loPI   C6A 6428   9.456  10.616   7.003  0.1880 -0.1408  0.2288
  402loPI   C1B 6429   9.523  11.388   8.745  0.1671 -0.2683  0.2402
  402loPI   C2B 6430   9.660  11.325   8.249  0.0505 -0.0821 -0.0891
  402loPI   C3B 6431   9.301  11.307   7.876  0.0174 -0.0812 -0.2362
  402loPI   C4B 6432   9.085  11.426   7.437  0.1106 -0.1007 -0.0596
  403loPI    C1 6433  16.734  11.972   9.660 -0.1400  0.2822  0.1360
  403loPI    C2 6434  16.600  12.056  10.027 -0.1762 -0.0425  0.2004
  403loPI    C3 6435  16.444  11.750   9.823  0.1555 -0.1473  0.0964
  403loPI   PO4 6436  16.890  12.138   9.638  0.0777  0.2912 -0.0726
  403loPI   GL1 6437  16.999  12.327   9.398 -0.1195 -0.0777  0.2286
  403loPI   GL2 6438  16.836  12.646   9.255 -0.0572 -0.2214  0.1063
  403loPI   C1A 6439  17.109  11.989   9.024 -0.1316  0.3327  0.1134
  403loPI   C2A 6440  16.943  11.819   8.738  0.0843  0.1847  0.1060
  403loPI   C3A 6441  16.652  11.625   8.544  0.4269  0.0553  0.0683
  403loPI   C4A 6442  16.361  11.587   8.159 -0.3176  0.0900  0.2557
  403loPI   C5A 6443  16.303  11.785   7.780 -0.0993 -0.1784 -0.0418
  403loPI   C6A 6444  16.357  11.957   7.361  0.2570 -0.1251  0.1968
  403loPI   C1B 6445  16.734  12.371   8.939 -0.0652 -0.1353 -0.2372
  403loPI   C2B 6446  16.799  12.309   8.560 -0.1499 -0.1925 -0.0295
  403loPI   C3B 6447  17.043  12.143   8.348 -0.0408  0.0861 -0.1729
  403loPI   C4B 6448  16.872  11.765   8.058  0.1649  0.1883  0.0991
  404loPI    C1 6449  18.359  12.048   9.564  0.0395 -0.1140 -0.0603
  404loPI    C2 6450  18.227  12.140   9.930 -0.1842 -0.0160 -0.1632
  404loPI    C3 6451  18.574  11.946   9.885 -0.1065  0.0586  0.0948
  404loPI   PO4 6452  18.335  12.345   9.430  0.0632 -0.1464 -0.1435
  404loPI   GL1 6453  18.490  12.557   8.982 -0.1644  0.1535 -0.1384
  404loPI   GL2 6454  18.652  12.245   9.009  0.2198 -0.4364 -0.3831
  404loPI   C1A 6455  18.616  12.544   8.515  0.0128  0.1507 -0.3098
  404loPI   C2A 6456  18.743  12.638   8.144 -0.2497 -0.1501 -0.1074
  404loPI   C3A 6457  18.986  12.670   7.791 -0.3849 -0.1847  0.3658
  404loPI   C4A 6458  18.980  12.627   7.404 -0.1736 -0.0665  0.0460
  404loPI   C5A 6459  18.617  12.572   7.082  0.2054  0.0501  0.1798
  404loPI   C6A 6460  18.204  12.350   7.167  0.4859 -0.0593 -0.0685
  404loPI   C1B 6461  18.738  12.051   8.567 -0.0485 -0.0279 -0.2144
  404loPI   C2B 6462  18.858  12.196   8.255  0.0321 -0.2408  0.0180
  404loPI   C3B 6463  19.023  12.191   7.858  0.0104 -0.1025 -0.0170
  404loPI   C4B 6464  18.960  12.127   7.439 -0.0158  0.0960  0.1646
  405loPI    C1 6465  12.122   7.080   9.818 -0.0808 -0.1155 -0.0207
  405loPI    C2 6466  11.885   6.948  10.112 -0.0270  0.1375  0.1393
  405loPI    C3 6467  12.275   6.857  10.113  0.0216  0.3406  0.2805
  405loPI   PO4 6468  12.009   7.020   9.625 -0.5602 -0.1106 -0.1375
  405loPI   GL1 6469  11.872   6.891   9.232  0.2049  0.1635 -0.0070
  405loPI   GL2 6470  11.758   6.559   9.232 -0.1602  0.0296 -0.0560
  405loPI   C1A 6471  11.923   7.001   8.740  0.1036  0.1149  0.2602
  405loPI   C2A 6472  12.012   7.080   8.373 -0.2445 -0.4591 -0.0616
  405loPI   C3A 6473  12.065   7.120   7.927  0.2405  0.2562  0.1988
  405loPI   C4A 6474  12.193   6.951   7.529 -0.1822  0.2044  0.1781
  405loPI   C5A 6475  12.273   6.702   7.276  0.0004 -0.0348 -0.2550
  405loPI   C6A 6476  12.647   6.663   7.014  0.1361  0.0429 -0.0577
  405loPI   C1B 6477  11.758   6.604   8.835 -0.0564  0.2041 -0.0073
  405loPI   C2B 6478  11.716   6.577   8.469 -0.0004 -0.2146  0.3017
  405loPI   C3B 6479  11.627   6.489   8.009 -0.0350 -0.0819 -0.2436
  405loPI   C4B 6480  11.625   6.685   7.609 -0.1108  0.2276 -0.4642
  406loPI    C1 6481  16.276  17.239   9.539 -0.2685  0.1192  0.0046
  406loPI    C2 6482  16.417  16.866   9.567 -0.1953  0.1358 -0.1393
  406loPI    C3 6483  16.453  17.117   9.877 -0.1909  0.0425 -0.0637
  406loPI   PO4 6484  16.356  17.263   9.256 -0.1236 -0.1367 -0.1064
  406loPI   GL1 6485  16.431  16.995   8.943 -0.0292  0.3561 -0.4174
  406loPI   GL2 6486  16.315  16.673   9.067 -0.4405 -0.1097 -0.0373
  406loPI   C1A 6487  16.371  16.819   8.557  0.1120  0.3981 -0.0552
  406loPI   C2A 6488  16.244  16.701   8.270 -0.0032 -0.0356 -0.0683
  406loPI   C3A 6489  16.290  16.569   7.880 -0.1723  0.1125  0.0635
  406loPI   C4A 6490  16.311  16.488   7.496  0.0405  0.2040 -0.1224
  406loPI   C5A 6491  16.328  16.614   7.060 -0.1452 -0.1162 -0.0340
  406loPI   C6A 6492  16.639  16.829   6.819 -0.0605 -0.2849 -0.0045
  406loPI   C1B 6493  16.347  16.276   8.797  0.0288 -0.1310 -0.0790
  406loPI   C2B 6494  16.289  16.224   8.337 -0.1859 -0.2885 -0.0159
  406loPI   C3B 6495  16.003  16.210   8.094 -0.3066 -0.1998 -0.1328
  406loPI   C4B 6496  15.907  15.746   7.897 -0.0796 -0.0335 -0.2913
  407loPI    C1 6497   3.052  13.815   9.712 -0.0133  0.0615 -0.0265
  407loPI    C2 6498   2.762  14.025   9.534 -0.1242 -0.1351 -0.0814
  407loPI    C3 6499   2.784  14.012   9.934  0.1874  0.3925 -0.0719
  407loPI   PO4 6500   3.047  13.562   9.610  0.3029 -0.2085  0.3275
  407loPI   GL1 6501   3.065  13.347   9.327  0.0636  0.1090  0.1242
  407loPI   GL2 6502   3.261  13.117   9.206 -0.1506  0.0553  0.2167
  407loPI   C1A 6503   2.802  13.460   8.931  0.3655 -0.3204  0.2881
  407loPI   C2A 6504   2.846  13.246   8.542  0.1525 -0.0592 -0.1891
  407loPI   C3A 6505   2.983  13.205   8.143  0.0224 -0.1395  0.1622
  407loPI   C4A 6506   2.836  13.345   7.878  0.2269 -0.2270  0.0513
  407loPI   C5A 6507   2.596  13.560   7.770 -0.0445 -0.1001 -0.0789
  407loPI   C6A 6508   2.447  13.972   7.637 -0.0997  0.1564  0.0565
  407loPI   C1B 6509   3.675  13.173   9.242  0.1940 -0.1713  0.0666
  407loPI   C2B 6510   3.942  13.096   8.869  0.0571  0.1746 -0.0697
  407loPI   C3B 6511   3.867  13.134   8.457 -0.3126  0.2595 -0.2184
  407loPI   C4B 6512   3.880  12.955   8.102 -0.0291 -0.0957 -0.0677
  408loPI    C1 6513  16.233   0.736   9.373 -0.0525  0.1872 -0.3843
  408loPI    C2 6514  16.015   1.071   9.386 -0.1003  0.1470 -0.0536
  408loPI    C3 6515  15.929   0.767   9.631  0.2096  0.0569 -0.0518
  408loPI   PO4 6516  16.277   0.699   9.081 -0.0315  0.0797 -0.1626
  408loPI   GL1 6517  16.120   0.573   8.670 -0.1265  0.0764 -0.2007
  408loPI   GL2 6518  16.299   0.339   8.443  0.3636 -0.0707 -0.0792
  408loPI   C1A 6519  15.897   0.570   8.238  0.0157  0.1367 -0.1953
  408loPI   C2A 6520  15.902   0.719   7.773 -0.1129 -0.1261 -0.0249
  408loPI   C3A 6521  15.714   0.716   7.365  0.1494  0.1774  0.2112
  408loPI   C4A 6522  15.514   0.519   6.983 -0.0819  0.0001 -0.3244
  408loPI   C5A 6523  15.454   0.430   6.474 -0.0436  0.0302  0.1361
  408loPI   C6A 6524  15.380   0.414   5.985  0.0825  0.2330 -0.0469
  408loPI   C1B 6525  16.300   0.410   7.987  0.0071 -0.1640 -0.1567
  408loPI   C2B 6526  16.305   0.562   7.495 -0.2099  0.0002  0.0131
  408loPI   C3B 6527  16.113   0.497   7.126  0.1554 -0.0606  0.1267
  408loPI   C4B 6528  16.369   0.766   6.911 -0.0551 -0.0945 -0.1488
  409loPI    C1 6529  18.473   6.732   9.922  0.0391 -0.0314  0.1274
  409loPI    C2 6530  18.226   6.426   9.997 -0.0833  0.0137 -0.0845
  409loPI    C3 6531  18.324   6.680  10.290 -0.0505 -0.1766  0.0716
  409loPI   PO4 6532  18.397   6.835   9.727 -0.1134 -0.0098 -0.0774
  409loPI   GL1 6533  18.521   6.711   9.378  0.1214  0.1939 -0.0174
  409loPI   GL2 6534  18.820   6.608   9.284 -0.1776  0.1885  0.1643
  409loPI   C1A 6535  18.359   6.637   8.989  0.0974 -0.0782  0.2759
  409loPI   C2A 6536  18.310   6.739   8.487  0.0250 -0.3820 -0.0239
  409loPI   C3A 6537  18.046   6.468   8.200  0.1678  0.0141 -0.1121
  409loPI   C4A 6538  18.080   6.458   7.768  0.0800 -0.0491  0.0514
  409loPI   C5A 6539  18.349   6.264   7.535  0.1819 -0.1953  0.0200
  409loPI   C6A 6540  18.777   6.221   7.337  0.2647  0.1592 -0.1269
  409loPI   C1B 6541  18.840   6.611   8.848  0.2600 -0.0090 -0.2037
  409loPI   C2B 6542  18.772   6.598   8.437  0.0808 -0.2659 -0.1195
  409loPI   C3B 6543  18.607   6.798   8.129  0.1764 -0.0875 -0.0275
  409loPI   C4B 6544  18.554   6.736   7.711  0.0692  0.1498 -0.0730
  410loPI    C1 6545  13.072  11.148  10.170 -0.0643  0.0662  0.1000
  410loPI    C2 6546  13.392  10.934  10.277 -0.0903  0.0346  0.1147
  410loPI    C3 6547  13.312  11.280  10.462 -0.1254 -0.0111  0.1857
  410loPI   PO4 6548  13.163  11.218   9.848  0.0714 -0.3608  0.1757
  410loPI   GL1 6549  13.213  11.133   9.369  0.1396 -0.0184 -0.1816
  410loPI   GL2 6550  13.382  11.292   9.168  0.0159  0.0882  0.2108
  410loPI   C1A 6551  13.072  10.985   8.898  0.1500  0.0292  0.0807
  410loPI   C2A 6552  13.161  10.894   8.488  0.0022  0.4324  0.2790
  410loPI   C3A 6553  13.313  10.949   8.147 -0.1034 -0.0223  0.0552
  410loPI   C4A 6554  13.391  10.845   7.744 -0.1107 -0.0299 -0.0740
  410loPI   C5A 6555  13.233  10.857   7.296  0.6471  0.1628  0.0739
  410loPI   C6A 6556  12.815  10.936   7.207  0.3398  0.3016  0.5286
  410loPI   C1B 6557  13.603  11.140   8.764 -0.2933  0.0092  0.1038
  410loPI   C2B 6558  13.728  10.928   8.386 -0.2651 -0.2847  0.2059
  410loPI   C3B 6559  13.790  10.737   8.038 -0.1692  0.0664 -0.4578
  410loPI   C4B 6560  13.962  10.275   8.069 -0.4668 -0.0156  0.2038
  411loPI    C1 6561   7.072   5.642   9.544 -0.1315  0.0957 -0.1385
  411loPI    C2 6562   7.000   5.664   9.937  0.0435 -0.0883 -0.0945
  411loPI    C3 6563   6.853   5.943   9.690 -0.4372 -0.2081  0.0450
  411loPI   PO4 6564   6.911   5.375   9.530 -0.0315  0.0628  0.1415
  411loPI   GL1 6565   6.649   5.319   9.228 -0.3767 -0.3138 -0.2918
  411loPI   GL2 6566   6.693   5.702   9.248 -0.0651  0.1671  0.0170
  411loPI   C1A 6567   6.678   5.064   8.905  0.2687  0.5342  0.1658
  411loPI   C2A 6568   6.628   5.107   8.514 -0.2486  0.1205 -0.3125
  411loPI   C3A 6569   6.683   5.433   8.208  0.0334  0.2442 -0.2114
  411loPI   C4A 6570   6.629   5.815   8.282  0.0032 -0.1937 -0.1458
  411loPI   C5A 6571   6.627   6.006   7.913  0.2527 -0.1033  0.2524
  411loPI   C6A 6572   6.647   5.948   7.530 -0.0480  0.1714 -0.0651
  411loPI   C1B 6573   6.758   5.643   8.773 -0.2463  0.0018  0.0367
  411loPI   C2B 6574   7.095   5.403   8.619  0.1129 -0.0218 -0.1185
  411loPI   C3B 6575   7.048   4.990   8.280 -0.1146  0.0219  0.2712
  411loPI   C4B 6576   7.176   4.870   7.915 -0.1584  0.2403  0.0933
  412loPI    C1 6577   5.898  18.964   9.661 -0.1710  0.0138 -0.1370
  412loPI    C2 6578   5.989  19.343   9.752  0.1360 -0.1082  0.0838
  412loPI    C3 6579   5.686  19.160   9.937  0.1008 -0.0273  0.1063
  412loPI   PO4 6580   6.017  18.960   9.387  0.5496  0.0235  0.1799
  412loPI   GL1 6581   5.967  19.002   9.002  0.2929 -0.1356  0.1535
  412loPI   GL2 6582   5.679  18.958   8.941  0.2507 -0.0538 -0.2996
  412loPI   C1A 6583   6.083  19.168   8.693 -0.3850 -0.1438 -0.0468
  412loPI   C2A 6584   6.049  18.891   8.357 -0.0030  0.3114  0.1021
  412loPI   C3A 6585   5.842  18.964   8.032 -0.1079  0.0166  0.1365
  412loPI   C4A 6586   5.798  18.790   7.671 -0.1029  0.3603 -0.2572
  412loPI   C5A 6587   5.626  18.538   7.330 -0.1495 -0.3150 -0.1169
  412loPI   C6A 6588   5.291  18.875   7.213 -0.1793  0.2876  0.0377
  412loPI   C1B 6589   5.577  18.955   8.523  0.2504 -0.0128 -0.2895
  412loPI   C2B 6590   5.328  18.884   8.122  0.1949 -0.1412  0.2177
  412loPI   C3B 6591   5.284  18.782   7.712  0.1198  0.0518 -0.0318
  412loPI   C4B 6592   5.099  18.407   7.584 -0.2029 -0.0107  0.0898
  413loPI    C1 6593  15.010   2.351   9.673 -0.1474  0.1830  0.1027
  413loPI    C2 6594  14.753   2.095   9.842 -0.1064  0.0082 -0.0953
  413loPI    C3 6595  14.942   2.367  10.066 -0.1590 -0.1275  0.1160
  413loPI   PO4 6596  14.876   2.416   9.405 -0.2213  0.0331 -0.1472
  413loPI   GL1 6597  14.909   2.721   9.098 -0.0216 -0.1813  0.0573
  413loPI   GL2 6598  14.680   2.981   9.116 -0.0792 -0.2262  0.2996
  413loPI   C1A 6599  15.049   2.643   8.680 -0.1496 -0.2769  0.0186
  413loPI   C2A 6600  15.166   2.793   8.293 -0.0423  0.2780 -0.3148
  413loPI   C3A 6601  15.275   2.706   7.799  0.0818 -0.6418 -0.4271
  413loPI   C4A 6602  15.293   2.695   7.382  0.0986 -0.3519 -0.0785
  413loPI   C5A 6603  15.309   2.559   6.960  0.7278 -0.0342 -0.1873
  413loPI   C6A 6604  15.058   2.706   6.628  0.1197 -0.0227  0.0801
  413loPI   C1B 6605  14.375   3.186   8.841  0.3422  0.2121 -0.2318
  413loPI   C2B 6606  14.159   3.166   8.467 -0.0360  0.2141  0.1280
  413loPI   C3B 6607  14.178   3.223   8.058 -0.0537  0.0565  0.1656
  413loPI   C4B 6608  13.937   3.416   7.720 -0.0041  0.0320  0.0798
  414loPI    C1 6609   8.032   6.892   9.872 -0.3014 -0.0623  0.0696
  414loPI    C2 6610   7.968   7.149  10.172 -0.0384  0.0038  0.0717
  414loPI    C3 6611   8.257   6.873  10.203  0.2071  0.2185 -0.2475
  414loPI   PO4 6612   7.813   6.834   9.785 -0.1499 -0.3525  0.6364
  414loPI   GL1 6613   7.512   6.658   9.505 -0.4841 -0.3918  0.0819
  414loPI   GL2 6614   7.463   6.487   9.388 -0.2349 -0.2196 -0.0448
  414loPI   C1A 6615   7.693   6.766   9.082 -0.0834 -0.1979 -0.0004
  414loPI   C2A 6616   7.755   6.726   8.599  0.1142 -0.0514 -0.1929
  414loPI   C3A 6617   8.161   6.666   8.371  0.0505  0.0370  0.1951
  414loPI   C4A 6618   8.300   6.691   8.027  0.1434 -0.0642 -0.2071
  414loPI   C5A 6619   8.367   6.576   7.588  0.1142  0.5574 -0.1055
  414loPI   C6A 6620   8.662   6.350   7.250  0.3517  0.1321 -0.4695
  414loPI   C1B 6621   7.602   6.298   9.071  0.0362  0.0699 -0.0585
  414loPI   C2B 6622   7.738   6.214   8.597  0.2169  0.1670 -0.1422
  414loPI   C3B 6623   7.714   6.062   8.273  0.3015  0.1309 -0.0412
  414loPI   C4B 6624   7.542   6.151   7.880  0.1939 -0.0202 -0.2504
  415loPI    C1 6625  14.449  13.165   9.741 -0.3523  0.0400  0.1857
  415loPI    C2 6626  14.693  13.120  10.054 -0.1305 -0.1905 -0.0157
  415loPI    C3 6627  14.576  13.486   9.944  0.3107 -0.0548 -0.0539
  415loPI   PO4 6628  14.354  12.922   9.719 -0.1838  0.1788 -0.1273
  415loPI   GL1 6629  14.181  12.849   9.338 -0.0258 -0.2249 -0.1791
  415loPI   GL2 6630  14.398  13.100   9.248 -0.1650 -0.1227  0.1416
  415loPI   C1A 6631  13.976  12.938   8.869  0.2894 -0.0873  0.1470
  415loPI   C2A 6632  14.114  12.713   8.564 -0.1528  0.0379  0.1809
  415loPI   C3A 6633  14.211  12.732   8.167  0.1611 -0.0586  0.2674
  415loPI   C4A 6634  14.232  12.826   7.757 -0.2539  0.2551  0.4231
  415loPI   C5A 6635  13.978  13.010   7.362  0.2180  0.0121  0.2759
  415loPI   C6A 6636  13.849  12.883   6.970 -0.2275 -0.0364  0.4285
  415loPI   C1B 6637  14.480  12.918   8.906 -0.1887  0.0070 -0.0176
  415loPI   C2B 6638  14.576  12.865   8.513 -0.3290  0.3079  0.1548
  415loPI   C3B 6639  14.670  12.876   8.041 -0.0955  0.7370 -0.1151
  415loPI   C4B 6640  14.720  12.933   7.615  0.0743 -0.1458 -0.0562
  416loPI    C1 6641   4.675  12.256   9.908  0.2126 -0.0217  0.3935
  416loPI    C2 6642   4.527  12.140  10.261  0.2915 -0.1285  0.3922
  416loPI    C3 6643   4.676  11.868  10.007 -0.1420 -0.1030  0.0996
  416loPI   PO4 6644   4.499  12.402   9.807  0.2557 -0.0391  0.0209
  416loPI   GL1 6645   4.326  12.516   9.497  0.0664 -0.0146  0.1364
  416loPI   GL2 6646   4.538  12.344   9.199  0.0262  0.0332  0.1764
  416loPI   C1A 6647   4.078  12.655   9.093  0.1363 -0.0777 -0.0487
  416loPI   C2A 6648   3.939  12.675   8.667 -0.4470  0.0673  0.0829
  416loPI   C3A 6649   3.981  12.516   8.297  0.0011 -0.3050  0.2092
  416loPI   C4A 6650   4.042  12.223   7.888 -0.0225 -0.1736  0.0863
  416loPI   C5A 6651   4.342  12.173   7.521 -0.2836 -0.0381  0.3711
  416loPI   C6A 6652   4.499  12.289   7.137 -0.2061 -0.0181 -0.4926
  416loPI   C1B 6653   4.400  12.478   8.741 -0.1864  0.1347 -0.2516
  416loPI   C2B 6654   4.455  12.321   8.308 -0.0092  0.1405  0.3620
  416loPI   C3B 6655   4.474  12.547   7.865  0.0013 -0.1252  0.2079
  416loPI   C4B 6656   4.463  12.736   7.526  0.0669 -0.1368  0.1672
  417loPI    C1 6657  11.480   0.841  10.466  0.1374  0.0425  0.1169
  417loPI    C2 6658  11.182   0.636  10.639  0.0260  0.2051  0.1201
  417loPI    C3 6659  11.469   0.442  10.439 -0.2799  0.0677 -0.1953
  417loPI   PO4 6660  11.282   1.020  10.342 -0.0449 -0.1943  0.0408
  417loPI   GL1 6661  11.294   1.349  10.013 -0.4705  0.1604 -0.1943
  417loPI   GL2 6662  11.352   1.152   9.805 -0.1034  0.1846 -0.0451
  417loPI   C1A 6663  11.671   1.541   9.728 -0.0623  0.0027 -0.2851
  417loPI   C2A 6664  11.696   1.773   9.328  0.0967 -0.1965 -0.1351
  417loPI   C3A 6665  11.833   1.917   8.989 -0.1658 -0.0195 -0.1924
  417loPI   C4A 6666  11.716   2.025   8.491  0.1758  0.1665 -0.5670
  417loPI   C5A 6667  12.022   1.932   8.082 -0.2609  0.1008 -0.1533
  417loPI   C6A 6668  12.252   1.480   7.840  0.1327 -0.2687  0.3398
  417loPI   C1B 6669  11.329   1.385   9.412  0.2681 -0.2138 -0.1402
  417loPI   C2B 6670  11.456   1.489   9.022  0.1745  0.2487  0.2119
  417loPI   C3B 6671  11.624   1.417   8.623  0.2830  0.0317  0.0729
  417loPI   C4B 6672  11.482   1.344   8.185 -0.1348  0.0905  0.2102
  418loPI    C1 6673  18.332  16.559   9.751  0.0066  0.3591 -0.2028
  418loPI    C2 6674  18.111  16.810   9.970 -0.0734  0.0836  0.0400
  418loPI    C3 6675  18.475  16.704  10.095 -0.1630 -0.1604  0.0978
  418loPI   PO4 6676  18.208  16.583   9.524 -0.1300 -0.1256 -0.0062
  418loPI   GL1 6677  18.005  16.884   9.193 -0.2442 -0.0887  0.0285
  418loPI   GL2 6678  18.426  16.921   9.096  0.0841 -0.1376 -0.0682
  418loPI   C1A 6679  18.058  16.702   8.829  0.0861  0.1395  0.0607
  418loPI   C2A 6680  18.120  16.722   8.447 -0.2298 -0.0693 -0.3473
  418loPI   C3A 6681  18.202  16.713   7.994 -0.0990  0.1144  0.0294
  418loPI   C4A 6682  18.317  16.503   7.574  0.1115 -0.4465  0.4386
  418loPI   C5A 6683  18.360  16.171   7.156  0.0101 -0.2747  0.2944
  418loPI   C6A 6684  18.793  15.916   7.059 -0.1283 -0.1712 -0.2743
  418loPI   C1B 6685  18.588  16.767   8.729 -0.0562 -0.2003  0.0489
  418loPI   C2B 6686  18.582  16.888   8.337  0.1693 -0.0008  0.1341
  418loPI   C3B 6687  18.636  16.843   7.890  0.3184  0.0853  0.1171
  418loPI   C4B 6688  18.703  16.877   7.437  0.1563  0.0161  0.2720
  419loPI    C1 6689   3.109  10.989  10.058  0.0466  0.1017 -0.2377
  419loPI    C2 6690   3.126  11.280  10.333  0.0164 -0.2009  0.0909
  419loPI    C3 6691   3.426  11.232  10.073 -0.1180  0.3162 -0.1725
  419loPI   PO4 6692   2.914  10.981   9.954 -0.0837 -0.1439 -0.2055
  419loPI   GL1 6693   2.801  11.070   9.435 -0.4163 -0.3097 -0.1892
  419loPI   GL2 6694   3.147  11.124   9.483  0.0565  0.0426  0.0029
  419loPI   C1A 6695   2.531  10.984   9.139  0.1154 -0.1319 -0.0805
  419loPI   C2A 6696   2.564  11.016   8.810 -0.2285 -0.1567  0.2593
  419loPI   C3A 6697   2.594  10.970   8.391  0.0655 -0.0046  0.3111
  419loPI   C4A 6698   2.714  11.054   7.877 -0.1707 -0.1266  0.1309
  419loPI   C5A 6699   2.842  10.873   7.496 -0.0639 -0.0934 -0.1076
  419loPI   C6A 6700   2.879  10.558   7.248  0.0067 -0.3803  0.1760
  419loPI   C1B 6701   3.065  11.586   9.214  0.0413 -0.1540 -0.0867
  419loPI   C2B 6702   3.067  11.847   8.832 -0.0559 -0.3121 -0.2200
  419loPI   C3B 6703   2.938  11.851   8.440  0.1544 -0.0446 -0.0394
  419loPI   C4B 6704   2.938  11.902   8.033 -0.3644  0.2130  0.1901
  420loPI    C1 6705  13.144   3.757   9.819  0.1780  0.0441 -0.0907
  420loPI    C2 6706  13.527   3.827   9.909  0.1925  0.0753 -0.1757
  420loPI    C3 6707  13.275   4.133   9.854  0.1826  0.0564 -0.2357
  420loPI   PO4 6708  13.190   3.596   9.572 -0.1891  0.1638 -0.1791
  420loPI   GL1 6709  13.184   3.717   9.125  0.0731  0.2777  0.0258
  420loPI   GL2 6710  12.864   3.690   9.229 -0.1044 -0.1483  0.0253
  420loPI   C1A 6711  13.016   3.706   8.721 -0.3241 -0.0892 -0.2187
  420loPI   C2A 6712  12.960   3.719   8.356 -0.0408  0.0312 -0.0102
  420loPI   C3A 6713  12.973   3.689   7.956  0.1770  0.1239  0.1230
  420loPI   C4A 6714  13.279   3.927   7.662 -0.3220  0.0301 -0.3195
  420loPI   C5A 6715  13.377   4.155   7.304 -0.3345 -0.2637 -0.1361
  420loPI   C6A 6716  13.411   4.167   6.844 -0.3106  0.0748  0.0500
  420loPI   C1B 6717  12.564   3.766   8.852 -0.0186 -0.3074  0.0306
  420loPI   C2B 6718  12.435   3.752   8.410 -0.1340 -0.1954  0.0704
  420loPI   C3B 6719  12.291   3.697   8.012  0.1279  0.1931 -0.0739
  420loPI   C4B 6720  12.101   3.451   7.660 -0.5717  0.0462 -0.1725
  421loPI    C1 6721  12.163   3.879  10.556  0.0852  0.1564  0.0668
  421loPI    C2 6722  11.893   4.172  10.594 -0.1954 -0.0983  0.0782
  421loPI    C3 6723  11.994   3.950  10.911 -0.1110 -0.1243  0.0337
  421loPI   PO4 6724  12.052   3.698  10.321  0.1008  0.2491  0.0097
  421loPI   GL1 6725  11.768   3.674   9.940 -0.0687  0.2198  0.3112
  421loPI   GL2 6726  11.456   3.606   9.855  0.1078 -0.2614  0.4268
  421loPI   C1A 6727  11.732   3.730   9.482 -0.0522  0.2429  0.2398
  421loPI   C2A 6728  11.559   3.799   9.036  0.1560  0.0631 -0.4800
  421loPI   C3A 6729  11.454   3.763   8.595  0.2171 -0.2174 -0.0756
  421loPI   C4A 6730  11.249   3.690   8.140 -0.1467 -0.1172 -0.2378
  421loPI   C5A 6731  11.087   3.714   7.831  0.2082 -0.2425  0.3356
  421loPI   C6A 6732  10.704   3.432   7.638  0.0040 -0.1278  0.0032
  421loPI   C1B 6733  11.218   3.361   9.591  0.0878 -0.2318 -0.0477
  421loPI   C2B 6734  11.271   3.074   9.311 -0.0789 -0.1483  0.0207
  421loPI   C3B 6735  11.128   3.012   8.960  0.1451 -0.0007  0.0025
  421loPI   C4B 6736  11.245   2.921   8.501  0.0191  0.4537  0.0658
  422loPI    C1 6737  14.460  14.850   9.828 -0.0893 -0.0182 -0.0716
  422loPI    C2 6738  14.780  15.090   9.837 -0.1099  0.0185 -0.2703
  422loPI    C3 6739  14.827  14.692   9.842 -0.0822  0.0220  0.2715
  422loPI   PO4 6740  14.339  14.914   9.675  0.2458  0.2970 -0.0754
  422loPI   GL1 6741  14.324  14.896   9.219  0.0350 -0.0384  0.0962
  422loPI   GL2 6742  14.399  14.673   9.099  0.1052 -0.0591 -0.0113
  422loPI   C1A 6743  13.952  14.619   8.994 -0.1539 -0.0155 -0.3884
  422loPI   C2A 6744  13.828  14.502   8.578 -0.6044  0.0796  0.1411
  422loPI   C3A 6745  13.675  14.115   8.291 -0.3164 -0.3030  0.0526
  422loPI   C4A 6746  13.662  14.029   7.966 -0.0151  0.0239 -0.3773
  422loPI   C5A 6747  13.530  13.988   7.549  0.0087 -0.2343  0.5353
  422loPI   C6A 6748  13.291  13.637   7.292 -0.1121  0.1274 -0.2947
  422loPI   C1B 6749  14.389  14.714   8.646  0.0691  0.0964  0.0148
  422loPI   C2B 6750  14.418  14.645   8.228  0.2124 -0.0597 -0.1105
  422loPI   C3B 6751  14.691  14.739   7.837  0.0441 -0.2464 -0.0880
  422loPI   C4B 6752  14.548  14.681   7.369  0.3317  0.0747 -0.1920
  423loPI    C1 6753   2.279   0.058   9.640  0.0199  0.0283  0.0365
  423loPI    C2 6754   1.994  -0.079   9.885 -0.1606  0.2677 -0.0356
  423loPI    C3 6755   2.333   0.070  10.036 -0.1969  0.2516  0.0618
  423loPI   PO4 6756   2.131   0.274   9.484  0.1298  0.3277  0.2045
  423loPI   GL1 6757   2.074   0.431   9.024 -0.2025  0.1174 -0.0067
  423loPI   GL2 6758   1.942   0.125   9.034 -0.1633  0.0407 -0.0132
  423loPI   C1A 6759   2.371   0.454   8.632 -0.0206  0.0975  0.3133
  423loPI   C2A 6760   2.369   0.754   8.307 -0.1698  0.2129  0.0930
  423loPI   C3A 6761   2.556   1.102   8.098  0.1565  0.2776  0.1626
  423loPI   C4A 6762   2.574   1.514   7.881 -0.1605 -0.1519 -0.0965
  423loPI   C5A 6763   2.501   1.985   7.909  0.1603 -0.2823  0.2555
  423loPI   C6A 6764   2.452   2.030   7.467 -0.0006  0.0764  0.0289
  423loPI   C1B 6765   1.896   0.254   8.578  0.0584  0.1413  0.2290
  423loPI   C2B 6766   2.047   0.348   8.201  0.4798  0.1128  0.1912
  423loPI   C3B 6767   2.063   0.208   7.794 -0.1410 -0.0278 -0.2188
  423loPI   C4B 6768   2.242   0.215   7.367 -0.0679  0.1975 -0.1154
  424loPI    C1 6769   5.948   5.842   9.538 -0.1143 -0.1428  0.1829
  424loPI    C2 6770   6.181   5.552   9.392 -0.0453 -0.0122  0.0300
  424loPI    C3 6771   6.002   5.505   9.747 -0.0052 -0.2254  0.0237
  424loPI   PO4 6772   6.061   6.060   9.355 -0.3684 -0.1835  0.1129
  424loPI   GL1 6773   6.326   6.079   9.027  0.2042  0.1557 -0.3075
  424loPI   GL2 6774   6.285   5.688   8.927  0.0595 -0.2863  0.2312
  424loPI   C1A 6775   6.321   6.175   8.596  0.0003 -0.1434  0.0462
  424loPI   C2A 6776   6.348   6.287   8.208 -0.3293  0.1170  0.2869
  424loPI   C3A 6777   6.555   6.458   7.778 -0.1073 -0.2598  0.0878
  424loPI   C4A 6778   6.444   6.385   7.353  0.0064 -0.2475  0.0309
  424loPI   C5A 6779   6.542   6.532   6.899  0.3265 -0.3043 -0.0446
  424loPI   C6A 6780   6.776   6.295   6.622  0.1999  0.1763  0.4710
  424loPI   C1B 6781   6.303   5.513   8.587 -0.2480 -0.0799 -0.0519
  424loPI   C2B 6782   6.211   5.367   8.166  0.0378  0.0668  0.0556
  424loPI   C3B 6783   6.118   5.383   7.798  0.0099  0.1529 -0.2328
  424loPI   C4B 6784   6.042   5.070   7.475 -0.2744 -0.1687 -0.0238
  425loPI    C1 6785  15.342  11.601   9.427 -0.1877  0.4253  0.2515
  425loPI    C2 6786  15.523  11.419   9.734  0.1159  0.2101 -0.0479
  425loPI    C3 6787  15.181  11.617   9.793  0.0782  0.0261  0.3937
  425loPI   PO4 6788  15.588  11.684   9.341 -0.0107 -0.1176  0.0620
  425loPI   GL1 6789  15.775  11.513   8.894  0.0682  0.1166 -0.1869
  425loPI   GL2 6790  15.949  11.801   9.001 -0.0943  0.0923 -0.0721
  425loPI   C1A 6791  15.542  11.570   8.597  0.0798 -0.5000 -0.0301
  425loPI   C2A 6792  15.289  11.415   8.323 -0.1455  0.3372  0.0729
  425loPI   C3A 6793  15.032  11.280   7.969  0.2755  0.0633  0.1296
  425loPI   C4A 6794  15.062  11.410   7.566 -0.2427  0.2683  0.2334
  425loPI   C5A 6795  15.152  11.337   7.161  0.1407 -0.2107  0.0801
  425loPI   C6A 6796  15.426  11.008   7.012  0.0553 -0.1038  0.3279
  425loPI   C1B 6797  16.070  11.797   8.540 -0.1505 -0.1452 -0.3323
  425loPI   C2B 6798  16.001  11.922   8.205  0.0760  0.2553  0.2083
  425loPI   C3B 6799  15.833  11.910   7.792 -0.0891 -0.1656  0.0036
  425loPI   C4B 6800  15.858  11.917   7.363  0.2376 -0.0015 -0.1598
  426loPI    C1 6801  17.366  15.171   9.510 -0.1376  0.3190 -0.0956
  426loPI    C2 6802  16.974  15.223   9.567 -0.1208  0.1818  0.1606
  426loPI    C3 6803  17.189  15.015   9.833  0.1081  0.1718 -0.0289
  426loPI   PO4 6804  17.464  15.415   9.343 -0.0269 -0.0959 -0.1037
  426loPI   GL1 6805  17.441  15.716   8.976  0.1812 -0.0902  0.0260
  426loPI   GL2 6806  17.602  15.906   8.959  0.0874  0.1329  0.6311
  426loPI   C1A 6807  17.316  15.606   8.519 -0.3369  0.0025  0.1596
  426loPI   C2A 6808  17.392  15.589   8.084  0.1193 -0.2047  0.0969
  426loPI   C3A 6809  17.481  15.620   7.607  0.2978  0.2910 -0.2284
  426loPI   C4A 6810  17.369  15.564   7.244 -0.1032  0.2879 -0.0014
  426loPI   C5A 6811  17.468  15.619   6.860 -0.1358 -0.3489 -0.0796
  426loPI   C6A 6812  17.751  15.634   6.564  0.3287 -0.0005  0.2260
  426loPI   C1B 6813  17.724  15.790   8.541 -0.2008 -0.3851  0.0214
  426loPI   C2B 6814  17.815  15.806   8.227 -0.0205  0.0724 -0.1482
  426loPI   C3B 6815  17.764  15.933   7.780 -0.0272 -0.4210 -0.1389
  426loPI   C4B 6816  17.877  15.961   7.366 -0.3088 -0.0221 -0.1805
  427loPI    C1 6817   8.404   4.869  10.101 -0.3347  0.3776 -0.3663
  427loPI    C2 6818   8.036   4.771  10.220 -0.1243 -0.0291 -0.0239
  427loPI    C3 6819   8.285   4.955  10.473  0.0773 -0.2222 -0.0786
  427loPI   PO4 6820   8.368   4.725   9.875  0.0920 -0.0084 -0.2948
  427loPI   GL1 6821   8.606   4.456   9.560 -0.1602 -0.0047  0.5243
  427loPI   GL2 6822   8.860   4.680   9.469 -0.0409  0.1213  0.2107
  427loPI   C1A 6823   8.397   4.395   9.087  0.0993 -0.2003  0.1160
  427loPI   C2A 6824   8.090   4.220   8.868  0.0556 -0.0877  0.1214
  427loPI   C3A 6825   8.008   4.228   8.403 -0.0703 -0.3860 -0.0728
  427loPI   C4A 6826   8.152   4.198   8.008 -0.0067 -0.0306  0.2154
  427loPI   C5A 6827   8.250   4.316   7.572 -0.2504 -0.2203 -0.2272
  427loPI   C6A 6828   8.014   4.572   7.262 -0.1287  0.1172  0.0479
  427loPI   C1B 6829   8.898   4.544   9.023 -0.2411  0.0099 -0.0113
  427loPI   C2B 6830   9.031   4.428   8.620  0.2657 -0.1859  0.1808
  427loPI   C3B 6831   9.332   4.415   8.288 -0.1252 -0.5412  0.0547
  427loPI   C4B 6832   9.547   4.401   7.974  0.3844 -0.4143  0.2246
  428loPI    C1 6833  17.619  11.558   9.830 -0.0719  0.0272  0.0766
  428loPI    C2 6834  17.813  11.880   9.968 -0.0638 -0.0355  0.2135
  428loPI    C3 6835  17.453  11.786  10.113 -0.2119  0.0967 -0.0602
  428loPI   PO4 6836  17.664  11.510   9.580  0.2056  0.0130  0.1842
  428loPI   GL1 6837  17.783  11.810   9.285  0.0932 -0.2416  0.0463
  428loPI   GL2 6838  18.006  11.733   9.325 -0.0655  0.2265  0.2700
  428loPI   C1A 6839  17.869  11.811   8.832 -0.0352  0.1736  0.1491
  428loPI   C2A 6840  17.842  11.981   8.405  0.3493 -0.0140 -0.1598
  428loPI   C3A 6841  18.036  11.943   7.953 -0.2502  0.1506  0.0607
  428loPI   C4A 6842  18.259  11.604   7.877  0.1471 -0.0441 -0.1058
  428loPI   C5A 6843  18.360  11.305   8.180  0.0952 -0.0477 -0.1724
  428loPI   C6A 6844  18.710  11.320   8.436 -0.1261  0.0773  0.0001
  428loPI   C1B 6845  18.360  11.744   9.051  0.1308 -0.0728 -0.1192
  428loPI   C2B 6846  18.786  11.628   8.867  0.0014 -0.0887  0.2581
  428loPI   C3B 6847  19.052  11.716   8.667 -0.0759  0.0181  0.0257
  428loPI   C4B 6848  19.305  11.974   8.316  0.1252 -0.1100  0.0318
  429loPI    C1 6849  12.247   4.463   9.999 -0.1051  0.0939  0.1468
  429loPI    C2 6850  12.524   4.617  10.244  0.0093  0.1160  0.0054
  429loPI    C3 6851  12.312   4.297  10.356  0.2666 -0.0539  0.0159
  429loPI   PO4 6852  12.500   4.432   9.730 -0.0127  0.3435 -0.1501
  429loPI   GL1 6853  12.451   4.258   9.334 -0.0346  0.0928 -0.2413
  429loPI   GL2 6854  12.421   4.611   9.235  0.1228 -0.2715 -0.0723
  429loPI   C1A 6855  12.412   4.226   8.881  0.3146  0.1071  0.2589
  429loPI   C2A 6856  12.295   4.254   8.478 -0.3767 -0.3025  0.0967
  429loPI   C3A 6857  12.114   4.145   8.148  0.2017  0.0890 -0.1917
  429loPI   C4A 6858  11.888   4.063   7.829  0.3135 -0.2464  0.1458
  429loPI   C5A 6859  11.420   4.047   7.627 -0.0508  0.3727 -0.0077
  429loPI   C6A 6860  11.032   3.886   7.349 -0.0585 -0.1966 -0.0482
  429loPI   C1B 6861  12.308   4.757   8.747 -0.1164  0.0397  0.1269
  429loPI   C2B 6862  12.293   4.824   8.374  0.0654 -0.1407 -0.0953
  429loPI   C3B 6863  11.985   4.723   8.266 -0.0372 -0.0540  0.1339
  429loPI   C4B 6864  11.782   4.543   7.973  0.0844  0.0272  0.0889
  430loPI    C1 6865  15.674  15.337   9.796  0.1063 -0.1572  0.1894
  430loPI    C2 6866  15.285  15.281   9.870  0.0769 -0.2202 -0.0088
  430loPI    C3 6867  15.517  15.452  10.146 -0.0945 -0.1663  0.1038
  430loPI   PO4 6868  15.618  15.446   9.588  0.0124 -0.0647 -0.1577
  430loPI   GL1 6869  15.460  15.334   9.196 -0.1658  0.1897  0.2223
  430loPI   GL2 6870  15.319  15.003   9.152  0.0352  0.1968 -0.1033
  430loPI   C1A 6871  15.681  15.321   8.701 -0.2684 -0.0296 -0.4101
  430loPI   C2A 6872  15.532  15.076   8.403 -0.1177 -0.0326  0.0117
  430loPI   C3A 6873  15.387  14.840   8.027  0.0520  0.1851  0.0331
  430loPI   C4A 6874  15.148  14.926   7.673 -0.1170 -0.4007 -0.0521
  430loPI   C5A 6875  15.063  14.660   7.407 -0.4950 -0.0189  0.0160
  430loPI   C6A 6876  15.008  14.667   6.951  0.1507  0.1290  0.5140
  430loPI   C1B 6877  15.329  14.785   8.813 -0.1123  0.0017  0.2082
  430loPI   C2B 6878  15.577  14.510   8.523 -0.1289 -0.0255 -0.4386
  430loPI   C3B 6879  15.590  14.394   8.040  0.0501 -0.0906 -0.0575
  430loPI   C4B 6880  15.757  14.710   7.643  0.0187 -0.0512 -0.4110
  431loPI    C1 6881   6.623   2.833   9.593  0.4113  0.1688  0.1599
  431loPI    C2 6882   6.492   2.795   9.969  0.0940  0.1966  0.0545
  431loPI    C3 6883   6.482   3.152   9.788 -0.0540  0.1225 -0.0865
  431loPI   PO4 6884   6.606   2.668   9.499  0.0410  0.1941  0.0260
  431loPI   GL1 6885   6.715   2.775   9.104  0.0000  0.1210  0.0326
  431loPI   GL2 6886   7.042   2.885   9.172  0.1851 -0.2324 -0.0470
  431loPI   C1A 6887   6.809   2.801   8.649  0.0527 -0.4286  0.0338
  431loPI   C2A 6888   7.005   2.788   8.208 -0.1318  0.1443  0.1680
  431loPI   C3A 6889   7.256   2.974   7.968  0.3228 -0.0125  0.1518
  431loPI   C4A 6890   7.435   3.256   7.639 -0.0292 -0.0792  0.0454
  431loPI   C5A 6891   7.632   3.676   7.568  0.1056 -0.1509  0.1188
  431loPI   C6A 6892   7.721   4.168   7.595 -0.5314  0.1906  0.2318
  431loPI   C1B 6893   7.275   3.071   8.837 -0.1575  0.2350 -0.1004
  431loPI   C2B 6894   7.415   3.045   8.433  0.1464  0.1485  0.0597
  431loPI   C3B 6895   7.730   3.197   8.018 -0.1034  0.2929  0.1294
  431loPI   C4B 6896   7.968   3.340   7.637  0.1116  0.2350  0.3261
  432loPI    C1 6897   6.566  17.339   9.648 -0.1730  0.0760 -0.0879
  432loPI    C2 6898   6.671  17.560   9.965  0.2057 -0.1063 -0.0812
  432loPI    C3 6899   6.523  17.737   9.638 -0.1369  0.0884  0.1721
  432loPI   PO4 6900   6.757  17.065   9.490  0.1289  0.0396 -0.1044
  432loPI   GL1 6901   6.955  17.019   9.112 -0.1506 -0.0014 -0.1618
  432loPI   GL2 6902   7.183  17.194   8.974 -0.0540 -0.1505  0.0758
  432loPI   C1A 6903   6.863  16.836   8.804 -0.4334  0.0230  0.1673
  432loPI   C2A 6904   6.862  16.701   8.375  0.0379 -0.0873  0.1887
  432loPI   C3A 6905   6.734  16.544   7.956 -0.1471  0.0862 -0.0391
  432loPI   C4A 6906   6.779  16.611   7.573  0.1262  0.2644  0.1415
  432loPI   C5A 6907   6.583  16.505   7.165 -0.1054 -0.0318 -0.2535
  432loPI   C6A 6908   6.493  16.306   6.769  0.2225 -0.1022 -0.0469
  432loPI   C1B 6909   7.431  17.654   8.832  0.1343 -0.0915  0.1756
  432loPI   C2B 6910   7.272  17.922   8.592  0.0213  0.4245 -0.3577
  432loPI   C3B 6911   7.292  18.022   8.141  0.1017  0.1666 -0.2300
  432loPI   C4B 6912   7.578  18.078   7.758 -0.0622 -0.0634 -0.0741
  433loPI    C1 6913   7.517  13.697   9.817  0.1150  0.1343  0.1138
  433loPI    C2 6914   7.430  13.812  10.190 -0.1127  0.1362  0.0617
  433loPI    C3 6915   7.535  14.084   9.917 -0.3122  0.1812  0.0283
  433loPI   PO4 6916   7.404  13.543   9.779  0.3756  0.1522 -0.0787
  433loPI   GL1 6917   7.192  13.249   9.566  0.1921 -0.0907  0.0293
  433loPI   GL2 6918   6.966  13.394   9.478  0.1014 -0.5273  0.0973
  433loPI   C1A 6919   7.269  12.889   9.289  0.0150 -0.1105  0.2993
  433loPI   C2A 6920   7.682  12.639   9.161  0.0814  0.2679  0.0027
  433loPI   C3A 6921   7.592  12.279   8.931  0.0504 -0.2653  0.0135
  433loPI   C4A 6922   7.559  12.349   8.500  0.0325  0.2336 -0.1567
  433loPI   C5A 6923   7.354  12.410   8.090 -0.0979  0.0355  0.3107
  433loPI   C6A 6924   7.340  12.774   7.731  0.2000  0.1008 -0.1489
  433loPI   C1B 6925   6.985  13.478   8.987 -0.0983  0.1840  0.0440
  433loPI   C2B 6926   7.101  13.653   8.559  0.1140 -0.0395  0.3837
  433loPI   C3B 6927   7.157  13.784   8.123  0.2797  0.0140 -0.1869
  433loPI   C4B 6928   6.982  13.445   7.841  0.0347 -0.1748 -0.0967
  434loPI    C1 6929   5.303  10.854   9.502 -0.1872 -0.1460  0.2887
  434loPI    C2 6930   4.925  10.984   9.525 -0.1119  0.2548 -0.4390
  434loPI    C3 6931   5.223  11.210   9.666 -0.1131  0.0732 -0.1366
  434loPI   PO4 6932   5.252  10.569   9.613  0.0511  0.0440  0.0144
  434loPI   GL1 6933   5.000  10.239   9.370  0.2901 -0.0069  0.1683
  434loPI   GL2 6934   4.791  10.502   9.380  0.0506 -0.1240  0.1235
  434loPI   C1A 6935   4.974  10.202   8.931 -0.0102 -0.2745  0.0618
  434loPI   C2A 6936   5.024  10.303   8.518 -0.4095 -0.0878 -0.0662
  434loPI   C3A 6937   5.135  10.326   8.065  0.1161  0.1452 -0.0798
  434loPI   C4A 6938   5.586  10.061   7.906 -0.0457 -0.1764 -0.0548
  434loPI   C5A 6939   5.990   9.925   8.091  0.3252  0.2276  0.1925
  434loPI   C6A 6940   6.379   9.690   7.899  0.0753 -0.0045  0.1546
  434loPI   C1B 6941   4.974  10.793   9.036 -0.0970  0.1482  0.0986
  434loPI   C2B 6942   4.914  10.819   8.648 -0.0264 -0.1894 -0.1092
  434loPI   C3B 6943   4.950  10.756   8.124  0.4188 -0.3403 -0.3626
  434loPI   C4B 6944   4.971  10.616   7.631  0.0110  0.0778  0.0920
  435loPI    C1 6945   7.072  14.842   9.725 -0.0207 -0.0939 -0.1033
  435loPI    C2 6946   6.981  15.015  10.074  0.0993  0.2146 -0.2208
  435loPI    C3 6947   7.297  14.772  10.048 -0.1474 -0.1367 -0.0236
  435loPI   PO4 6948   6.969  14.699   9.582  0.1409 -0.0544  0.1947
  435loPI   GL1 6949   6.751  14.524   9.321 -0.0314 -0.1892 -0.0740
  435loPI   GL2 6950   6.959  14.461   9.120  0.1366 -0.0539 -0.0960
  435loPI   C1A 6951   6.541  14.259   8.921  0.1503  0.1038  0.1380
  435loPI   C2A 6952   6.304  14.114   8.632 -0.0936 -0.0731  0.0483
  435loPI   C3A 6953   6.324  14.094   8.207  0.2257 -0.0825  0.2144
  435loPI   C4A 6954   6.258  13.929   7.760  0.1326 -0.2939 -0.0952
  435loPI   C5A 6955   6.159  14.213   7.402  0.1270 -0.0379  0.1635
  435loPI   C6A 6956   6.166  14.619   7.391  0.1340  0.0616 -0.0694
  435loPI   C1B 6957   6.940  14.565   8.727 -0.1525 -0.2904 -0.0993
  435loPI   C2B 6958   7.131  14.682   8.343 -0.1315  0.4799 -0.0207
  435loPI   C3B 6959   6.932  14.647   7.865 -0.0777 -0.0811  0.2324
  435loPI   C4B 6960   6.510  14.542   7.875  0.1368  0.2293  0.5437
  436loPI    C1 6961  14.743   1.603   9.733  0.1050  0.0825 -0.2052
  436loPI    C2 6962  14.461   1.445   9.969  0.1760  0.0774 -0.1233
  436loPI    C3 6963  14.760   1.657  10.129  0.0422  0.3580 -0.2381
  436loPI   PO4 6964  14.643   1.764   9.501  0.0192 -0.1132  0.2432
  436loPI   GL1 6965  14.636   1.971   9.095 -0.0439 -0.0709 -0.1949
  436loPI   GL2 6966  14.867   2.060   8.983 -0.1574 -0.2131 -0.2789
  436loPI   C1A 6967  14.495   1.811   8.750  0.0547  0.0662  0.0325
  436loPI   C2A 6968  14.404   1.895   8.314  0.2114  0.4172 -0.0274
  436loPI   C3A 6969  14.444   1.948   7.848 -0.0192  0.0872 -0.4877
  436loPI   C4A 6970  14.547   2.027   7.456 -0.1367 -0.3157 -0.2771
  436loPI   C5A 6971  14.569   1.993   7.026 -0.0575  0.3929 -0.1439
  436loPI   C6A 6972  14.228   1.861   6.798  0.0535 -0.0652  0.1460
  436loPI   C1B 6973  14.712   2.207   8.549 -0.1543 -0.3490  0.1145
  436loPI   C2B 6974  14.785   2.282   8.125 -0.3147 -0.2712 -0.1960
  436loPI   C3B 6975  14.898   2.310   7.701  0.1926  0.2577  0.1508
  436loPI   C4B 6976  14.950   2.271   7.316  0.0959 -0.2672 -0.1805
  437loPI    C1 6977   1.983  18.790   9.407  0.1275  0.1649  0.0931
  437loPI    C2 6978   2.027  18.760   9.804  0.2167 -0.1498  0.0624
  437loPI    C3 6979   1.667  18.706   9.638  0.1540  0.1090  0.1091
  437loPI   PO4 6980   2.168  19.008   9.318 -0.1850 -0.3769 -0.1337
  437loPI   GL1 6981   2.540  18.873   9.312 -0.1581 -0.0071  0.0912
  437loPI   GL2 6982   2.445  18.617   9.141 -0.1140 -0.0551 -0.5138
  437loPI   C1A 6983   2.533  18.928   8.766  0.0517  0.2170  0.1038
  437loPI   C2A 6984   2.576  19.133   8.323 -0.0553 -0.0946 -0.4209
  437loPI   C3A 6985   2.588  18.912   7.857  0.3884  0.1477  0.1651
  437loPI   C4A 6986   2.770  18.847   7.480 -0.1560 -0.2285 -0.0812
  437loPI   C5A 6987   3.015  18.635   7.251  0.3437 -0.1060 -0.0154
  437loPI   C6A 6988   2.953  18.756   6.863 -0.0705  0.0925 -0.0723
  437loPI   C1B 6989   2.521  18.326   8.796  0.2911  0.4014  0.1833
  437loPI   C2B 6990   2.517  18.059   8.428  0.1912 -0.0928 -0.2522
  437loPI   C3B 6991   2.404  17.985   7.995 -0.1436 -0.1273 -0.0820
  437loPI   C4B 6992   2.254  18.160   7.698 -0.3465 -0.2198 -0.0262
  438loPI    C1 6993   9.311   1.456  10.305  0.0159  0.2964  0.1866
  438loPI    C2 6994   8.962   1.393  10.119  0.1153  0.0079  0.0935
  438loPI    C3 6995   8.990   1.341  10.515  0.1011 -0.1702  0.0721
  438loPI   PO4 6996   9.434   1.633  10.160  0.2011  0.0840  0.1280
  438loPI   GL1 6997   9.636   1.632   9.853  0.1739  0.1990  0.1192
  438loPI   GL2 6998   9.952   1.557   9.625  0.0606  0.1784 -0.1525
  438loPI   C1A 6999   9.436   1.589   9.393  0.2960  0.1853 -0.0732
  438loPI   C2A 7000   9.459   1.460   8.987  0.3264 -0.3588 -0.0213
  438loPI   C3A 7001   9.689   1.377   8.724  0.1743  0.2705  0.2180
  438loPI   C4A 7002   9.743   1.677   8.338  0.1401 -0.0989 -0.1062
  438loPI   C5A 7003  10.093   1.545   7.957  0.2789  0.2297  0.4308
  438loPI   C6A 7004  10.259   1.292   7.585  0.0773 -0.3024 -0.8219
  438loPI   C1B 7005   9.912   1.615   9.181  0.0144  0.2106  0.3144
  438loPI   C2B 7006  10.107   1.573   8.869 -0.2497  0.0385  0.0574
  438loPI   C3B 7007  10.188   1.750   8.450  0.1407  0.1212 -0.1835
  438loPI   C4B 7008  10.157   2.047   8.056 -0.2475  0.0249  0.0564
  439loPI    C1 7009   1.234  10.472  10.280  0.1429 -0.0270 -0.1820
  439loPI    C2 7010   1.288  10.722  10.588 -0.0832 -0.1597 -0.0313
  439loPI    C3 7011   1.468  10.364  10.586 -0.0044 -0.1201 -0.1008
  439loPI   PO4 7012   1.383  10.508   9.985  0.0344  0.0861 -0.2151
  439loPI   GL1 7013   1.422  10.559   9.506 -0.0538 -0.0994  0.2495
  439loPI   GL2 7014   1.222  10.637   9.447  0.0736 -0.0524 -0.0134
  439loPI   C1A 7015   1.642  10.603   9.105 -0.0999 -0.0989  0.0602
  439loPI   C2A 7016   1.608  10.765   8.571  0.2003  0.1154  0.2710
  439loPI   C3A 7017   1.682  10.679   8.159 -0.1395 -0.2580  0.0524
  439loPI   C4A 7018   1.846  10.520   7.799  0.1402  0.0107 -0.2729
  439loPI   C5A 7019   2.016  10.376   7.492 -0.2356 -0.1133  0.0592
  439loPI   C6A 7020   2.371  10.084   7.471  0.0600 -0.2107 -0.1978
  439loPI   C1B 7021   1.213  10.693   8.961  0.3328 -0.1645  0.1125
  439loPI   C2B 7022   1.063  10.687   8.558 -0.2485  0.1866  0.1251
  439loPI   C3B 7023   1.157  10.630   8.091  0.0746 -0.1728 -0.1788
  439loPI   C4B 7024   0.917  10.602   7.703  0.2571 -0.1376  0.0173
  440loPI    C1 7025  11.265   6.398  10.303  0.0263 -0.1309 -0.1365
  440loPI    C2 7026  11.560   6.568  10.512  0.0500 -0.0929 -0.2006
  440loPI    C3 7027  11.186   6.704  10.547  0.0495 -0.1043 -0.1623
  440loPI   PO4 7028  11.492   6.311  10.066  0.3424  0.0519  0.2219
  440loPI   GL1 7029  11.355   6.260   9.649 -0.1821 -0.3385  0.2923
  440loPI   GL2 7030  11.177   6.490   9.578 -0.0582  0.0370 -0.1987
  440loPI   C1A 7031  11.107   6.099   9.282  0.0829 -0.0765 -0.0668
  440loPI   C2A 7032  10.930   6.041   8.884 -0.2180 -0.1186 -0.0260
  440loPI   C3A 7033  10.684   5.782   8.743  0.1210 -0.5804  0.1101
  440loPI   C4A 7034  10.691   5.785   8.284  0.2021  0.5129  0.0506
  440loPI   C5A 7035  10.613   5.764   7.872 -0.1357  0.0199 -0.1069
  440loPI   C6A 7036  10.558   5.950   7.443 -0.1257  0.3592 -0.0602
  440loPI   C1B 7037  11.237   6.605   9.161  0.0296 -0.0233 -0.2359
  440loPI   C2B 7038  11.239   6.587   8.761 -0.2586  0.0789 -0.1415
  440loPI   C3B 7039  11.223   6.585   8.313  0.1303  0.2197  0.1174
  440loPI   C4B 7040  11.102   6.836   7.920  0.0125 -0.0358 -0.1234
  441loPI    C1 7041   8.266   9.309   9.640  0.3297  0.4619 -0.2529
  441loPI    C2 7042   7.995   9.411   9.916  0.2224  0.0654 -0.2068
  441loPI    C3 7043   8.380   9.372  10.018  0.1522 -0.2860 -0.0583
  441loPI   PO4 7044   8.124   9.152   9.494 -0.0084 -0.0754  0.0003
  441loPI   GL1 7045   8.027   9.070   9.045 -0.1519 -0.1710 -0.1188
  441loPI   GL2 7046   7.709   9.043   9.132  0.0829  0.0932  0.0934
  441loPI   C1A 7047   8.003   9.361   8.725 -0.0619 -0.1960 -0.0139
  441loPI   C2A 7048   8.141   9.444   8.333  0.1678  0.0724  0.1100
  441loPI   C3A 7049   8.063   9.501   7.899 -0.0463  0.0364  0.0759
  441loPI   C4A 7050   8.219   9.651   7.481  0.4824 -0.0340  0.0621
  441loPI   C5A 7051   8.378   9.526   7.148  0.0870  0.0966  0.1412
  441loPI   C6A 7052   8.659   9.215   6.810 -0.0692 -0.1110 -0.0679
  441loPI   C1B 7053   7.642   9.017   8.626  0.3924 -0.1771 -0.1787
  441loPI   C2B 7054   7.776   9.088   8.240 -0.0212 -0.3045 -0.0052
  441loPI   C3B 7055   7.767   8.954   7.810 -0.0350 -0.0675 -0.2521
  441loPI   C4B 7056   7.613   8.855   7.450  0.1920 -0.1203  0.2961
  442loPI    C1 7057   2.275   6.953   9.679  0.1085 -0.0425  0.0134
  442loPI    C2 7058   2.083   6.603   9.706 -0.0349  0.0527  0.2638
  442loPI    C3 7059   2.264   6.757  10.028  0.2766  0.0707  0.0838
  442loPI   PO4 7060   2.411   6.935   9.484 -0.0684  0.0777  0.2425
  442loPI   GL1 7061   2.329   7.132   9.054 -0.0418  0.5053 -0.4101
  442loPI   GL2 7062   2.287   6.756   8.925 -0.0746  0.2168 -0.4619
  442loPI   C1A 7063   2.200   7.298   8.558 -0.3784  0.4124 -0.0983
  442loPI   C2A 7064   1.973   7.298   8.111  0.1732  0.0367 -0.1962
  442loPI   C3A 7065   1.917   7.517   7.728 -0.0789  0.0365  0.2028
  442loPI   C4A 7066   2.062   7.692   7.294  0.1221  0.1708  0.0705
  442loPI   C5A 7067   2.503   7.808   7.110 -0.1605  0.0366  0.1771
  442loPI   C6A 7068   2.957   7.694   6.995 -0.3618 -0.2052 -0.0221
  442loPI   C1B 7069   2.208   6.795   8.501  0.0925  0.2469  0.0728
  442loPI   C2B 7070   2.238   6.883   8.123 -0.0975  0.0424  0.0086
  442loPI   C3B 7071   2.314   7.091   7.708  0.0691  0.0237  0.3324
  442loPI   C4B 7072   1.952   7.145   7.307 -0.0620 -0.0517 -0.0317
  443loPI    C1 7073   4.710  18.418   9.359  0.0023  0.2326 -0.1122
  443loPI    C2 7074   5.107  18.422   9.412  0.0048 -0.0536 -0.0935
  443loPI    C3 7075   4.862  18.458   9.726  0.0164 -0.0731 -0.0823
  443loPI   PO4 7076   4.702  18.438   9.151  0.2637  0.0684 -0.0009
  443loPI   GL1 7077   4.955  18.280   8.861  0.0630 -0.1388 -0.1747
  443loPI   GL2 7078   4.724  18.383   8.697 -0.0034 -0.1179  0.1604
  443loPI   C1A 7079   5.252  18.095   8.533  0.1080  0.2547  0.2051
  443loPI   C2A 7080   5.214  17.981   8.011 -0.1235  0.0148 -0.1798
  443loPI   C3A 7081   5.253  17.913   7.601  0.0634  0.2324  0.0575
  443loPI   C4A 7082   5.471  18.034   7.143 -0.0806  0.1722 -0.1866
  443loPI   C5A 7083   5.736  18.289   6.849 -0.2495 -0.2070 -0.3824
  443loPI   C6A 7084   6.073  18.315   6.509 -0.0130  0.3375 -0.0816
  443loPI   C1B 7085   4.792  18.076   8.358  0.0724 -0.1631  0.0048
  443loPI   C2B 7086   4.791  17.715   8.192  0.1898  0.1251 -0.0657
  443loPI   C3B 7087   4.803  17.600   7.750  0.1253  0.0101  0.3496
  443loPI   C4B 7088   4.949  17.496   7.316 -0.2241  0.3206 -0.1641
  444loPI    C1 7089   7.609  19.161   9.986 -0.1488  0.1766 -0.3956
  444loPI    C2 7090   7.784  19.467  10.176 -0.1868 -0.0880  0.0818
  444loPI    C3 7091   7.488  19.535   9.916 -0.2120  0.2781  0.2019
  444loPI   PO4 7092   7.925  18.920   9.877 -0.0469  0.1195  0.1424
  444loPI   GL1 7093   8.326  18.858   9.768 -0.4615 -0.1419  0.0816
  444loPI   GL2 7094   8.621  18.973   9.672 -0.2341 -0.0646  0.2148
  444loPI   C1A 7095   8.274  18.824   9.348 -0.0998 -0.1363  0.2705
  444loPI   C2A 7096   8.546  18.667   8.997 -0.3488  0.1619 -0.1058
  444loPI   C3A 7097   8.668  18.563   8.525 -0.0441 -0.1847 -0.3104
  444loPI   C4A 7098   8.802  18.280   8.191  0.2767 -0.4183  0.2955
  444loPI   C5A 7099   8.807  18.163   7.743  0.2159  0.4749 -0.2698
  444loPI   C6A 7100   8.875  18.153   7.341  0.2558  0.1510  0.0424
  444loPI   C1B 7101   8.728  19.174   9.254  0.1430 -0.2077 -0.1276
  444loPI   C2B 7102   8.782  19.216   8.800  0.1603 -0.1880 -0.0524
  444loPI   C3B 7103   8.903  19.084   8.440  0.1256  0.0953 -0.2563
  444loPI   C4B 7104   8.889  19.141   8.000 -0.2764  0.0545  0.1723
  445loPI    C1 7105   4.864   1.653   9.953  0.0985 -0.0530 -0.2075
  445loPI    C2 7106   4.803   1.490  10.313 -0.3789  0.3918 -0.0754
  445loPI    C3 7107   4.836   1.255   9.991  0.3175 -0.0286  0.2793
  445loPI   PO4 7108   4.753   1.830   9.913 -0.0509 -0.1572 -0.0814
  445loPI   GL1 7109   4.638   1.918   9.433  0.1179  0.3273 -0.2055
  445loPI   GL2 7110   4.843   1.811   9.357 -0.5030  0.5494  0.1750
  445loPI   C1A 7111   4.700   2.206   9.068  0.1367  0.2334  0.1226
  445loPI   C2A 7112   4.620   2.408   8.724  0.1655  0.0250  0.0656
  445loPI   C3A 7113   4.553   2.417   8.266 -0.1697 -0.2013 -0.0420
  445loPI   C4A 7114   4.647   2.316   7.848 -0.0269  0.0250  0.1837
  445loPI   C5A 7115   4.728   2.095   7.360 -0.1237  0.2859 -0.1645
  445loPI   C6A 7116   4.466   1.771   7.237  0.3213 -0.1458  0.1604
  445loPI   C1B 7117   5.101   1.771   8.891 -0.2505  0.1427  0.0403
  445loPI   C2B 7118   5.203   1.730   8.546  0.0167 -0.0861 -0.1120
  445loPI   C3B 7119   5.264   1.737   8.102  0.1008  0.0111 -0.2532
  445loPI   C4B 7120   5.538   1.661   7.801 -0.1138 -0.0787 -0.0143
  446loPI    C1 7121  13.935   6.025   9.543 -0.3011  0.0951  0.1107
  446loPI    C2 7122  13.857   6.084   9.930 -0.0273  0.3774  0.1265
  446loPI    C3 7123  14.234   6.104   9.797 -0.0717 -0.1064 -0.0904
  446loPI   PO4 7124  13.765   6.062   9.447 -0.2792  0.1466  0.0844
  446loPI   GL1 7125  13.642   5.878   9.104 -0.1312  0.0366  0.1093
  446loPI   GL2 7126  13.951   5.789   9.043 -0.0400 -0.1075 -0.0963
  446loPI   C1A 7127  13.631   5.966   8.714  0.4200  0.1100  0.0533
  446loPI   C2A 7128  13.370   5.691   8.463  0.1867 -0.0101 -0.0753
  446loPI   C3A 7129  13.289   5.528   8.144 -0.1969  0.1514 -0.2087
  446loPI   C4A 7130  13.030   5.320   7.956 -0.5192  0.0143  0.3666
  446loPI   C5A 7131  13.034   5.057   7.594  0.0328 -0.1310  0.2786
  446loPI   C6A 7132  13.322   4.675   7.218  0.1412 -0.0292 -0.0316
  446loPI   C1B 7133  13.937   5.623   8.615 -0.1590  0.0417 -0.2928
  446loPI   C2B 7134  13.788   5.594   8.252  0.0482  0.2488  0.3187
  446loPI   C3B 7135  13.637   5.782   7.806  0.0359  0.2135  0.2250
  446loPI   C4B 7136  13.437   6.103   7.539  0.2680 -0.1954  0.4695
  447loPI    C1 7137  15.126   7.350   9.473  0.2150 -0.1740  0.0530
  447loPI    C2 7138  15.091   7.028   9.708 -0.5870 -0.0928  0.0725
  447loPI    C3 7139  15.097   7.394   9.870 -0.1976 -0.0692  0.0154
  447loPI   PO4 7140  15.280   7.353   9.302 -0.1514 -0.0619  0.2676
  447loPI   GL1 7141  15.045   7.168   8.924 -0.1085 -0.0108 -0.0302
  447loPI   GL2 7142  14.884   6.975   8.795 -0.2257 -0.0218  0.0134
  447loPI   C1A 7143  15.327   7.088   8.549  0.0396  0.1415  0.1412
  447loPI   C2A 7144  15.443   7.212   8.096  0.2037 -0.0601 -0.1394
  447loPI   C3A 7145  15.688   7.245   7.667  0.0109 -0.0318  0.0448
  447loPI   C4A 7146  15.499   7.548   7.341  0.3545 -0.2320  0.2824
  447loPI   C5A 7147  15.604   7.975   7.363 -0.4324  0.0508 -0.2685
  447loPI   C6A 7148  15.863   8.320   7.406 -0.0356  0.0800  0.2035
  447loPI   C1B 7149  14.876   7.015   8.347 -0.1689  0.0751 -0.1815
  447loPI   C2B 7150  14.822   6.798   7.904 -0.1459 -0.2845 -0.7002
  447loPI   C3B 7151  14.699   6.535   7.569  0.3127  0.1546 -0.0742
  447loPI   C4B 7152  14.683   6.217   7.193 -0.1753  0.0733  0.2596
  448loPI    C1 7153  14.475   7.578   9.637  0.0166 -0.0143  0.2253
  448loPI    C2 7154  14.722   7.735   9.910 -0.0415  0.1985  0.1572
  448loPI    C3 7155  14.451   7.966   9.728  0.0111  0.0640 -0.0979
  448loPI   PO4 7156  14.633   7.405   9.526  0.1336  0.4709 -0.0295
  448loPI   GL1 7157  14.671   7.436   9.103 -0.2124  0.3707 -0.0476
  448loPI   GL2 7158  14.509   7.271   8.873  0.1435 -0.1195 -0.1439
  448loPI   C1A 7159  14.699   7.644   8.628  0.1020 -0.0709  0.1624
  448loPI   C2A 7160  14.405   8.002   8.335  0.3850 -0.2021 -0.2070
  448loPI   C3A 7161  14.372   8.202   7.933 -0.0531  0.2405  0.0840
  448loPI   C4A 7162  14.731   8.413   7.771 -0.1993 -0.1093  0.1009
  448loPI   C5A 7163  14.596   8.663   7.397 -0.0250 -0.0294 -0.0511
  448loPI   C6A 7164  14.698   8.632   6.961 -0.3685  0.2736  0.0714
  448loPI   C1B 7165  14.393   7.281   8.435  0.1766 -0.0339 -0.1428
  448loPI   C2B 7166  14.397   7.069   8.112 -0.4665 -0.3026  0.2436
  448loPI   C3B 7167  14.435   7.076   7.661 -0.1354 -0.1298  0.0027
  448loPI   C4B 7168  14.285   7.200   7.245 -0.0027 -0.0675 -0.0033
  449loPI    C1 7169  16.534  18.230   9.065  0.0030  0.1763  0.1283
  449loPI    C2 7170  16.187  18.369   9.209 -0.0042 -0.0161  0.3009
  449loPI    C3 7171  16.493  18.297   9.457  0.1398  0.0931  0.1575
  449loPI   PO4 7172  16.506  18.414   8.798  0.1710 -0.0888 -0.0864
  449loPI   GL1 7173  16.107  18.634   8.792 -0.1831  0.2387 -0.1162
  449loPI   GL2 7174  15.892  18.439   8.812  0.0597  0.1382 -0.1647
  449loPI   C1A 7175  16.076  18.763   8.447 -0.0658 -0.1047  0.2850
  449loPI   C2A 7176  16.028  18.875   8.018  0.1645 -0.0274 -0.3043
  449loPI   C3A 7177  16.048  18.975   7.685  0.0071 -0.2014 -0.3063
  449loPI   C4A 7178  16.257  19.158   7.336 -0.2059 -0.0762 -0.0831
  449loPI   C5A 7179  16.676  19.077   7.259  0.2081 -0.0587  0.2358
  449loPI   C6A 7180  17.101  19.301   7.196  0.1265  0.1196  0.1506
  449loPI   C1B 7181  16.047  18.280   8.389 -0.1241  0.0893 -0.2995
  449loPI   C2B 7182  16.034  18.340   7.920 -0.1179 -0.0618 -0.0541
  449loPI   C3B 7183  15.802  18.533   7.657  0.1765  0.1046  0.0311
  449loPI   C4B 7184  15.777  18.817   7.265 -0.3140 -0.0344 -0.2688
  450loPI    C1 7185   4.018  17.874   9.544 -0.3587  0.1915  0.2711
  450loPI    C2 7186   3.778  17.776   9.239  0.1740 -0.1155 -0.0667
  450loPI    C3 7187   3.906  17.493   9.491  0.2904  0.0200  0.0282
  450loPI   PO4 7188   4.307  18.009   9.464  0.2724 -0.1029  0.0266
  450loPI   GL1 7189   4.463  18.071   9.030 -0.0006  0.1186  0.1503
  450loPI   GL2 7190   4.660  17.867   9.076 -0.0668  0.1030 -0.1654
  450loPI   C1A 7191   4.260  18.179   8.688  0.1955 -0.0248 -0.1063
  450loPI   C2A 7192   4.306  18.096   8.114 -0.3247 -0.0427 -0.0765
  450loPI   C3A 7193   4.146  17.966   7.626 -0.0944  0.0622  0.0340
  450loPI   C4A 7194   4.359  18.261   7.276  0.0834 -0.3915 -0.1981
  450loPI   C5A 7195   4.263  18.564   7.028  0.0987 -0.0880  0.0201
  450loPI   C6A 7196   4.061  18.613   6.632 -0.2129 -0.1077  0.0439
  450loPI   C1B 7197   4.653  17.696   8.700  0.0805 -0.2598  0.2416
  450loPI   C2B 7198   4.669  17.317   8.587  0.1557  0.0486  0.0296
  450loPI   C3B 7199   4.671  17.225   8.119  0.0315 -0.1912  0.0122
  450loPI   C4B 7200   4.869  17.052   7.762 -0.2992 -0.0564  0.1101
  451loPI    C1 7201   8.480   3.501  10.436 -0.4980  0.0264  0.2149
  451loPI    C2 7202   8.589   3.118  10.397 -0.0691  0.1423  0.2277
  451loPI    C3 7203   8.318   3.222  10.673  0.1433 -0.0941  0.5324
  451loPI   PO4 7204   8.593   3.637  10.128 -0.1244 -0.0003 -0.0549
  451loPI   GL1 7205   8.903   3.647   9.724 -0.0195  0.1567  0.0202
  451loPI   GL2 7206   8.868   3.369   9.793 -0.0975 -0.1277  0.3189
  451loPI   C1A 7207   9.044   3.376   9.287 -0.1690  0.5441  0.1825
  451loPI   C2A 7208   9.111   3.329   8.874 -0.6015 -0.0675  0.2526
  451loPI   C3A 7209   9.242   3.480   8.439 -0.1259 -0.4635  0.1824
  451loPI   C4A 7210   9.288   3.529   8.008 -0.1231 -0.0035 -0.0606
  451loPI   C5A 7211   9.467   3.272   7.671 -0.2294  0.0669 -0.1751
  451loPI   C6A 7212   9.873   2.992   7.775  0.1674 -0.0592  0.3979
  451loPI   C1B 7213   8.492   3.416   9.484  0.1638 -0.1589 -0.1885
  451loPI   C2B 7214   8.570   3.458   9.053 -0.1907 -0.0256  0.0693
  451loPI   C3B 7215   8.650   3.434   8.603  0.3998  0.0851  0.1411
  451loPI   C4B 7216   8.743   3.238   8.267  0.1357 -0.1039 -0.1551
  452loPI    C1 7217   1.405   0.267   9.322  0.2818  0.0362 -0.0264
  452loPI    C2 7218   1.670   0.566   9.306  0.3451 -0.0174  0.0176
  452loPI    C3 7219   1.570   0.406   9.659  0.1342  0.1093  0.0169
  452loPI   PO4 7220   1.430   0.089   9.046  0.1781 -0.1278 -0.1358
  452loPI   GL1 7221   1.368   0.062   8.657 -0.0609  0.1082 -0.0614
  452loPI   GL2 7222   1.302  -0.271   8.703  0.2884 -0.0281 -0.3637
  452loPI   C1A 7223   1.518  -0.000   8.299  0.0205 -0.0363  0.1703
  452loPI   C2A 7224   1.580  -0.074   7.842  0.1303  0.0121 -0.0449
  452loPI   C3A 7225   1.745  -0.064   7.441  0.0084  0.0461 -0.0643
  452loPI   C4A 7226   1.618   0.182   7.077  0.0121 -0.0556  0.1707
  452loPI   C5A 7227   1.993   0.113   6.949 -0.0843  0.1521  0.1258
  452loPI   C6A 7228   2.297   0.482   6.954  0.2446 -0.0137 -0.0690
  452loPI   C1B 7229   1.342  -0.468   8.342 -0.2785 -0.0348 -0.2633
  452loPI   C2B 7230   1.255  -0.379   8.051 -0.0231  0.0571  0.3670
  452loPI   C3B 7231   1.202  -0.378   7.639  0.2132 -0.0774  0.1223
  452loPI   C4B 7232   0.982  -0.575   7.408 -0.3997 -0.0361 -0.0186
  453loPI    C1 7233   0.241   0.930   9.431 -0.0867  0.1957  0.1754
  453loPI    C2 7234   0.307   0.591   9.632 -0.0136  0.1010 -0.0065
  453loPI    C3 7235   0.244   0.932   9.831 -0.1583 -0.0317  0.1783
  453loPI   PO4 7236   0.026   0.956   9.298  0.1462  0.1816  0.3398
  453loPI   GL1 7237  -0.014   1.038   8.866  0.0240 -0.0640  0.0392
  453loPI   GL2 7238  -0.279   0.750   8.942 -0.0157 -0.2294 -0.3272
  453loPI   C1A 7239   0.016   0.975   8.408 -0.2474 -0.2601  0.1479
  453loPI   C2A 7240  -0.071   0.797   8.015 -0.0729  0.2986 -0.3352
  453loPI   C3A 7241  -0.268   0.752   7.665 -0.1368  0.2016  0.1321
  453loPI   C4A 7242  -0.464   0.694   7.232 -0.0965  0.1404  0.1205
  453loPI   C5A 7243  -0.627   0.667   6.841  0.0213  0.2735 -0.3895
  453loPI   C6A 7244  -0.580   0.537   6.383  0.0069 -0.2284 -0.2064
  453loPI   C1B 7245  -0.398   0.637   8.479 -0.0606 -0.2157 -0.3343
  453loPI   C2B 7246  -0.460   0.490   8.066  0.2406 -0.0811  0.4751
  453loPI   C3B 7247  -0.302   0.245   7.687  0.1697 -0.1659 -0.0330
  453loPI   C4B 7248  -0.023   0.281   7.303  0.1023 -0.2891 -0.0157
  454loPI    C1 7249   0.935   5.323   9.346 -0.1860  0.0297  0.1348
  454loPI    C2 7250   0.818   5.645   9.140 -0.0634  0.0671  0.1230
  454loPI    C3 7251   0.882   5.671   9.534 -0.1759  0.0262  0.1442
  454loPI   PO4 7252   0.752   5.078   9.263 -0.1086  0.0499  0.4081
  454loPI   GL1 7253   0.675   5.098   8.892 -0.0332  0.1408  0.1238
  454loPI   GL2 7254   0.458   5.372   8.919 -0.0267 -0.1727 -0.2756
  454loPI   C1A 7255   0.888   5.436   8.644 -0.2801  0.0732 -0.1046
  454loPI   C2A 7256   0.949   5.842   8.374 -0.2703 -0.2209  0.0411
  454loPI   C3A 7257   0.953   6.059   8.028 -0.1937 -0.3137 -0.1442
  454loPI   C4A 7258   0.782   6.278   7.731  0.1341 -0.1534 -0.0586
  454loPI   C5A 7259   0.619   6.498   7.350 -0.0320 -0.2138  0.2631
  454loPI   C6A 7260   0.134   6.640   7.277  0.1458  0.2131 -0.0010
  454loPI   C1B 7261   0.405   5.339   8.555 -0.0839  0.1891 -0.3465
  454loPI   C2B 7262   0.510   5.242   8.067 -0.0001 -0.0264 -0.2964
  454loPI   C3B 7263   0.695   4.877   7.815  0.1511  0.1591 -0.4143
  454loPI   C4B 7264   0.701   4.936   7.439  0.0119 -0.1672  0.3975
  455loPI    C1 7265   1.795   2.995   9.780 -0.0211  0.2002 -0.1901
  455loPI    C2 7266   1.832   2.619   9.910 -0.0665  0.1756 -0.2475
  455loPI    C3 7267   2.030   2.914  10.093 -0.3656  0.1854  0.0698
  455loPI   PO4 7268   1.851   2.933   9.527 -0.0804  0.2017 -0.2186
  455loPI   GL1 7269   1.593   3.060   9.151  0.1802 -0.1304 -0.2688
  455loPI   GL2 7270   1.413   3.379   9.093  0.1383 -0.0586  0.0787
  455loPI   C1A 7271   1.621   2.848   8.770  0.1172 -0.0173 -0.0703
  455loPI   C2A 7272   1.566   2.714   8.299 -0.1556 -0.7292  0.0588
  455loPI   C3A 7273   1.506   2.530   7.823  0.0823 -0.1854 -0.0465
  455loPI   C4A 7274   1.290   2.662   7.478  0.0908  0.1807  0.0463
  455loPI   C5A 7275   1.328   2.540   7.051  0.0719  0.1497  0.1863
  455loPI   C6A 7276   1.079   2.391   6.614 -0.0048 -0.2661  0.0402
  455loPI   C1B 7277   1.503   3.331   8.733  0.2640  0.2993  0.0280
  455loPI   C2B 7278   1.545   3.280   8.278 -0.2970  0.1886  0.3208
  455loPI   C3B 7279   1.570   3.072   7.879  0.3759 -0.0517 -0.0919
  455loPI   C4B 7280   1.596   3.017   7.448 -0.1223  0.0508  0.0956
  456loPI    C1 7281   4.909  14.693  10.492 -0.1099 -0.1292  0.0450
  456loPI    C2 7282   4.578  14.520  10.636 -0.1659  0.1283  0.2342
  456loPI    C3 7283   4.855  14.662  10.887 -0.0000  0.0851  0.0785
  456loPI   PO4 7284   4.770  14.789  10.199 -0.2565  0.0753 -0.2496
  456loPI   GL1 7285   4.688  14.767   9.770  0.2672  0.0111  0.0219
  456loPI   GL2 7286   4.380  14.763   9.671  0.2889  0.1290  0.1014
  456loPI   C1A 7287   5.006  14.568   9.450 -0.1611 -0.2596  0.2335
  456loPI   C2A 7288   5.447  14.630   9.085  0.0421  0.1224 -0.1732
  456loPI   C3A 7289   5.529  14.616   8.667  0.0256  0.2762  0.0280
  456loPI   C4A 7290   5.515  14.630   8.240  0.0520 -0.1578 -0.0271
  456loPI   C5A 7291   5.330  14.407   7.904  0.0687 -0.1065 -0.0045
  456loPI   C6A 7292   5.561  14.159   7.545  0.0132  0.0272 -0.0656
  456loPI   C1B 7293   4.585  14.655   9.257 -0.1420  0.0379 -0.1778
  456loPI   C2B 7294   4.658  14.400   8.876 -0.0428 -0.4345  0.0079
  456loPI   C3B 7295   4.278  14.370   8.478  0.1487  0.0094  0.2037
  456loPI   C4B 7296   4.349  14.293   8.084 -0.0906 -0.2321  0.0020
  457loPI    C1 7297  10.369   1.616  10.591 -0.1366  0.1534 -0.0313
  457loPI    C2 7298  10.728   1.551  10.754 -0.1524  0.1169 -0.0106
  457loPI    C3 7299  10.435   1.284  10.804 -0.1669  0.1213 -0.0719
  457loPI   PO4 7300  10.485   1.657  10.313 -0.2850  0.1174 -0.2527
  457loPI   GL1 7301  10.386   1.425   9.904  0.0016 -0.0491 -0.1614
  457loPI   GL2 7302  10.365   1.280   9.658 -0.2875 -0.1146  0.0251
  457loPI   C1A 7303  10.876   1.397   9.649 -0.1699  0.0037  0.2978
  457loPI   C2A 7304  10.823   1.452   9.222 -0.3587 -0.2205 -0.0078
  457loPI   C3A 7305  11.045   1.306   8.846 -0.2107  0.1784 -0.4582
  457loPI   C4A 7306  11.266   1.143   8.559  0.0533  0.4798  0.1339
  457loPI   C5A 7307  11.138   0.660   8.257 -0.5600 -0.0317  0.0730
  457loPI   C6A 7308  11.409   0.373   8.095 -0.1412 -0.1790  0.1762
  457loPI   C1B 7309  10.318   1.414   9.292 -0.1237  0.0780  0.2632
  457loPI   C2B 7310  10.442   1.263   8.950 -0.2146  0.2528 -0.1840
  457loPI   C3B 7311  10.429   1.263   8.523  0.1549  0.1597 -0.1716
  457loPI   C4B 7312  10.400   1.165   8.100 -0.0883  0.0519 -0.1272
  458loPI    C1 7313  18.886   8.088   9.706  0.2434  0.1677 -0.2466
  458loPI    C2 7314  19.215   7.870   9.772  0.0702 -0.0570 -0.1106
  458loPI    C3 7315  18.934   7.900  10.056 -0.0659  0.0653 -0.2560
  458loPI   PO4 7316  18.791   7.964   9.404  0.0492  0.1709 -0.3105
  458loPI   GL1 7317  18.367   7.932   9.076  0.2541  0.1408 -0.0325
  458loPI   GL2 7318  18.241   8.173   9.226  0.1194 -0.2111  0.2398
  458loPI   C1A 7319  18.165   7.760   8.727  0.1228  0.2382 -0.1478
  458loPI   C2A 7320  18.254   7.650   8.265  0.1197 -0.2612 -0.2143
  458loPI   C3A 7321  18.128   7.462   7.838  0.1811  0.1168 -0.2825
  458loPI   C4A 7322  17.758   7.456   7.506 -0.0879 -0.1064 -0.0764
  458loPI   C5A 7323  17.593   7.578   7.136  0.2568  0.2562 -0.1660
  458loPI   C6A 7324  17.487   7.255   6.926  0.1494  0.1238  0.0468
  458loPI   C1B 7325  18.389   8.306   8.722  0.4635 -0.0379  0.2175
  458loPI   C2B 7326  18.327   8.174   8.358  0.2274  0.1791 -0.2024
  458loPI   C3B 7327  18.306   8.108   7.946  0.0372 -0.1578 -0.3697
  458loPI   C4B 7328  18.590   8.239   7.697  0.1097  0.5058 -0.1399
  459loPI    C1 7329   2.918  19.241   9.647 -0.0370 -0.1506  0.1503
  459loPI    C2 7330   2.734  19.582   9.746  0.0184  0.0142 -0.2895
  459loPI    C3 7331   3.089  19.492   9.906 -0.0592  0.0954 -0.0689
  459loPI   PO4 7332   2.904  19.210   9.408  0.2359 -0.1862 -0.0850
  459loPI   GL1 7333   2.900  19.237   8.848  0.1451 -0.0531 -0.0667
  459loPI   GL2 7334   3.249  19.373   8.922 -0.0295 -0.1684  0.0401
  459loPI   C1A 7335   2.771  19.601   8.461  0.1331 -0.1180  0.0036
  459loPI   C2A 7336   2.489  19.571   8.150 -0.0203  0.0194 -0.2774
  459loPI   C3A 7337   2.581  19.413   7.698 -0.0508  0.0368 -0.1266
  459loPI   C4A 7338   2.655  19.251   7.296  0.2513 -0.3753  0.0838
  459loPI   C5A 7339   2.474  18.989   7.004  0.0436  0.5818  0.0777
  459loPI   C6A 7340   2.259  18.653   6.783  0.0313 -0.0383 -0.1691
  459loPI   C1B 7341   3.145  19.159   8.472  0.0358  0.0785  0.0031
  459loPI   C2B 7342   3.008  19.209   8.025  0.1479  0.0393  0.1907
  459loPI   C3B 7343   3.094  19.277   7.656  0.2705 -0.0504  0.0754
  459loPI   C4B 7344   3.158  19.117   7.218 -0.0934 -0.0721 -0.1756
  460loPI    C1 7345  13.313  13.812   9.843 -0.1423  0.0079  0.3126
  460loPI    C2 7346  13.476  13.448   9.870 -0.2968 -0.0804  0.0768
  460loPI    C3 7347  13.655  13.760  10.044  0.0513 -0.1991 -0.0593
  460loPI   PO4 7348  13.288  13.840   9.662  0.0530  0.1807  0.2583
  460loPI   GL1 7349  13.293  13.534   9.363 -0.1421 -0.0047  0.1543
  460loPI   GL2 7350  13.135  13.334   9.222  0.1422 -0.0250  0.1838
  460loPI   C1A 7351  13.622  13.515   9.096 -0.1154  0.2797  0.1260
  460loPI   C2A 7352  13.747  13.405   8.650  0.4179  0.1062 -0.3129
  460loPI   C3A 7353  13.677  13.539   8.188  0.0051  0.1766 -0.0186
  460loPI   C4A 7354  13.418  13.621   7.912 -0.0587 -0.0455  0.1880
  460loPI   C5A 7355  13.069  13.865   7.694 -0.0287  0.0763  0.0514
  460loPI   C6A 7356  13.116  14.199   7.406 -0.1271 -0.1160  0.1516
  460loPI   C1B 7357  13.280  13.328   8.796  0.2127  0.0027  0.1482
  460loPI   C2B 7358  13.234  13.316   8.385  0.0475  0.0631  0.0059
  460loPI   C3B 7359  13.381  13.113   8.028  0.0882  0.4165  0.2155
  460loPI   C4B 7360  13.398  13.145   7.605  0.0219 -0.2449  0.2342
  461loPI    C1 7361   3.356  14.132  10.034  0.2158  0.0252  0.0796
  461loPI    C2 7362   3.645  14.089  10.307  0.1962  0.3267  0.1509
  461loPI    C3 7363   3.310  14.287  10.399 -0.0770 -0.0980  0.0978
  461loPI   PO4 7364   3.462  14.092   9.792  0.3944 -0.3815  0.0126
  461loPI   GL1 7365   3.255  14.168   9.429  0.1351 -0.2606  0.3667
  461loPI   GL2 7366   3.272  14.482   9.293  0.1755  0.1523 -0.5227
  461loPI   C1A 7367   3.079  13.871   9.050  0.1619 -0.0655  0.0361
  461loPI   C2A 7368   3.172  13.669   8.676 -0.4270 -0.0639 -0.3505
  461loPI   C3A 7369   3.285  13.565   8.264 -0.0071 -0.1259 -0.1341
  461loPI   C4A 7370   3.381  13.513   7.921 -0.0505 -0.2054  0.1021
  461loPI   C5A 7371   3.102  13.631   7.546 -0.0934  0.3239  0.2611
  461loPI   C6A 7372   3.196  13.557   7.095  0.3346 -0.0916  0.1027
  461loPI   C1B 7373   3.203  14.312   8.774  0.2972 -0.6258  0.0813
  461loPI   C2B 7374   3.219  14.021   8.350 -0.2970  0.0192 -0.0141
  461loPI   C3B 7375   3.431  13.983   7.956 -0.0421 -0.0000 -0.1215
  461loPI   C4B 7376   3.565  13.975   7.496 -0.3596 -0.3616  0.0415
  462loPI    C1 7377  11.299   6.935  10.079 -0.0950 -0.1397 -0.0401
  462loPI    C2 7378  11.247   7.313  10.198 -0.0876 -0.1123 -0.1231
  462loPI    C3 7379  11.498   7.074  10.397 -0.0657 -0.0632 -0.0917
  462loPI   PO4 7380  11.139   6.894   9.860  0.0300  0.1822  0.2353
  462loPI   GL1 7381  11.112   7.077   9.489  0.1220  0.2548  0.0797
  462loPI   GL2 7382  10.798   6.837   9.446 -0.1441 -0.1891 -0.1147
  462loPI   C1A 7383  11.015   7.203   9.120  0.1477 -0.2188 -0.4066
  462loPI   C2A 7384  11.015   7.178   8.633 -0.0814 -0.0745  0.0861
  462loPI   C3A 7385  10.779   7.078   8.332 -0.1039 -0.1823  0.0310
  462loPI   C4A 7386  10.679   7.242   7.986 -0.1342  0.1890 -0.0081
  462loPI   C5A 7387  10.578   7.336   7.698  0.2172 -0.2158 -0.1023
  462loPI   C6A 7388  10.450   7.626   7.421 -0.0976 -0.1298 -0.0695
  462loPI   C1B 7389  10.470   6.822   9.306  0.1743 -0.0559 -0.0482
  462loPI   C2B 7390  10.259   6.571   8.991  0.0118  0.1550 -0.1020
  462loPI   C3B 7391   9.940   6.250   8.776 -0.1685  0.0325  0.0099
  462loPI   C4B 7392   9.941   6.147   8.393  0.1639  0.2230 -0.1821
  463loPI    C1 7393   2.149  15.385   9.695 -0.1098 -0.1765  0.0399
  463loPI    C2 7394   1.928  15.211   9.412 -0.1876  0.2500 -0.1698
  463loPI    C3 7395   1.776  15.511   9.628 -0.0674  0.0459  0.2084
  463loPI   PO4 7396   2.310  15.514   9.534  0.1524  0.1574  0.1171
  463loPI   GL1 7397   2.463  15.267   9.211 -0.1395 -0.0824  0.1927
  463loPI   GL2 7398   2.809  15.389   9.268  0.0893  0.1913 -0.0602
  463loPI   C1A 7399   2.796  15.164   8.801 -0.0560 -0.0135  0.0276
  463loPI   C2A 7400   2.815  15.311   8.321 -0.0437 -0.1278 -0.0677
  463loPI   C3A 7401   2.660  15.346   7.957 -0.0394 -0.0323 -0.2624
  463loPI   C4A 7402   2.586  15.337   7.445 -0.0737  0.1854 -0.1302
  463loPI   C5A 7403   2.670  14.963   7.122  0.3131 -0.1281 -0.0419
  463loPI   C6A 7404   2.888  14.699   6.832  0.0436 -0.0484 -0.2953
  463loPI   C1B 7405   2.681  15.700   9.016 -0.0513  0.3194 -0.1982
  463loPI   C2B 7406   2.657  15.665   8.576 -0.2693  0.2110 -0.0098
  463loPI   C3B 7407   2.729  15.806   8.141 -0.0309  0.1383  0.3355
  463loPI   C4B 7408   2.809  15.755   7.694  0.0464 -0.0883  0.2441
  464loPI    C1 7409  14.340   9.966   9.960 -0.0152 -0.2923  0.1192
  464loPI    C2 7410  14.386  10.340  10.094 -0.1264 -0.0953 -0.3677
  464loPI    C3 7411  14.281  10.048  10.347 -0.3115  0.2536 -0.0312
  464loPI   PO4 7412  14.591   9.930   9.785 -0.0583  0.2167 -0.0795
  464loPI   GL1 7413  14.648   9.971   9.315 -0.2653  0.1472 -0.0611
  464loPI   GL2 7414  14.945  10.065   9.447 -0.2258  0.2806 -0.2461
  464loPI   C1A 7415  14.622  10.069   8.869 -0.0274  0.2826 -0.1771
  464loPI   C2A 7416  14.729  10.103   8.432 -0.1999 -0.0016 -0.0469
  464loPI   C3A 7417  14.496  10.169   8.097 -0.2809 -0.0098  0.2515
  464loPI   C4A 7418  14.305  10.063   7.687 -0.0439  0.0114  0.2247
  464loPI   C5A 7419  13.975   9.713   7.481  0.1198 -0.0385  0.0749
  464loPI   C6A 7420  13.785   9.355   7.810 -0.2189  0.2185 -0.1159
  464loPI   C1B 7421  15.166  10.127   9.070  0.1954  0.0312 -0.0358
  464loPI   C2B 7422  15.150  10.404   8.748 -0.0291 -0.2290 -0.0706
  464loPI   C3B 7423  15.089  10.476   8.384  0.3975 -0.1349  0.0220
  464loPI   C4B 7424  15.234  10.607   7.990  0.1758 -0.4257  0.0246
  465loPI    C1 7425  17.459   7.112  10.007 -0.4048 -0.0335 -0.0279
  465loPI    C2 7426  17.333   7.491  10.004 -0.0444  0.0906  0.0006
  465loPI    C3 7427  17.344   7.287  10.348  0.1741  0.1987  0.0591
  465loPI   PO4 7428  17.391   7.012   9.830  0.0553  0.0970  0.0587
  465loPI   GL1 7429  17.656   7.100   9.428  0.0297 -0.0938  0.3785
  465loPI   GL2 7430  17.743   7.290   9.217  0.2543  0.0324 -0.0468
  465loPI   C1A 7431  17.244   7.053   9.017  0.1967  0.2031 -0.0012
  465loPI   C2A 7432  17.084   6.894   8.628  0.2456 -0.2095  0.1976
  465loPI   C3A 7433  17.184   6.702   8.251 -0.1588 -0.2866 -0.0079
  465loPI   C4A 7434  17.197   6.661   7.746  0.0068  0.0677  0.0605
  465loPI   C5A 7435  17.035   6.612   7.305 -0.0538 -0.2153  0.1639
  465loPI   C6A 7436  16.847   6.381   6.925 -0.1425  0.3507  0.2967
  465loPI   C1B 7437  17.603   7.591   8.910  0.0895 -0.0725 -0.1370
  465loPI   C2B 7438  17.758   7.574   8.529  0.1989 -0.1382 -0.0699
  465loPI   C3B 7439  17.910   7.260   8.313 -0.1200  0.0172  0.1218
  465loPI   C4B 7440  18.105   6.968   8.117 -0.1787 -0.0885  0.0897
  466loPI    C1 7441   6.170   0.539  10.027  0.0867  0.0178 -0.1235
  466loPI    C2 7442   5.975   0.545  10.376  0.0687 -0.1318 -0.1301
  466loPI    C3 7443   5.989   0.208  10.161  0.0406 -0.0281 -0.2963
  466loPI   PO4 7444   6.078   0.803   9.855 -0.1505 -0.1345  0.1382
  466loPI   GL1 7445   6.368   0.952   9.519  0.0247 -0.3042  0.0089
  466loPI   GL2 7446   6.069   0.908   9.360 -0.2071  0.0351 -0.0305
  466loPI   C1A 7447   6.563   1.221   9.100 -0.5097 -0.1275 -0.0642
  466loPI   C2A 7448   6.620   1.184   8.620  0.0299  0.0442  0.1191
  466loPI   C3A 7449   6.836   1.247   8.189  0.1141  0.0646 -0.2615
  466loPI   C4A 7450   7.043   1.052   7.882 -0.1306 -0.0605  0.1571
  466loPI   C5A 7451   7.201   1.016   7.447 -0.1199 -0.6813 -0.1054
  466loPI   C6A 7452   7.232   1.125   7.012 -0.2320  0.3007  0.0181
  466loPI   C1B 7453   6.200   0.808   8.933  0.1754 -0.0541 -0.1037
  466loPI   C2B 7454   6.472   0.759   8.559 -0.0998 -0.0688  0.3365
  466loPI   C3B 7455   6.465   0.546   8.133  0.0462 -0.0557  0.0377
  466loPI   C4B 7456   6.694   0.716   7.718  0.2346 -0.2162 -0.0474
  467loPI    C1 7457   3.575  15.735   9.857  0.4478  0.0971 -0.2249
  467loPI    C2 7458   3.543  16.113   9.985  0.1381  0.0591 -0.1819
  467loPI    C3 7459   3.408  15.813  10.212  0.1459 -0.0571 -0.3291
  467loPI   PO4 7460   3.626  15.773   9.633  0.0628  0.0896  0.2804
  467loPI   GL1 7461   3.848  15.873   9.272 -0.0805  0.1131  0.1416
  467loPI   GL2 7462   4.031  16.103   9.268 -0.2465 -0.1080 -0.0456
  467loPI   C1A 7463   3.691  15.618   8.889 -0.0722 -0.4123  0.1807
  467loPI   C2A 7464   3.710  15.564   8.489  0.1472 -0.2385 -0.0434
  467loPI   C3A 7465   3.772  15.497   7.994  0.2300  0.0177  0.0833
  467loPI   C4A 7466   3.755  15.385   7.671 -0.3117  0.1219 -0.1614
  467loPI   C5A 7467   3.598  15.587   7.296  0.0787  0.3489 -0.1711
  467loPI   C6A 7468   3.351  15.906   7.195 -0.3240 -0.1495 -0.1907
  467loPI   C1B 7469   3.987  16.170   8.797 -0.1029  0.1830  0.0862
  467loPI   C2B 7470   4.007  15.983   8.423  0.0888  0.0138  0.3528
  467loPI   C3B 7471   4.249  15.724   8.131 -0.1448  0.0243 -0.3342
  467loPI   C4B 7472   4.183  15.715   7.717  0.0805  0.0554  0.0347
  468loPI    C1 7473   7.000  10.590   9.821 -0.2144  0.0975  0.0575
  468loPI    C2 7474   7.058  10.854  10.116 -0.1541  0.0470  0.0911
  468loPI    C3 7475   7.166  10.473  10.165  0.0572  0.0831 -0.0760
  468loPI   PO4 7476   7.036  10.692   9.567 -0.0538 -0.0045 -0.1726
  468loPI   GL1 7477   6.967  10.643   9.051  0.0589 -0.0500  0.1972
  468loPI   GL2 7478   7.256  10.518   8.968 -0.0573  0.3549  0.2598
  468loPI   C1A 7479   6.741  10.778   8.626  0.0102 -0.0990  0.0213
  468loPI   C2A 7480   6.583  10.919   8.216  0.0804 -0.3304 -0.0591
  468loPI   C3A 7481   6.567  11.125   7.821  0.0120  0.3333 -0.0861
  468loPI   C4A 7482   6.248  11.402   7.672 -0.2479 -0.0913  0.2127
  468loPI   C5A 7483   6.226  11.863   7.519 -0.1564 -0.3423 -0.0036
  468loPI   C6A 7484   6.322  12.351   7.496  0.0077  0.2078 -0.1571
  468loPI   C1B 7485   7.169  10.585   8.521 -0.2703  0.0298 -0.0387
  468loPI   C2B 7486   7.121  10.789   8.144  0.1551  0.1227  0.0401
  468loPI   C3B 7487   7.107  10.812   7.751  0.1339  0.1767  0.3652
  468loPI   C4B 7488   6.991  11.036   7.361 -0.0995  0.0783  0.0977
  469loPI    C1 7489   8.423  11.909  10.172 -0.0903  0.1192  0.1042
  469loPI    C2 7490   8.730  11.971  10.420 -0.0419  0.3003  0.0012
  469loPI    C3 7491   8.374  11.861  10.566  0.1056 -0.0506  0.1095
  469loPI   PO4 7492   8.316  12.098   9.989  0.0859  0.0594  0.1575
  469loPI   GL1 7493   8.181  12.111   9.585 -0.0237 -0.1550 -0.0965
  469loPI   GL2 7494   8.019  12.226   9.353  0.0847  0.1275  0.0567
  469loPI   C1A 7495   8.337  11.897   9.244  0.4070 -0.0994 -0.1388
  469loPI   C2A 7496   8.369  11.560   8.791  0.0216  0.4289  0.0713
  469loPI   C3A 7497   8.184  11.614   8.343 -0.0709  0.1806  0.1083
  469loPI   C4A 7498   8.425  11.771   8.044  0.1363  0.1085 -0.0283
  469loPI   C5A 7499   8.411  11.674   7.566  0.0133  0.0601  0.1079
  469loPI   C6A 7500   8.410  11.377   7.328 -0.1592  0.0096  0.2356
  469loPI   C1B 7501   8.164  12.647   9.221  0.4274  0.1518  0.1060
  469loPI   C2B 7502   8.068  12.639   8.775  0.1884  0.2926 -0.0522
  469loPI   C3B 7503   7.833  12.827   8.424  0.0061 -0.0981  0.1336
  469loPI   C4B 7504   7.613  12.924   8.101 -0.4952  0.2266  0.1739
  470loPI    C1 7505   0.640  12.790   9.618 -0.1966 -0.0043  0.1482
  470loPI    C2 7506   0.435  13.010   9.354 -0.0271  0.2524  0.2271
  470loPI    C3 7507   0.251  12.720   9.558 -0.2033  0.1778 -0.0327
  470loPI   PO4 7508   0.846  12.973   9.556  0.0723  0.0571 -0.1542
  470loPI   GL1 7509   1.132  13.169   9.305  0.2517  0.2654  0.2104
  470loPI   GL2 7510   1.329  13.008   9.216  0.2202 -0.1131 -0.1652
  470loPI   C1A 7511   1.101  13.278   8.925 -0.5755 -0.2640  0.2179
  470loPI   C2A 7512   0.948  13.320   8.533  0.1949  0.1645 -0.5623
  470loPI   C3A 7513   0.847  13.443   8.070 -0.2638  0.2028 -0.1686
  470loPI   C4A 7514   1.011  13.528   7.684  0.1200  0.3051 -0.2431
  470loPI   C5A 7515   1.019  13.553   7.242 -0.0519  0.4270 -0.0778
  470loPI   C6A 7516   0.966  13.440   6.947  0.1950  0.0361 -0.1982
  470loPI   C1B 7517   1.222  12.717   8.860  0.1103 -0.1942  0.0815
  470loPI   C2B 7518   1.166  12.785   8.386  0.2280 -0.1178  0.1223
  470loPI   C3B 7519   0.873  12.932   8.164  0.1759  0.1288 -0.0122
  470loPI   C4B 7520   0.771  12.928   7.786 -0.3709  0.1975 -0.0442
  471loPI    C1 7521   5.778  11.056   9.829 -0.1354  0.2440 -0.0066
  471loPI    C2 7522   5.476  11.103  10.087  0.0207  0.1159  0.2037
  471loPI    C3 7523   5.558  10.741   9.939 -0.0906  0.1949 -0.0574
  471loPI   PO4 7524   5.719  11.159   9.616  0.0529 -0.0643  0.1112
  471loPI   GL1 7525   5.645  11.135   9.299  0.1630  0.0957  0.4439
  471loPI   GL2 7526   5.751  11.460   9.146  0.2586 -0.0986 -0.0556
  471loPI   C1A 7527   5.350  11.192   9.063 -0.1313  0.1472  0.2971
  471loPI   C2A 7528   5.222  11.256   8.666  0.0207  0.1989 -0.0615
  471loPI   C3A 7529   5.149  11.207   8.203  0.0821 -0.0600  0.0132
  471loPI   C4A 7530   5.144  11.097   7.839  0.0384  0.0939  0.1297
  471loPI   C5A 7531   5.170  11.081   7.436 -0.1089  0.1351 -0.0275
  471loPI   C6A 7532   5.510  10.727   7.224  0.0165 -0.0673  0.1043
  471loPI   C1B 7533   5.783  11.706   8.730 -0.2573  0.0447 -0.2705
  471loPI   C2B 7534   5.636  11.993   8.441  0.3629 -0.2611 -0.1842
  471loPI   C3B 7535   5.409  12.258   8.131  0.2534  0.0976 -0.0055
  471loPI   C4B 7536   5.328  12.465   7.696 -0.1570 -0.0444 -0.0245
  472loPI    C1 7537  14.322  18.559   9.935  0.0673 -0.3561 -0.2867
  472loPI    C2 7538  13.937  18.456   9.898 -0.0317 -0.1280  0.0583
  472loPI    C3 7539  14.195  18.207  10.075 -0.1438 -0.0461  0.3436
  472loPI   PO4 7540  14.316  18.732   9.789  0.2684 -0.2525  0.0769
  472loPI   GL1 7541  14.179  18.810   9.450 -0.1434 -0.1183  0.0745
  472loPI   GL2 7542  14.437  18.657   9.298  0.0533 -0.2459  0.4515
  472loPI   C1A 7543  13.730  18.846   9.213  0.2539  0.0844 -0.1483
  472loPI   C2A 7544  13.704  18.758   8.783 -0.3339 -0.1343  0.0429
  472loPI   C3A 7545  13.482  18.636   8.380 -0.2030 -0.1988  0.0656
  472loPI   C4A 7546  13.567  18.762   7.962  0.0178  0.1821 -0.1165
  472loPI   C5A 7547  13.563  18.659   7.483 -0.0484  0.3170 -0.0128
  472loPI   C6A 7548  13.738  18.339   7.184  0.1659 -0.0692 -0.1722
  472loPI   C1B 7549  14.337  18.677   8.944 -0.2212  0.2935 -0.2891
  472loPI   C2B 7550  14.391  18.592   8.576 -0.2076  0.0981  0.1956
  472loPI   C3B 7551  14.340  18.683   8.070 -0.0587 -0.1609 -0.1345
  472loPI   C4B 7552  14.047  18.858   7.807  0.0399 -0.0739 -0.4470
  473loPI    C1 7553   6.316   1.705  10.007  0.0549  0.0930  0.0817
  473loPI    C2 7554   6.061   1.658  10.312 -0.0577  0.0100 -0.0241
  473loPI    C3 7555   6.269   1.345  10.175 -0.0637  0.0311 -0.0817
  473loPI   PO4 7556   6.209   1.769   9.809  0.2704 -0.1984 -0.1606
  473loPI   GL1 7557   6.247   1.898   9.383  0.0503 -0.3438  0.2680
  473loPI   GL2 7558   6.484   2.058   9.133  0.3593  0.2862 -0.1456
  473loPI   C1A 7559   6.211   1.576   9.102  0.0497  0.1129 -0.3008
  473loPI   C2A 7560   6.202   1.578   8.646  0.1096  0.3627  0.0247
  473loPI   C3A 7561   6.448   1.540   8.205 -0.2836 -0.0637 -0.1281
  473loPI   C4A 7562   6.519   1.540   7.733 -0.1000 -0.2890 -0.0415
  473loPI   C5A 7563   6.524   1.653   7.303 -0.0995 -0.0052  0.3745
  473loPI   C6A 7564   6.434   1.542   6.845 -0.0650  0.0117 -0.0453
  473loPI   C1B 7565   6.482   2.379   8.797  0.0263 -0.1598 -0.1371
  473loPI   C2B 7566   6.561   2.553   8.336 -0.2868  0.0073  0.3268
  473loPI   C3B 7567   6.562   2.509   7.860 -0.0626 -0.2530 -0.0477
  473loPI   C4B 7568   6.428   2.463   7.399  0.1959 -0.0497  0.3321
  474loPI    C1 7569   9.606   9.914   9.709  0.0292 -0.3246 -0.0691
  474loPI    C2 7570   9.451   9.912  10.078 -0.0360 -0.3791 -0.0968
  474loPI    C3 7571   9.798  10.098  10.008 -0.2786  0.0816 -0.1125
  474loPI   PO4 7572   9.557   9.616   9.577 -0.3541  0.3072  0.3929
  474loPI   GL1 7573   9.295   9.561   9.251  0.0477 -0.3172 -0.0114
  474loPI   GL2 7574   9.083   9.834   9.121 -0.1459 -0.3400 -0.0598
  474loPI   C1A 7575   9.573   9.509   8.920  0.0722 -0.0725  0.1564
  474loPI   C2A 7576   9.739   9.491   8.488  0.0118 -0.4626 -0.0411
  474loPI   C3A 7577   9.694   9.618   8.067 -0.0037 -0.0715  0.2660
  474loPI   C4A 7578   9.452   9.558   7.617 -0.1670  0.2897 -0.2660
  474loPI   C5A 7579   9.135   9.823   7.312 -0.0178 -0.1617  0.2488
  474loPI   C6A 7580   8.666   9.938   7.153 -0.0315  0.2283 -0.1797
  474loPI   C1B 7581   8.906   9.732   8.712  0.1205 -0.0515 -0.0179
  474loPI   C2B 7582   8.960   9.724   8.327 -0.2927 -0.3575  0.0674
  474loPI   C3B 7583   9.006   9.573   7.959  0.0163  0.1055 -0.1210
  474loPI   C4B 7584   8.772   9.558   7.503  0.0248  0.3056 -0.0517
  475loPI    C1 7585   0.404  18.008   9.743  0.0414 -0.0259  0.0296
  475loPI    C2 7586   0.073  17.848   9.900 -0.0096 -0.0355 -0.0868
  475loPI    C3 7587   0.431  17.692   9.987 -0.0359 -0.0302  0.0327
  475loPI   PO4 7588   0.356  18.095   9.431  0.0773  0.0680 -0.0787
  475loPI   GL1 7589   0.481  18.224   8.996 -0.0877  0.1172 -0.0965
  475loPI   GL2 7590   0.106  18.309   8.857  0.3806 -0.1060 -0.0446
  475loPI   C1A 7591   0.786  17.992   8.738 -0.2356 -0.0174 -0.0400
  475loPI   C2A 7592   0.705  17.743   8.379 -0.1822  0.2769 -0.0783
  475loPI   C3A 7593   0.444  17.706   7.979 -0.3357 -0.0478  0.0322
  475loPI   C4A 7594   0.237  17.537   7.707 -0.1441  0.1790 -0.0337
  475loPI   C5A 7595   0.073  17.293   7.293 -0.3338 -0.2057 -0.1300
  475loPI   C6A 7596  -0.132  16.959   7.120 -0.1258 -0.5105 -0.0371
  475loPI   C1B 7597   0.416  18.259   8.507  0.4248 -0.2752  0.2041
  475loPI   C2B 7598   0.736  18.220   8.185  0.0656 -0.1426  0.0857
  475loPI   C3B 7599   0.792  18.012   7.757  0.2107  0.3755 -0.2839
  475loPI   C4B 7600   0.839  17.533   7.500 -0.0190 -0.0008 -0.1566
  476loPI    C1 7601  18.809  14.100   9.412  0.0830 -0.2980 -0.0048
  476loPI    C2 7602  19.080  14.329   9.227  0.1064 -0.4037 -0.1024
  476loPI    C3 7603  19.138  14.217   9.607 -0.0453 -0.0075  0.0423
  476loPI   PO4 7604  18.609  14.165   9.298  0.2063  0.0179 -0.1254
  476loPI   GL1 7605  18.601  14.078   8.892  0.1104 -0.1478 -0.3033
  476loPI   GL2 7606  18.275  13.962   8.901  0.1110 -0.0105  0.1330
  476loPI   C1A 7607  18.754  14.260   8.600  0.0051 -0.0286  0.3971
  476loPI   C2A 7608  18.781  14.223   8.241  0.0299 -0.2231  0.3575
  476loPI   C3A 7609  18.752  14.057   7.817 -0.0758  0.1254  0.1437
  476loPI   C4A 7610  18.675  14.341   7.584  0.0660 -0.4454 -0.0452
  476loPI   C5A 7611  18.700  14.748   7.470  0.0436 -0.0283 -0.1756
  476loPI   C6A 7612  18.511  15.223   7.337  0.0841  0.0068 -0.1180
  476loPI   C1B 7613  18.382  13.984   8.453  0.0838 -0.1822  0.0239
  476loPI   C2B 7614  18.355  13.995   8.095  0.0011 -0.0228 -0.1192
  476loPI   C3B 7615  18.312  13.889   7.762 -0.1948  0.0457 -0.0263
  476loPI   C4B 7616  18.263  13.996   7.434  0.1967  0.2036  0.1114
  477loPI    C1 7617   5.206  17.803   9.899  0.1215  0.0878 -0.3266
  477loPI    C2 7618   5.126  17.458   9.713 -0.0736 -0.1341  0.1541
  477loPI    C3 7619   5.442  17.485   9.956  0.0918  0.1078 -0.0825
  477loPI   PO4 7620   5.097  18.007   9.728  0.1921  0.0561  0.0827
  477loPI   GL1 7621   5.159  17.885   9.243  0.0407 -0.0850 -0.0926
  477loPI   GL2 7622   5.459  18.095   9.300  0.0218 -0.0002  0.2692
  477loPI   C1A 7623   5.094  17.778   8.870  0.0628  0.0342 -0.0471
  477loPI   C2A 7624   5.207  17.584   8.562  0.1147 -0.2474 -0.1134
  477loPI   C3A 7625   5.181  17.380   8.179  0.1972  0.0638 -0.0610
  477loPI   C4A 7626   5.283  17.406   7.764  0.1655  0.0339 -0.1604
  477loPI   C5A 7627   5.451  17.461   7.366  0.1332  0.0471  0.1780
  477loPI   C6A 7628   5.333  17.564   7.012 -0.2648  0.0783  0.1941
  477loPI   C1B 7629   5.466  18.233   8.948  0.6040  0.0057  0.0391
  477loPI   C2B 7630   5.589  18.451   8.682 -0.3040  0.3673  0.0181
  477loPI   C3B 7631   5.594  18.507   8.219 -0.0461 -0.3026 -0.0779
  477loPI   C4B 7632   5.576  18.329   7.898  0.1928  0.0883  0.1566
  478loPI    C1 7633   1.460   8.654  10.047  0.2878 -0.1016 -0.1961
  478loPI    C2 7634   1.419   8.381  10.337  0.1194  0.0854 -0.0414
  478loPI    C3 7635   1.751   8.603  10.317  0.1099  0.1070  0.0390
  478loPI   PO4 7636   1.357   8.524   9.806 -0.0450  0.2783  0.1152
  478loPI   GL1 7637   1.138   8.496   9.485 -0.1633  0.0598  0.3645
  478loPI   GL2 7638   0.915   8.384   9.225 -0.0480 -0.4210 -0.2023
  478loPI   C1A 7639   1.351   8.425   9.020  0.1675  0.4553 -0.1663
  478loPI   C2A 7640   1.279   8.488   8.607  0.0856  0.1258  0.1173
  478loPI   C3A 7641   1.425   8.041   8.377 -0.2041 -0.2441  0.0262
  478loPI   C4A 7642   1.652   7.865   8.028  0.2818 -0.0355  0.0408
  478loPI   C5A 7643   1.797   8.021   7.588 -0.1094  0.1382 -0.1679
  478loPI   C6A 7644   1.522   8.223   7.300 -0.0023  0.2093  0.1277
  478loPI   C1B 7645   0.860   8.291   8.708  0.2217 -0.0704  0.0746
  478loPI   C2B 7646   0.944   8.299   8.233 -0.0802  0.4780  0.0103
  478loPI   C3B 7647   0.772   8.225   7.843  0.0530  0.1521 -0.1368
  478loPI   C4B 7648   0.917   8.288   7.511  0.1694  0.0173  0.1061
  479loPI    C1 7649  17.362  13.168   9.832 -0.2228  0.2050 -0.3262
  479loPI    C2 7650  17.255  13.064  10.204  0.1404 -0.0735 -0.2939
  479loPI    C3 7651  17.358  13.442  10.123  0.1407 -0.0294 -0.0919
  479loPI   PO4 7652  17.240  13.105   9.616  0.0817  0.1899 -0.0886
  479loPI   GL1 7653  16.983  13.132   9.234  0.2276  0.3873  0.0941
  479loPI   GL2 7654  16.683  13.127   9.151  0.3478 -0.3889  0.2271
  479loPI   C1A 7655  16.969  12.992   8.790 -0.1669  0.2592 -0.0377
  479loPI   C2A 7656  16.990  12.754   8.446 -0.0730 -0.3165 -0.2928
  479loPI   C3A 7657  17.132  12.576   8.071 -0.2867  0.0398  0.3915
  479loPI   C4A 7658  17.054  12.181   7.793  0.0610 -0.0863 -0.4129
  479loPI   C5A 7659  16.777  11.813   7.573 -0.0140 -0.1104  0.1921
  479loPI   C6A 7660  16.888  11.764   7.192 -0.0469 -0.0202 -0.1937
  479loPI   C1B 7661  16.588  13.334   8.769 -0.2517 -0.1636 -0.2481
  479loPI   C2B 7662  16.922  13.323   8.433  0.0497  0.0059  0.0938
  479loPI   C3B 7663  17.057  13.119   8.059  0.0386 -0.1277 -0.1479
  479loPI   C4B 7664  16.847  13.029   7.806 -0.3344 -0.1023 -0.2587
  480loPI    C1 7665  16.006   2.274   9.697  0.0754 -0.1429 -0.2129
  480loPI    C2 7666  16.348   2.401   9.861  0.0181 -0.1903 -0.0550
  480loPI    C3 7667  15.998   2.484  10.038 -0.0559 -0.1022 -0.2404
  480loPI   PO4 7668  16.007   2.354   9.454 -0.1137 -0.1542  0.0198
  480loPI   GL1 7669  16.087   2.019   9.135  0.0457 -0.2608  0.2292
  480loPI   GL2 7670  16.437   2.102   9.144  0.2572  0.0491  0.0037
  480loPI   C1A 7671  16.188   1.923   8.691  0.1233  0.2414 -0.1775
  480loPI   C2A 7672  16.316   1.987   8.347  0.1123 -0.2495  0.3401
  480loPI   C3A 7673  16.418   2.093   7.899  0.0579  0.0922 -0.0756
  480loPI   C4A 7674  16.286   2.310   7.525 -0.1040  0.5555 -0.0200
  480loPI   C5A 7675  16.276   2.425   7.153 -0.2763 -0.4309 -0.0232
  480loPI   C6A 7676  16.402   2.484   6.614 -0.2675  0.1731 -0.0272
  480loPI   C1B 7677  16.671   1.816   8.868  0.0616  0.1145  0.0146
  480loPI   C2B 7678  16.772   1.659   8.485 -0.1221  0.1301  0.1187
  480loPI   C3B 7679  16.725   1.662   8.062 -0.1019 -0.1742  0.0698
  480loPI   C4B 7680  16.635   1.499   7.671  0.3518 -0.1331  0.0763
  481loPI    C1 7681  10.169   3.694  10.742  0.0492  0.2771  0.3951
  481loPI    C2 7682   9.984   3.370  10.888  0.0839  0.1247  0.1091
  481loPI    C3 7683  10.187   3.612  11.133  0.2051 -0.1666  0.3014
  481loPI   PO4 7684  10.272   3.576  10.493 -0.0108 -0.1495 -0.0181
  481loPI   GL1 7685  10.186   3.788  10.071 -0.0275  0.1718  0.1527
  481loPI   GL2 7686  10.018   3.901   9.959 -0.0630  0.2324 -0.0460
  481loPI   C1A 7687  10.255   3.306   9.908  0.0356 -0.1933  0.0595
  481loPI   C2A 7688  10.302   3.064   9.432 -0.0773 -0.2585 -0.2299
  481loPI   C3A 7689  10.241   3.119   9.054 -0.1943  0.0793  0.1591
  481loPI   C4A 7690  10.172   3.148   8.592  0.0158 -0.0102 -0.0545
  481loPI   C5A 7691  10.153   2.884   8.264  0.1421  0.2706 -0.0625
  481loPI   C6A 7692  10.127   2.638   8.001  0.2375 -0.1332  0.0667
  481loPI   C1B 7693   9.921   3.660   9.604 -0.2451 -0.0840  0.4610
  481loPI   C2B 7694   9.670   3.703   9.293 -0.0054  0.0728 -0.2267
  481loPI   C3B 7695   9.460   4.023   9.324  0.0135 -0.0014  0.0610
  481loPI   C4B 7696   9.350   4.431   9.172  0.3231  0.2174  0.1043
  482loPI    C1 7697   6.727   4.677  10.163  0.0077  0.1628  0.2729
  482loPI    C2 7698   6.665   4.439  10.479  0.2237 -0.0558  0.1546
  482loPI    C3 7699   6.369   4.670  10.341  0.0596 -0.1324  0.3722
  482loPI   PO4 7700   6.771   4.515   9.982  0.0274  0.0133 -0.3902
  482loPI   GL1 7701   6.914   4.474   9.523 -0.4416 -0.4058 -0.2499
  482loPI   GL2 7702   7.148   4.753   9.447  0.2030  0.0585 -0.1244
  482loPI   C1A 7703   6.934   4.642   9.054 -0.1856  0.3194 -0.3258
  482loPI   C2A 7704   7.127   4.754   8.691  0.0334  0.3010 -0.0865
  482loPI   C3A 7705   7.163   4.494   8.276  0.0419  0.4652  0.0420
  482loPI   C4A 7706   7.319   4.193   7.960 -0.0030  0.1184  0.0895
  482loPI   C5A 7707   7.211   4.102   7.549 -0.1015  0.2478 -0.3311
  482loPI   C6A 7708   7.475   3.979   7.202 -0.0619 -0.0493 -0.0586
  482loPI   C1B 7709   7.391   4.782   9.091  0.1747  0.2392 -0.0699
  482loPI   C2B 7710   7.540   5.054   8.721 -0.1606  0.2575  0.2414
  482loPI   C3B 7711   7.514   5.031   8.324 -0.0829  0.3008 -0.2698
  482loPI   C4B 7712   7.633   5.124   7.874 -0.0678  0.2379  0.2093
  483loPI    C1 7713  14.293   9.617   9.363 -0.0330 -0.0211 -0.2097
  483loPI    C2 7714  14.091   9.622   9.708  0.1203  0.2594 -0.1218
  483loPI    C3 7715  13.908   9.509   9.371  0.0195 -0.1971  0.0788
  483loPI   PO4 7716  14.608   9.445   9.351  0.4173  0.3665 -0.1285
  483loPI   GL1 7717  14.899   9.563   9.058  0.1391  0.3246 -0.1426
  483loPI   GL2 7718  15.104   9.622   9.212 -0.0019  0.2053 -0.1743
  483loPI   C1A 7719  14.725   9.617   8.682 -0.2230  0.0661 -0.4383
  483loPI   C2A 7720  14.669   9.660   8.238  0.0171 -0.3174 -0.1632
  483loPI   C3A 7721  14.573   9.575   7.898  0.1533 -0.1057  0.0343
  483loPI   C4A 7722  14.320   9.418   7.575  0.1162 -0.0950  0.1064
  483loPI   C5A 7723  14.047   9.222   7.347 -0.0101 -0.2593 -0.0233
  483loPI   C6A 7724  13.957   8.681   7.233  0.0315  0.2227  0.0892
  483loPI   C1B 7725  15.246   9.744   8.805 -0.2498 -0.0440 -0.0378
  483loPI   C2B 7726  15.213   9.937   8.441  0.0195 -0.0116  0.2650
  483loPI   C3B 7727  15.042   9.908   8.045  0.3891 -0.1537 -0.0157
  483loPI   C4B 7728  14.903   9.981   7.710 -0.0700 -0.0932  0.2885
  484loPI    C1 7729  12.829   8.224   9.870 -0.0795 -0.0617  0.0603
  484loPI    C2 7730  12.447   8.314   9.795  0.0679  0.2953 -0.2960
  484loPI    C3 7731  12.656   8.533  10.057 -0.0832 -0.1630  0.2268
  484loPI   PO4 7732  12.825   7.988   9.735  0.2296 -0.2890 -0.0104
  484loPI   GL1 7733  12.963   7.936   9.277 -0.1461  0.0962  0.0421
  484loPI   GL2 7734  12.797   7.721   9.321 -0.0188 -0.2975  0.2373
  484loPI   C1A 7735  13.149   7.844   8.790 -0.1190 -0.0032 -0.0798
  484loPI   C2A 7736  13.139   7.898   8.431  0.0790 -0.4097 -0.2107
  484loPI   C3A 7737  13.006   7.876   7.960 -0.5356 -0.4565 -0.3413
  484loPI   C4A 7738  12.872   7.721   7.631 -0.1919 -0.0319 -0.1509
  484loPI   C5A 7739  12.830   7.455   7.337  0.2277 -0.0382 -0.1293
  484loPI   C6A 7740  12.490   7.156   7.212  0.1926  0.0713 -0.1250
  484loPI   C1B 7741  12.622   7.909   8.966  0.1096 -0.1330 -0.2578
  484loPI   C2B 7742  12.629   8.073   8.660 -0.1301  0.1229  0.1549
  484loPI   C3B 7743  12.552   7.898   8.304 -0.0151  0.0705  0.0684
  484loPI   C4B 7744  12.436   7.835   7.910  0.1006 -0.0466  0.1398
  485loPI    C1 7745  12.672  12.987   9.596  0.2230  0.1697  0.2790
  485loPI    C2 7746  12.486  12.670   9.753  0.3021 -0.0650 -0.0899
  485loPI    C3 7747  12.870  12.739   9.839  0.2756 -0.0497  0.0174
  485loPI   PO4 7748  12.642  13.033   9.419 -0.2532  0.1069  0.0691
  485loPI   GL1 7749  12.650  13.132   9.051 -0.0187 -0.0518 -0.3077
  485loPI   GL2 7750  12.370  13.034   8.978  0.1573 -0.2453 -0.0901
  485loPI   C1A 7751  12.925  13.034   8.703  0.0061 -0.0649 -0.1498
  485loPI   C2A 7752  12.902  13.038   8.157 -0.0367  0.3325 -0.6051
  485loPI   C3A 7753  12.855  12.899   7.785 -0.1200 -0.0704 -0.0722
  485loPI   C4A 7754  13.058  12.690   7.540  0.1062 -0.2083 -0.1080
  485loPI   C5A 7755  13.406  12.945   7.153  0.0138 -0.0622  0.0844
  485loPI   C6A 7756  13.638  13.363   7.012  0.0678 -0.3024  0.2749
  485loPI   C1B 7757  12.425  13.044   8.503 -0.0785  0.1481  0.2649
  485loPI   C2B 7758  12.415  12.893   8.038  0.3950  0.1550 -0.2178
  485loPI   C3B 7759  12.375  12.726   7.605 -0.0339 -0.4268 -0.0283
  485loPI   C4B 7760  12.610  12.450   7.334  0.0161 -0.2292 -0.2508
  486loPI    C1 7761  10.138   0.557   9.958 -0.1500 -0.1828  0.0602
  486loPI    C2 7762  10.245   0.665  10.329 -0.4174  0.0122  0.0833
  486loPI    C3 7763  10.391   0.863  10.013 -0.0845 -0.2391  0.0744
  486loPI   PO4 7764  10.047   0.298   9.948 -0.1059  0.0457  0.0635
  486loPI   GL1 7765  10.199  -0.033   9.758  0.4599  0.3208 -0.2909
  486loPI   GL2 7766  10.299   0.289   9.512 -0.0305 -0.3477  0.1710
  486loPI   C1A 7767  10.160  -0.136   9.291 -0.0070  0.3477  0.3555
  486loPI   C2A 7768  10.152  -0.275   8.871 -0.0886 -0.0481  0.1702
  486loPI   C3A 7769  10.231  -0.343   8.463 -0.1299  0.1533 -0.0333
  486loPI   C4A 7770  10.048  -0.351   8.081  0.0322  0.4245  0.3787
  486loPI   C5A 7771   9.826  -0.506   7.760  0.0280 -0.2162 -0.2048
  486loPI   C6A 7772   9.573  -0.805   7.563  0.0447 -0.0315  0.1824
  486loPI   C1B 7773  10.355   0.277   8.981 -0.2149  0.3376 -0.3499
  486loPI   C2B 7774  10.330   0.144   8.514  0.2346 -0.1030 -0.1629
  486loPI   C3B 7775  10.219   0.155   8.082 -0.1236 -0.0266  0.0726
  486loPI   C4B 7776  10.224   0.100   7.634  0.1000 -0.3545 -0.0885
  487loPI    C1 7777   2.145   5.053   9.322  0.4282  0.1923 -0.0917
  487loPI    C2 7778   2.328   4.877   9.631  0.1000 -0.1717 -0.0971
  487loPI    C3 7779   2.025   5.130   9.696  0.1587 -0.0967 -0.1145
  487loPI   PO4 7780   2.154   4.906   9.183 -0.3070 -0.1777  0.1066
  487loPI   GL1 7781   2.049   5.039   8.771  0.2315  0.2712  0.3388
  487loPI   GL2 7782   2.507   5.047   8.774 -0.2310  0.0882 -0.1235
  487loPI   C1A 7783   1.999   4.922   8.271 -0.0600  0.1106 -0.0976
  487loPI   C2A 7784   2.092   4.913   7.876 -0.0183  0.0115 -0.0810
  487loPI   C3A 7785   2.233   5.022   7.518  0.0494 -0.1879 -0.1600
  487loPI   C4A 7786   2.323   5.212   7.132 -0.2481  0.0600 -0.0827
  487loPI   C5A 7787   2.069   5.603   7.171 -0.1752 -0.1779  0.1405
  487loPI   C6A 7788   1.947   5.858   7.313 -0.3632 -0.3689 -0.1223
  487loPI   C1B 7789   2.381   5.210   8.347  0.0046  0.3372 -0.0950
  487loPI   C2B 7790   2.306   5.357   7.980  0.3335  0.1463 -0.1843
  487loPI   C3B 7791   2.354   5.629   7.643 -0.1131  0.0091  0.1339
  487loPI   C4B 7792   2.290   6.121   7.525 -0.1143  0.4787  0.0543
  488loPI    C1 7793   4.914   5.439   9.501  0.1524 -0.0270  0.1170
  488loPI    C2 7794   4.945   5.047   9.429 -0.1167 -0.0072 -0.1227
  488loPI    C3 7795   4.853   5.176   9.796  0.0802 -0.1621 -0.0170
  488loPI   PO4 7796   5.151   5.529   9.382 -0.0018 -0.2644 -0.2291
  488loPI   GL1 7797   5.294   5.377   8.997 -0.1862  0.2378 -0.1974
  488loPI   GL2 7798   4.985   5.288   8.973  0.0398  0.0217 -0.0128
  488loPI   C1A 7799   5.224   5.592   8.519 -0.1402 -0.0034 -0.0757
  488loPI   C2A 7800   5.391   5.791   8.094  0.2209 -0.0663 -0.1194
  488loPI   C3A 7801   5.526   5.616   7.744  0.0063 -0.0667 -0.3747
  488loPI   C4A 7802   5.838   5.548   7.380 -0.0779 -0.0333  0.3563
  488loPI   C5A 7803   6.375   5.430   7.280 -0.1738  0.0949 -0.4687
  488loPI   C6A 7804   6.567   5.484   7.703  0.1822 -0.2046  0.0147
  488loPI   C1B 7805   4.837   5.234   8.628  0.0829 -0.1465  0.0101
  488loPI   C2B 7806   4.864   5.227   8.182 -0.2274  0.0581 -0.0022
  488loPI   C3B 7807   5.135   5.298   7.788 -0.1758  0.3717 -0.0619
  488loPI   C4B 7808   4.940   5.126   7.408 -0.1202 -0.0483  0.1433
  489loPI    C1 7809  14.019   5.202   9.820 -0.2115  0.1080 -0.2804
  489loPI    C2 7810  13.996   5.602   9.817  0.0114  0.1256 -0.0129
  489loPI    C3 7811  13.755   5.389  10.055  0.0112  0.1099 -0.0271
  489loPI   PO4 7812  14.227   5.102   9.477  0.0411 -0.0330  0.1184
  489loPI   GL1 7813  14.093   5.108   9.070 -0.3461 -0.0996  0.3077
  489loPI   GL2 7814  13.770   4.960   9.192  0.1320 -0.1075 -0.2381
  489loPI   C1A 7815  14.107   5.189   8.588 -0.4804 -0.4430  0.1009
  489loPI   C2A 7816  14.085   5.085   8.181  0.0333  0.2848 -0.2896
  489loPI   C3A 7817  14.157   4.805   8.026  0.0304 -0.3770  0.0875
  489loPI   C4A 7818  14.285   4.382   8.248 -0.3898 -0.2922 -0.1902
  489loPI   C5A 7819  14.452   4.387   8.600 -0.2150 -0.0959 -0.1414
  489loPI   C6A 7820  14.493   4.147   8.902  0.1951 -0.2106 -0.1711
  489loPI   C1B 7821  13.451   4.787   8.900  0.0140  0.0580 -0.0999
  489loPI   C2B 7822  13.224   4.512   8.661 -0.0744 -0.2318 -0.0238
  489loPI   C3B 7823  13.340   4.369   8.276 -0.0499 -0.4628 -0.2093
  489loPI   C4B 7824  13.068   4.232   7.995  0.2580  0.0512  0.1755
  490loPI    C1 7825   0.941  15.034   9.640  0.2280 -0.0589  0.2393
  490loPI    C2 7826   0.597  15.083   9.839  0.0355 -0.1285 -0.0688
  490loPI    C3 7827   0.939  15.027  10.040 -0.0979  0.1513  0.2446
  490loPI   PO4 7828   0.902  15.006   9.392  0.3272 -0.2047  0.3062
  490loPI   GL1 7829   1.287  14.850   9.022  0.1609 -0.3077  0.2017
  490loPI   GL2 7830   1.098  15.103   8.900  0.0724  0.3649  0.1213
  490loPI   C1A 7831   1.603  14.739   8.820  0.2663  0.0609  0.1178
  490loPI   C2A 7832   1.836  14.769   8.538  0.0735 -0.2772 -0.1005
  490loPI   C3A 7833   1.890  14.928   8.160 -0.0503 -0.5131  0.0883
  490loPI   C4A 7834   1.720  15.313   7.882 -0.0378  0.4693  0.0553
  490loPI   C5A 7835   1.589  15.232   7.593 -0.2403 -0.0610 -0.0103
  490loPI   C6A 7836   1.286  15.287   7.273  0.1147  0.1623 -0.3098
  490loPI   C1B 7837   0.990  14.951   8.544 -0.1618  0.0446 -0.1753
  490loPI   C2B 7838   1.161  14.593   8.143 -0.3321  0.2467 -0.1751
  490loPI   C3B 7839   1.093  14.421   7.768 -0.2841  0.0145  0.1278
  490loPI   C4B 7840   1.422  14.296   7.501 -0.0283  0.1617 -0.0980
  491loPI    C1 7841   2.202   6.078   9.424 -0.1606 -0.0519 -0.0333
  491loPI    C2 7842   2.359   6.430   9.318  0.0078 -0.1003  0.0515
  491loPI    C3 7843   1.966   6.365   9.276  0.0154  0.0073 -0.2029
  491loPI   PO4 7844   2.319   5.877   9.198  0.0234 -0.3393  0.2041
  491loPI   GL1 7845   2.474   5.898   8.770  0.3072 -0.2061 -0.3425
  491loPI   GL2 7846   2.269   5.707   8.676 -0.1141  0.1647  0.1434
  491loPI   C1A 7847   2.701   6.102   8.386 -0.0727  0.1590  0.0999
  491loPI   C2A 7848   3.081   6.174   8.177  0.4848 -0.0332  0.1221
  491loPI   C3A 7849   3.130   6.001   7.810 -0.1797  0.1825  0.0914
  491loPI   C4A 7850   3.303   5.814   7.377 -0.1311  0.2874 -0.1520
  491loPI   C5A 7851   3.518   5.406   7.218 -0.2673 -0.0425  0.0042
  491loPI   C6A 7852   3.469   4.978   7.041 -0.3877 -0.0370 -0.0126
  491loPI   C1B 7853   2.309   5.799   8.233 -0.0360 -0.4524  0.2369
  491loPI   C2B 7854   2.589   6.020   7.918  0.1294  0.0105 -0.1195
  491loPI   C3B 7855   2.702   6.272   7.825 -0.2719 -0.0724 -0.0279
  491loPI   C4B 7856   3.040   6.458   7.615 -0.0012 -0.1175  0.2196
  492loPI    C1 7857   4.056   1.116   9.445 -0.1423 -0.0954 -0.1094
  492loPI    C2 7858   3.798   1.272   9.182  0.0588 -0.0493 -0.2823
  492loPI    C3 7859   3.969   1.507   9.456  0.1731 -0.0123 -0.3843
  492loPI   PO4 7860   3.940   0.833   9.394  0.0487 -0.0072  0.1556
  492loPI   GL1 7861   3.659   0.828   9.006 -0.0859 -0.1265 -0.0866
  492loPI   GL2 7862   3.941   0.594   8.954 -0.1189  0.0485  0.1184
  492loPI   C1A 7863   3.922   1.107   8.724 -0.0149  0.0779  0.2828
  492loPI   C2A 7864   3.913   1.108   8.316  0.2153  0.0013 -0.0350
  492loPI   C3A 7865   3.925   0.972   7.901  0.2449  0.0651  0.0680
  492loPI   C4A 7866   3.935   1.127   7.466  0.0596 -0.0154 -0.1158
  492loPI   C5A 7867   3.809   0.959   7.157 -0.2827 -0.3177 -0.1585
  492loPI   C6A 7868   3.973   0.727   6.961 -0.3679  0.2074  0.3151
  492loPI   C1B 7869   3.892   0.602   8.532  0.1651  0.0072 -0.0709
  492loPI   C2B 7870   3.671   0.498   8.221 -0.0473  0.1178 -0.0582
  492loPI   C3B 7871   3.639   0.314   7.813 -0.1109 -0.0060  0.0174
  492loPI   C4B 7872   3.579   0.024   7.468  0.2689  0.1842 -0.1356
  493loPI    C1 7873   5.306  12.664  10.665 -0.3644  0.0140  0.0371
  493loPI    C2 7874   5.200  13.014  10.504 -0.3295  0.0848  0.1666
  493loPI    C3 7875   5.458  13.004  10.809 -0.1070 -0.0736 -0.0227
  493loPI   PO4 7876   5.212  12.511  10.402  0.1399  0.0350  0.0418
  493loPI   GL1 7877   5.423  12.620   9.906 -0.0617 -0.1534 -0.1190
  493loPI   GL2 7878   5.401  12.420   9.733 -0.2053 -0.2008 -0.2366
  493loPI   C1A 7879   5.585  12.929   9.622 -0.0026  0.2811 -0.3362
  493loPI   C2A 7880   5.451  13.172   9.313  0.1300 -0.2495  0.1251
  493loPI   C3A 7881   5.350  13.253   8.879 -0.0491  0.1030  0.3470
  493loPI   C4A 7882   5.205  13.286   8.464 -0.0117 -0.1475 -0.1906
  493loPI   C5A 7883   5.314  13.356   8.011 -0.0587  0.2954 -0.2790
  493loPI   C6A 7884   5.737  13.520   7.828 -0.1521 -0.3093 -0.0400
  493loPI   C1B 7885   5.360  12.401   9.245  0.2608  0.0563 -0.1291
  493loPI   C2B 7886   5.384  12.454   8.793 -0.0171 -0.0070  0.1543
  493loPI   C3B 7887   5.428  12.627   8.411  0.1363 -0.0720  0.0843
  493loPI   C4B 7888   5.333  12.867   8.007 -0.0341  0.0287  0.1063
  494loPI    C1 7889  12.256  10.736   9.986  0.2444  0.0704 -0.0194
  494loPI    C2 7890  12.373  10.453  10.243 -0.1956 -0.0335  0.0741
  494loPI    C3 7891  12.273  10.816  10.377  0.0805  0.0774 -0.0132
  494loPI   PO4 7892  12.409  10.730   9.830 -0.0400 -0.1221  0.0562
  494loPI   GL1 7893  12.452  10.746   9.331  0.0397  0.0901 -0.0513
  494loPI   GL2 7894  12.229  10.945   9.194 -0.0020  0.0093 -0.3252
  494loPI   C1A 7895  12.500  10.531   8.901  0.2790  0.0893  0.2237
  494loPI   C2A 7896  12.493  10.459   8.396 -0.0872 -0.1067 -0.0271
  494loPI   C3A 7897  12.653  10.325   7.963  0.0077  0.0927  0.0935
  494loPI   C4A 7898  12.547  10.161   7.528 -0.3374 -0.0016  0.0744
  494loPI   C5A 7899  12.559  10.466   7.244 -0.0702 -0.1272 -0.2229
  494loPI   C6A 7900  12.743  10.598   6.779  0.2209  0.1170  0.0895
  494loPI   C1B 7901  12.595  11.088   8.911 -0.1459  0.2623  0.0484
  494loPI   C2B 7902  12.672  10.933   8.461  0.0346 -0.2643 -0.0974
  494loPI   C3B 7903  12.778  10.898   8.051 -0.2896 -0.1230 -0.0275
  494loPI   C4B 7904  12.849  10.761   7.686  0.2589  0.4169 -0.3103
  495loPI    C1 7905  11.635   3.647  10.574  0.0249 -0.0580  0.2853
  495loPI    C2 7906  11.485   3.307  10.722  0.0780 -0.1720  0.0808
  495loPI    C3 7907  11.578   3.609  10.968 -0.0034 -0.2913  0.2597
  495loPI   PO4 7908  11.481   3.710  10.390  0.1030  0.3273  0.0727
  495loPI   GL1 7909  11.108   3.856  10.175 -0.3204 -0.0126  0.1180
  495loPI   GL2 7910  10.831   3.700  10.285 -0.1243 -0.3109  0.0317
  495loPI   C1A 7911  10.994   3.831   9.832 -0.0411 -0.2703 -0.0874
  495loPI   C2A 7912  11.088   3.767   9.347  0.0643 -0.2134  0.1386
  495loPI   C3A 7913  11.152   3.541   9.027  0.0906  0.0279 -0.2170
  495loPI   C4A 7914  11.118   3.407   8.652 -0.3226 -0.0090 -0.1553
  495loPI   C5A 7915  10.943   3.231   8.214  0.0288 -0.0514 -0.0380
  495loPI   C6A 7916  10.660   2.857   8.193 -0.1614  0.3172 -0.1330
  495loPI   C1B 7917  10.754   3.389   9.900 -0.3826  0.0649 -0.0284
  495loPI   C2B 7918  10.728   3.339   9.481  0.5652 -0.2713  0.2323
  495loPI   C3B 7919  10.712   3.260   9.080  0.2137  0.2391  0.1531
  495loPI   C4B 7920  10.689   3.082   8.684  0.1305 -0.1147  0.2767
  496loPI    C1 7921   6.547   0.419   9.735  0.0668 -0.0583  0.0882
  496loPI    C2 7922   6.457   0.161  10.028  0.1644  0.1684  0.3219
  496loPI    C3 7923   6.645   0.503  10.114  0.4176  0.1256 -0.0397
  496loPI   PO4 7924   6.295   0.412   9.478 -0.2241  0.2331 -0.2467
  496loPI   GL1 7925   6.192   0.057   9.271  0.1608  0.0668 -0.1622
  496loPI   GL2 7926   6.004   0.241   9.176 -0.0329  0.2413  0.1353
  496loPI   C1A 7927   6.511  -0.125   8.954 -0.2468  0.0184 -0.0245
  496loPI   C2A 7928   6.690  -0.162   8.514  0.1483 -0.1872  0.1780
  496loPI   C3A 7929   6.979  -0.370   8.056 -0.0406 -0.6135 -0.0642
  496loPI   C4A 7930   6.942  -0.225   7.647 -0.4249 -0.0679 -0.4584
  496loPI   C5A 7931   6.912  -0.447   7.262 -0.1219  0.0244  0.1450
  496loPI   C6A 7932   7.130  -0.413   6.929 -0.1824  0.1340  0.1199
  496loPI   C1B 7933   6.155   0.352   8.756  0.2761  0.0362  0.1305
  496loPI   C2B 7934   6.284   0.156   8.406 -0.0290 -0.2856  0.0807
  496loPI   C3B 7935   6.297  -0.117   8.090 -0.0031 -0.0001 -0.0102
  496loPI   C4B 7936   6.101   0.205   7.816 -0.1694  0.0527  0.3660
  497loPI    C1 7937   7.230   3.552  10.163  0.0792 -0.1854 -0.1212
  497loPI    C2 7938   7.597   3.492  10.016  0.0568 -0.2176 -0.1639
  497loPI    C3 7939   7.532   3.464  10.409  0.0797 -0.3119 -0.1668
  497loPI   PO4 7940   7.231   3.774   9.963 -0.1225 -0.1352  0.0354
  497loPI   GL1 7941   7.134   3.837   9.531  0.0126 -0.0069 -0.1987
  497loPI   GL2 7942   6.826   3.992   9.686  0.1005 -0.3378  0.0265
  497loPI   C1A 7943   7.124   3.822   9.073  0.2021  0.0193 -0.0044
  497loPI   C2A 7944   7.033   3.578   8.743 -0.0048 -0.1731 -0.0322
  497loPI   C3A 7945   7.318   3.579   8.620  0.0458  0.0730 -0.2238
  497loPI   C4A 7946   7.771   3.338   8.562  0.0004  0.0536  0.0156
  497loPI   C5A 7947   8.039   3.469   8.382 -0.2157  0.3346  0.0663
  497loPI   C6A 7948   8.235   3.207   8.038  0.0971 -0.3128  0.2714
  497loPI   C1B 7949   6.844   4.197   9.216  0.1314  0.1111  0.2034
  497loPI   C2B 7950   6.870   4.240   8.713  0.1735  0.1729 -0.2202
  497loPI   C3B 7951   6.989   4.023   8.366  0.3675  0.0542  0.0663
  497loPI   C4B 7952   6.982   3.875   7.881 -0.2927  0.0616  0.2881
  498loPI    C1 7953   4.878   7.318   9.426  0.1208 -0.1097 -0.1038
  498loPI    C2 7954   4.599   7.164   9.667  0.0508  0.1455 -0.0186
  498loPI    C3 7955   4.823   6.922   9.441 -0.1791 -0.0677 -0.0234
  498loPI   PO4 7956   4.813   7.539   9.368  0.2455  0.1806 -0.2976
  498loPI   GL1 7957   4.799   7.770   9.055 -0.2488  0.1607 -0.0361
  498loPI   GL2 7958   5.075   7.853   8.991 -0.1847 -0.2177 -0.0097
  498loPI   C1A 7959   4.461   7.725   8.742 -0.0151  0.2035 -0.0478
  498loPI   C2A 7960   4.475   7.677   8.326  0.1287  0.0883  0.0675
  498loPI   C3A 7961   4.651   7.718   7.983  0.1940  0.0348  0.3117
  498loPI   C4A 7962   4.695   7.606   7.539  0.0654 -0.0165 -0.3735
  498loPI   C5A 7963   4.714   7.534   7.121 -0.3474 -0.2072 -0.3746
  498loPI   C6A 7964   4.892   7.481   6.675 -0.2525 -0.4455  0.0336
  498loPI   C1B 7965   5.031   7.625   8.589 -0.2065  0.1402  0.0207
  498loPI   C2B 7966   5.117   7.659   8.200 -0.1521 -0.0255  0.1461
  498loPI   C3B 7967   5.130   7.587   7.852  0.2883 -0.0760 -0.0132
  498loPI   C4B 7968   5.138   7.365   7.450 -0.0394  0.1584  0.0938
  499loPI    C1 7969   2.569   8.889   9.854  0.0907  0.0902  0.2154
  499loPI    C2 7970   2.860   8.981   9.595  0.0000  0.0832  0.1102
  499loPI    C3 7971   2.924   9.015   9.989  0.0731  0.2873  0.0823
  499loPI   PO4 7972   2.421   8.710   9.699 -0.0787  0.1581 -0.1589
  499loPI   GL1 7973   2.646   8.627   9.272 -0.0581  0.0760  0.1482
  499loPI   GL2 7974   2.493   8.355   9.259  0.3266 -0.1040 -0.0121
  499loPI   C1A 7975   2.719   9.021   8.999 -0.3945  0.1159  0.4654
  499loPI   C2A 7976   2.800   9.117   8.584 -0.1528 -0.3170  0.0168
  499loPI   C3A 7977   3.095   9.084   8.206  0.0039  0.1322  0.0931
  499loPI   C4A 7978   3.223   9.131   7.872  0.0707  0.1135  0.2091
  499loPI   C5A 7979   3.284   8.969   7.437  0.0723 -0.0545 -0.2416
  499loPI   C6A 7980   3.182   8.708   7.047 -0.2277  0.2905 -0.1343
  499loPI   C1B 7981   2.257   8.408   8.861  0.0566 -0.0061 -0.0571
  499loPI   C2B 7982   2.370   8.189   8.466  0.0776  0.0324  0.3660
  499loPI   C3B 7983   2.441   8.167   8.003  0.1700 -0.1455 -0.0831
  499loPI   C4B 7984   2.355   8.136   7.486  0.3266  0.4454 -0.0564
  500loPI    C1 7985   1.279   7.964   9.865 -0.0634 -0.1136  0.2367
  500loPI    C2 7986   1.477   7.617   9.864 -0.2157 -0.2028 -0.0118
  500loPI    C3 7987   1.137   7.652  10.072 -0.0721 -0.1244  0.2144
  500loPI   PO4 7988   1.231   8.001   9.602 -0.2356  0.1244 -0.1497
  500loPI   GL1 7989   1.505   7.851   9.183  0.0371  0.1455 -0.0326
  500loPI   GL2 7990   1.342   7.782   8.929  0.4275 -0.0371  0.2129
  500loPI   C1A 7991   1.814   8.133   8.933  0.1739 -0.1998 -0.3136
  500loPI   C2A 7992   1.859   8.211   8.450  0.4632  0.0202  0.1843
  500loPI   C3A 7993   1.944   8.363   7.967  0.0141  0.2457  0.1353
  500loPI   C4A 7994   2.066   8.571   7.641  0.1132 -0.0053 -0.2222
  500loPI   C5A 7995   2.126   8.604   7.267 -0.1999  0.0702 -0.0745
  500loPI   C6A 7996   2.449   8.705   7.004 -0.2402  0.0795 -0.0390
  500loPI   C1B 7997   0.956   7.839   8.563  0.1949  0.5623 -0.0225
  500loPI   C2B 7998   0.973   7.651   8.227 -0.1365  0.1745  0.2567
  500loPI   C3B 7999   0.782   7.683   7.887  0.1636  0.3242  0.2667
  500loPI   C4B 8000   0.636   7.805   7.492 -0.1979 -0.1057  0.0880
  501loPI    C1 8001  10.739  12.909   9.683  0.1074  0.1877  0.1440
  501loPI    C2 8002  11.130  12.948   9.613  0.0397  0.1366 -0.2916
  501loPI    C3 8003  10.989  12.983   9.986  0.4556  0.1585 -0.1309
  501loPI   PO4 8004  10.683  12.999   9.407 -0.2877 -0.0842 -0.1624
  501loPI   GL1 8005  10.876  13.155   8.889 -0.3766 -0.0680  0.1694
  501loPI   GL2 8006  10.987  12.857   8.827  0.3461 -0.1584 -0.0089
  501loPI   C1A 8007  10.763  13.240   8.417  0.1984 -0.1356 -0.2466
  501loPI   C2A 8008  10.652  13.290   7.961 -0.2120  0.0100  0.3349
  501loPI   C3A 8009  10.602  13.304   7.573 -0.1061  0.1304 -0.0096
  501loPI   C4A 8010  10.337  13.259   7.250  0.0359 -0.2796 -0.1674
  501loPI   C5A 8011  10.311  13.197   6.811  0.2313  0.0286  0.3642
  501loPI   C6A 8012  10.700  13.083   6.568 -0.0983 -0.1524  0.1442
  501loPI   C1B 8013  11.226  12.551   8.538 -0.1956 -0.0048  0.0439
  501loPI   C2B 8014  11.264  12.248   8.132  0.0503  0.0335 -0.0701
  501loPI   C3B 8015  11.355  12.112   7.736  0.2406  0.0194  0.2898
  501loPI   C4B 8016  11.486  12.084   7.363 -0.1321  0.0851 -0.1275
  502loPI    C1 8017   2.179  14.798   9.902 -0.0317  0.2134 -0.1281
  502loPI    C2 8018   2.285  15.140  10.080 -0.0665  0.0849  0.1446
  502loPI    C3 8019   2.508  14.812  10.129 -0.3187 -0.0633  0.3188
  502loPI   PO4 8020   2.185  14.836   9.648  0.2510 -0.0072 -0.5389
  502loPI   GL1 8021   2.029  14.701   9.294  0.1362  0.4075 -0.0055
  502loPI   GL2 8022   1.958  14.442   9.059 -0.1243 -0.2339  0.1957
  502loPI   C1A 8023   2.022  15.015   8.947 -0.1276  0.1615  0.0814
  502loPI   C2A 8024   2.260  14.950   8.547  0.2828  0.2268 -0.0151
  502loPI   C3A 8025   2.365  14.954   8.127  0.1117  0.0659 -0.1806
  502loPI   C4A 8026   2.110  14.975   7.714  0.2344 -0.1375 -0.0304
  502loPI   C5A 8027   2.076  15.179   7.395  0.3540  0.1771 -0.1863
  502loPI   C6A 8028   2.208  15.065   7.009 -0.0259  0.2822  0.2358
  502loPI   C1B 8029   2.196  14.507   8.700 -0.2038  0.0058 -0.3532
  502loPI   C2B 8030   2.228  14.535   8.218 -0.0035  0.4151  0.0028
  502loPI   C3B 8031   2.393  14.463   7.767 -0.1354 -0.1104  0.2600
  502loPI   C4B 8032   2.311  14.692   7.383  0.0789  0.2098 -0.2905
  503loPI    C1 8033  18.172  14.113   9.501  0.2676 -0.0760 -0.1320
  503loPI    C2 8034  18.460  14.043   9.769  0.0798 -0.1916  0.0421
  503loPI    C3 8035  18.370  14.419   9.667  0.0537 -0.1390  0.2523
  503loPI   PO4 8036  18.143  13.985   9.406  0.0990 -0.1063  0.0921
  503loPI   GL1 8037  17.985  13.650   9.258 -0.0166  0.0708 -0.0107
  503loPI   GL2 8038  18.039  13.443   9.196  0.0597  0.2153 -0.0341
  503loPI   C1A 8039  17.765  13.687   8.813 -0.0517 -0.0560 -0.1149
  503loPI   C2A 8040  17.884  13.700   8.352  0.3172 -0.4078 -0.2075
  503loPI   C3A 8041  17.871  13.727   7.944  0.2954  0.0257 -0.0769
  503loPI   C4A 8042  17.797  13.803   7.512 -0.1336  0.5473 -0.0118
  503loPI   C5A 8043  17.733  13.781   7.143 -0.1406 -0.3051 -0.0525
  503loPI   C6A 8044  17.740  13.542   6.792  0.1948  0.0417  0.2161
  503loPI   C1B 8045  17.810  13.175   8.973 -0.0488  0.0304  0.0557
  503loPI   C2B 8046  17.841  13.314   8.619 -0.0318  0.0991  0.2565
  503loPI   C3B 8047  17.947  13.195   8.226 -0.4626  0.3156 -0.0065
  503loPI   C4B 8048  18.227  13.353   7.878 -0.0131  0.1833 -0.0125
  504loPI    C1 8049   8.615   8.792   9.722  0.3628  0.6691  0.2057
  504loPI    C2 8050   8.320   8.864   9.983  0.0768  0.2174  0.0207
  504loPI    C3 8051   8.635   8.643  10.093 -0.2262 -0.2950 -0.1140
  504loPI   PO4 8052   8.660   9.077   9.599  0.1667  0.0080  0.1858
  504loPI   GL1 8053   8.919   9.118   9.317  0.2484  0.3305  0.3254
  504loPI   GL2 8054   9.241   9.029   9.367 -0.2980  0.2211 -0.0023
  504loPI   C1A 8055   9.076   9.286   8.876  0.1002  0.1551  0.0142
  504loPI   C2A 8056   9.298   9.215   8.610 -0.2587 -0.1243 -0.0554
  504loPI   C3A 8057   9.387   9.270   8.115  0.0690  0.0900 -0.0810
  504loPI   C4A 8058   9.643   9.100   7.807 -0.1024 -0.0928 -0.0974
  504loPI   C5A 8059   9.835   9.341   7.494 -0.3205  0.2546 -0.2105
  504loPI   C6A 8060   9.874   9.252   7.048 -0.0721  0.1037 -0.1419
  504loPI   C1B 8061   9.513   9.015   9.067 -0.0118  0.0549 -0.3269
  504loPI   C2B 8062   9.849   9.090   8.694  0.1360  0.4083 -0.0528
  504loPI   C3B 8063   9.956   9.140   8.231 -0.0488  0.5341 -0.2067
  504loPI   C4B 8064  10.152   9.075   7.776 -0.4341  0.1185  0.2112
  505loPI    C1 8065  14.721   3.575   9.755 -0.3076  0.1180  0.1946
  505loPI    C2 8066  14.888   3.326  10.021 -0.2739 -0.0259  0.0404
  505loPI    C3 8067  14.973   3.717  10.032 -0.0129 -0.0808  0.0345
  505loPI   PO4 8068  14.494   3.615   9.721  0.1185  0.2035  0.2917
  505loPI   GL1 8069  14.309   3.457   9.312 -0.0292  0.0036  0.0887
  505loPI   GL2 8070  14.639   3.514   9.178  0.2565  0.2891  0.4880
  505loPI   C1A 8071  14.205   3.631   8.882 -0.1696 -0.0541  0.1863
  505loPI   C2A 8072  14.344   3.877   8.481  0.0944  0.0340 -0.0934
  505loPI   C3A 8073  14.661   3.970   8.218 -0.2283 -0.0189 -0.3659
  505loPI   C4A 8074  14.842   3.965   7.855  0.2804 -0.1895 -0.0670
  505loPI   C5A 8075  14.715   4.062   7.429 -0.0096 -0.0687  0.1200
  505loPI   C6A 8076  14.492   4.365   7.277  0.0922 -0.1517  0.0155
  505loPI   C1B 8077  14.728   3.740   8.755  0.3023  0.0097  0.1923
  505loPI   C2B 8078  15.071   3.837   8.407  0.0185  0.1882 -0.0323
  505loPI   C3B 8079  15.219   3.693   7.993  0.0491  0.0475  0.3408
  505loPI   C4B 8080  15.495   3.608   7.645 -0.0760 -0.3523  0.0675
  506loPI    C1 8081  16.036   7.476   9.221  0.1866  0.0450  0.0608
  506loPI    C2 8082  15.849   7.803   9.087  0.3500  0.2753  0.3792
  506loPI    C3 8083  15.723   7.624   9.421  0.2065 -0.0446  0.1590
  506loPI   PO4 8084  16.269   7.536   9.337 -0.3427  0.1193 -0.2217
  506loPI   GL1 8085  16.549   7.771   9.169 -0.4706 -0.0323 -0.0909
  506loPI   GL2 8086  16.350   7.991   9.074 -0.3679 -0.1595 -0.0732
  506loPI   C1A 8087  16.749   7.821   8.791  0.1881  0.1115  0.2079
  506loPI   C2A 8088  16.657   7.588   8.382  0.0490 -0.0327 -0.1808
  506loPI   C3A 8089  16.967   7.176   8.114 -0.1394  0.1131  0.1767
  506loPI   C4A 8090  16.849   6.980   7.769  0.3227 -0.2079 -0.1688
  506loPI   C5A 8091  16.590   7.072   7.388 -0.0286  0.0206 -0.0434
  506loPI   C6A 8092  16.388   7.369   7.220 -0.3094  0.4225 -0.1694
  506loPI   C1B 8093  16.270   7.882   8.640  0.0440  0.2730 -0.2339
  506loPI   C2B 8094  16.330   7.850   8.100  0.0561 -0.3915 -0.0953
  506loPI   C3B 8095  16.074   7.689   7.804 -0.3623  0.1453  0.0660
  506loPI   C4B 8096  15.987   7.610   7.420 -0.2747 -0.0948  0.1711
  507loPI    C1 8097  18.073  10.656   9.652  0.2886  0.0413  0.0318
  507loPI    C2 8098  17.957  10.545  10.018 -0.0682 -0.0234 -0.0970
  507loPI    C3 8099  18.283  10.772   9.972 -0.0395  0.0135  0.2619
  507loPI   PO4 8100  17.861  10.772   9.571 -0.1822 -0.0711 -0.1701
  507loPI   GL1 8101  17.758  10.878   9.201 -0.0573  0.0911  0.0535
  507loPI   GL2 8102  17.816  10.564   9.146  0.1759 -0.1868 -0.1432
  507loPI   C1A 8103  17.996  10.832   8.748  0.1416 -0.3731 -0.2609
  507loPI   C2A 8104  17.914  10.832   8.302 -0.3050 -0.1638  0.2361
  507loPI   C3A 8105  17.898  11.052   7.877 -0.2710 -0.0202  0.1298
  507loPI   C4A 8106  18.223  11.203   7.615  0.0228  0.1199  0.0678
  507loPI   C5A 8107  18.450  11.522   7.322 -0.2747  0.1470 -0.2359
  507loPI   C6A 8108  18.204  11.859   6.945  0.0261 -0.0431 -0.1533
  507loPI   C1B 8109  18.088  10.373   8.797 -0.2567  0.0319 -0.2523
  507loPI   C2B 8110  18.164  10.297   8.327 -0.0954 -0.0412  0.1052
  507loPI   C3B 8111  18.214  10.295   7.887 -0.1725  0.0408  0.2049
  507loPI   C4B 8112  18.465  10.264   7.504  0.4503 -0.1476 -0.2719
  508loPI    C1 8113   1.373  15.209   9.776  0.1526  0.0105 -0.0428
  508loPI    C2 8114   1.722  15.046   9.884  0.1026  0.0213  0.1386
  508loPI    C3 8115   1.440  15.115  10.159 -0.0015  0.1127  0.0101
  508loPI   PO4 8116   1.372  15.213   9.431  0.0233  0.1526 -0.3940
  508loPI   GL1 8117   1.563  15.280   8.995  0.1699  0.4152 -0.1764
  508loPI   GL2 8118   1.560  15.176   8.651  0.1830 -0.1589 -0.3832
  508loPI   C1A 8119   1.697  15.672   8.827  0.2122 -0.1829  0.0663
  508loPI   C2A 8120   1.866  16.089   8.529 -0.0778 -0.0205  0.5026
  508loPI   C3A 8121   2.084  16.402   8.339 -0.1916  0.2376  0.0222
  508loPI   C4A 8122   2.353  16.477   8.022  0.0246  0.0487 -0.3061
  508loPI   C5A 8123   2.406  16.596   7.642 -0.1198  0.0967 -0.2632
  508loPI   C6A 8124   2.377  16.398   7.172 -0.1786 -0.2275 -0.0059
  508loPI   C1B 8125   1.429  14.950   8.299 -0.4564 -0.1623 -0.1648
  508loPI   C2B 8126   1.368  14.874   7.797 -0.1697 -0.0535 -0.1509
  508loPI   C3B 8127   1.311  14.804   7.395  0.1371  0.1803 -0.1652
  508loPI   C4B 8128   1.054  14.448   7.124 -0.3695 -0.0887  0.1430
  509loPI    C1 8129   4.927  11.110  10.084  0.0757 -0.3230  0.0713
  509loPI    C2 8130   5.101  11.250  10.416 -0.0911 -0.0102  0.0309
  509loPI    C3 8131   4.810  10.976  10.442 -0.0898 -0.0015  0.1414
  509loPI   PO4 8132   4.806  11.409   9.939  0.1559 -0.2899  0.1422
  509loPI   GL1 8133   4.939  11.626   9.656 -0.0563 -0.0334 -0.2649
  509loPI   GL2 8134   5.020  11.999   9.649  0.0179 -0.3023  0.2652
  509loPI   C1A 8135   4.900  11.352   9.213 -0.1306 -0.0006 -0.1244
  509loPI   C2A 8136   4.663  11.234   8.978  0.0861 -0.0722  0.1029
  509loPI   C3A 8137   4.711  11.416   8.568 -0.5054 -0.3234 -0.4308
  509loPI   C4A 8138   4.741  11.481   8.187 -0.1732 -0.0469  0.0366
  509loPI   C5A 8139   4.964  11.535   7.804 -0.2509  0.2095  0.0084
  509loPI   C6A 8140   5.330  11.698   7.722  0.2340  0.0922 -0.0758
  509loPI   C1B 8141   4.957  12.088   9.240 -0.0461 -0.2407  0.0490
  509loPI   C2B 8142   4.833  12.234   8.790 -0.2665  0.1691 -0.2718
  509loPI   C3B 8143   4.916  12.197   8.394  0.1160  0.1499  0.1351
  509loPI   C4B 8144   4.949  12.522   8.098  0.2750  0.2218 -0.0303
  510loPI    C1 8145   9.746   7.985   9.991 -0.5756  0.1141 -0.0075
  510loPI    C2 8146   9.660   7.602   9.915  0.0014 -0.0009 -0.1302
  510loPI    C3 8147   9.728   7.721  10.291 -0.0670 -0.0415 -0.1049
  510loPI   PO4 8148  10.001   8.006   9.738  0.1135  0.2883  0.1217
  510loPI   GL1 8149   9.860   7.991   9.345 -0.2000  0.0049 -0.0369
  510loPI   GL2 8150   9.673   7.670   9.367 -0.2142 -0.1637  0.2197
  510loPI   C1A 8151   9.589   8.312   9.073  0.0345  0.0446  0.0777
  510loPI   C2A 8152   9.619   8.589   8.749 -0.2606 -0.0418  0.0402
  510loPI   C3A 8153   9.519   8.810   8.351 -0.1570  0.2462  0.0012
  510loPI   C4A 8154   9.530   8.660   8.031 -0.2142  0.0227 -0.0912
  510loPI   C5A 8155   9.349   8.534   7.659  0.3284  0.1977  0.0482
  510loPI   C6A 8156   8.996   8.333   7.520  0.1797  0.0131  0.0253
  510loPI   C1B 8157   9.633   7.802   8.907  0.0584  0.2867 -0.3345
  510loPI   C2B 8158   9.474   7.730   8.625  0.1493 -0.0621  0.0124
  510loPI   C3B 8159   9.192   7.650   8.387 -0.0673  0.0697 -0.2419
  510loPI   C4B 8160   8.947   7.725   8.067  0.0507 -0.0380  0.2640
  511loPI    C1 8161   0.751  10.400  10.025 -0.0916 -0.1407 -0.1957
  511loPI    C2 8162   0.757  10.566  10.389  0.0672 -0.2112 -0.1655
  511loPI    C3 8163   0.545  10.736  10.096  0.0735 -0.0612 -0.0844
  511loPI   PO4 8164   0.914  10.319   9.826  0.0548  0.1025 -0.2782
  511loPI   GL1 8165   1.147  10.139   9.422  0.1280  0.0184 -0.0459
  511loPI   GL2 8166   1.425  10.194   9.201 -0.2104 -0.0355  0.1684
  511loPI   C1A 8167   1.052   9.840   9.168  0.0980 -0.0720  0.1586
  511loPI   C2A 8168   0.982   9.808   8.763  0.1151  0.5504  0.0330
  511loPI   C3A 8169   1.162   9.853   8.376  0.0357  0.1899 -0.1098
  511loPI   C4A 8170   1.039  10.131   8.073 -0.3028  0.1536 -0.0658
  511loPI   C5A 8171   1.292  10.189   7.718  0.0251  0.1126  0.1698
  511loPI   C6A 8172   1.481  10.352   7.338 -0.1006  0.1295 -0.1689
  511loPI   C1B 8173   1.350  10.221   8.786  0.1252  0.1079 -0.1122
  511loPI   C2B 8174   1.443  10.287   8.416 -0.1568  0.0293  0.1970
  511loPI   C3B 8175   1.611  10.093   8.122 -0.1826  0.0918  0.1600
  511loPI   C4B 8176   1.818   9.945   7.749 -0.0019 -0.0434 -0.0786
  512loPI    C1 8177   0.269  13.803   9.760  0.0600 -0.2525 -0.0207
  512loPI    C2 8178   0.361  14.173   9.881  0.0565 -0.2069 -0.1555
  512loPI    C3 8179   0.296  13.885  10.151  0.3600 -0.1838 -0.0531
  512loPI   PO4 8180   0.332  13.773   9.495  0.0725  0.0504 -0.1553
  512loPI   GL1 8181   0.309  13.803   8.954 -0.0549 -0.2605  0.1280
  512loPI   GL2 8182   0.514  13.919   9.101  0.1207  0.0424  0.1728
  512loPI   C1A 8183   0.272  13.844   8.506  0.0386 -0.2253  0.0717
  512loPI   C2A 8184   0.407  13.746   8.064  0.0961  0.1190 -0.1110
  512loPI   C3A 8185   0.611  13.673   7.518  0.0323  0.0944 -0.0531
  512loPI   C4A 8186   0.639  14.048   7.222 -0.0208 -0.4466  0.3175
  512loPI   C5A 8187   0.790  14.001   6.780 -0.0264 -0.0166 -0.1465
  512loPI   C6A 8188   1.128  13.805   6.634 -0.2694 -0.0040  0.0810
  512loPI   C1B 8189   0.671  14.143   8.717 -0.1296  0.2132  0.0330
  512loPI   C2B 8190   0.605  14.128   8.201  0.1261  0.0524 -0.2048
  512loPI   C3B 8191   0.719  14.081   7.820 -0.0562 -0.1794  0.1643
  512loPI   C4B 8192   0.993  14.044   7.549  0.2228 -0.1803  0.0896
  513loPI    C1 8193  14.930   9.076   9.957 -0.0814  0.0818 -0.2626
  513loPI    C2 8194  15.068   9.407  10.134 -0.0507  0.0609 -0.2474
  513loPI    C3 8195  15.204   9.049  10.247 -0.0869  0.0429 -0.2610
  513loPI   PO4 8196  14.918   9.029   9.679  0.0525 -0.3438  0.3636
  513loPI   GL1 8197  15.103   8.858   9.374 -0.1094 -0.1090 -0.4428
  513loPI   GL2 8198  14.969   9.056   9.179  0.4752  0.0059  0.0401
  513loPI   C1A 8199  15.249   8.712   8.907  0.0515 -0.1068  0.0071
  513loPI   C2A 8200  15.151   8.721   8.477  0.4991  0.1464  0.0647
  513loPI   C3A 8201  15.144   8.405   8.244 -0.2956 -0.1571 -0.1233
  513loPI   C4A 8202  15.167   8.175   7.844  0.1033  0.2562 -0.3089
  513loPI   C5A 8203  15.130   7.860   7.457  0.0939  0.0724 -0.1282
  513loPI   C6A 8204  14.774   7.825   7.167 -0.1741  0.2354  0.1633
  513loPI   C1B 8205  15.118   9.214   8.744  0.0429  0.1395  0.2677
  513loPI   C2B 8206  15.089   9.405   8.400  0.0517 -0.3322  0.1136
  513loPI   C3B 8207  15.070   9.433   7.897 -0.0429 -0.2461  0.1229
  513loPI   C4B 8208  14.942   9.489   7.510  0.4690 -0.0881  0.1452
  514loPI    C1 8209   5.442   0.496   9.498 -0.2986  0.0345  0.1790
  514loPI    C2 8210   5.808   0.452   9.652 -0.3082  0.2265  0.2597
  514loPI    C3 8211   5.508   0.223   9.783 -0.1740 -0.0809  0.0409
  514loPI   PO4 8212   5.529   0.485   9.225 -0.0362 -0.0016 -0.1396
  514loPI   GL1 8213   5.746   0.664   8.950  0.2474  0.2348  0.1069
  514loPI   GL2 8214   5.646   1.007   9.121 -0.1711 -0.1297  0.1692
  514loPI   C1A 8215   5.849   0.715   8.561 -0.2606 -0.0781 -0.1194
  514loPI   C2A 8216   5.967   0.592   8.132  0.0839  0.2013  0.0952
  514loPI   C3A 8217   6.106   0.669   7.775  0.3423  0.0367 -0.1627
  514loPI   C4A 8218   6.158   0.866   7.341 -0.2574  0.0471 -0.0275
  514loPI   C5A 8219   6.423   1.152   7.152  0.1831 -0.1453 -0.0515
  514loPI   C6A 8220   6.872   1.340   7.336  0.0160 -0.3741  0.1177
  514loPI   C1B 8221   5.920   1.205   8.982  0.0626  0.0077  0.3585
  514loPI   C2B 8222   6.102   1.130   8.417  0.1088  0.0179  0.2760
  514loPI   C3B 8223   6.326   1.028   8.106  0.0757 -0.1596  0.0639
  514loPI   C4B 8224   6.406   1.101   7.658 -0.2320 -0.0043 -0.1238
  515loPI    C1 8225  13.651   9.731   9.927 -0.0402 -0.0843 -0.0350
  515loPI    C2 8226  13.841  10.080   9.974 -0.2484  0.0424 -0.1179
  515loPI    C3 8227  13.751   9.856  10.294 -0.2587  0.1429 -0.0498
  515loPI   PO4 8228  13.555   9.738   9.653 -0.0377 -0.0524  0.3006
  515loPI   GL1 8229  13.493   9.807   9.197 -0.0823 -0.0257  0.0480
  515loPI   GL2 8230  13.278   9.849   8.958 -0.0921 -0.2287  0.3293
  515loPI   C1A 8231  13.793   9.677   8.856  0.0687  0.1023 -0.3609
  515loPI   C2A 8232  13.731   9.380   8.445 -0.1833 -0.0634  0.1187
  515loPI   C3A 8233  13.703   9.037   8.219  0.0974  0.1806  0.1012
  515loPI   C4A 8234  13.587   8.864   7.803  0.0366 -0.1331  0.3798
  515loPI   C5A 8235  13.573   9.010   7.415 -0.0572  0.0993  0.0099
  515loPI   C6A 8236  13.495   8.694   7.052  0.0169  0.1832  0.0426
  515loPI   C1B 8237  13.279  10.020   8.571  0.0507 -0.1036 -0.0432
  515loPI   C2B 8238  13.131   9.915   8.198 -0.1696 -0.1246 -0.2544
  515loPI   C3B 8239  13.012   9.788   7.739 -0.1697 -0.2869  0.1640
  515loPI   C4B 8240  13.069   9.708   7.376 -0.2094 -0.0929 -0.0830
  516loPI    C1 8241  17.500   9.309   9.822 -0.1130  0.0031  0.0776
  516loPI    C2 8242  17.136   9.166   9.905 -0.1569  0.1365  0.1189
  516loPI    C3 8243  17.263   9.503  10.079  0.1086 -0.0754  0.3470
  516loPI   PO4 8244  17.491   9.221   9.588 -0.2626 -0.1688 -0.1120
  516loPI   GL1 8245  17.648   9.073   9.221  0.3578  0.1626  0.2552
  516loPI   GL2 8246  17.508   9.270   8.997 -0.1896 -0.2626 -0.2048
  516loPI   C1A 8247  17.831   9.092   8.687  0.2337  0.4051 -0.0164
  516loPI   C2A 8248  17.713   9.070   8.326  0.0946 -0.0880 -0.3224
  516loPI   C3A 8249  17.752   8.979   7.864 -0.3833 -0.0552  0.2067
  516loPI   C4A 8250  17.631   8.842   7.482 -0.2654 -0.0058 -0.0050
  516loPI   C5A 8251  17.420   8.741   7.133  0.0303  0.1939 -0.3557
  516loPI   C6A 8252  17.314   8.605   6.683  0.0550 -0.0263  0.2056
  516loPI   C1B 8253  17.319   9.323   8.582  0.2273 -0.2034 -0.0951
  516loPI   C2B 8254  17.298   9.118   8.107  0.1276  0.1166 -0.0850
  516loPI   C3B 8255  17.273   9.128   7.722 -0.1952  0.0929  0.0540
  516loPI   C4B 8256  17.259   9.315   7.266  0.0369  0.2497 -0.3861
  517loPI    C1 8257   3.242   3.334   9.790  0.0664 -0.0791 -0.3107
  517loPI    C2 8258   3.066   3.677   9.896  0.0505 -0.2262  0.1591
  517loPI    C3 8259   2.844   3.353   9.819  0.0668 -0.1423 -0.2627
  517loPI   PO4 8260   3.472   3.439   9.604 -0.0939 -0.2198  0.0899
  517loPI   GL1 8261   3.571   3.431   9.134  0.0457 -0.0628 -0.0231
  517loPI   GL2 8262   3.566   3.203   9.143  0.0988 -0.0320 -0.0624
  517loPI   C1A 8263   3.793   3.509   8.816  0.1023 -0.3680  0.0619
  517loPI   C2A 8264   3.901   3.513   8.322  0.3498  0.0705  0.4795
  517loPI   C3A 8265   3.993   3.414   7.982 -0.1806  0.0642  0.2762
  517loPI   C4A 8266   3.791   3.396   7.522  0.0760  0.0817  0.2515
  517loPI   C5A 8267   3.490   3.494   7.141  0.0211  0.1768  0.0497
  517loPI   C6A 8268   3.259   3.597   6.842 -0.1126 -0.0355 -0.1835
  517loPI   C1B 8269   3.391   3.154   8.747 -0.1799  0.0434 -0.0475
  517loPI   C2B 8270   3.517   3.184   8.258  0.1723  0.2980 -0.1128
  517loPI   C3B 8271   3.599   3.024   7.865  0.0513 -0.0285  0.0458
  517loPI   C4B 8272   3.947   2.950   7.667 -0.1801 -0.0587  0.2034
  518loPI    C1 8273  10.045  15.433   9.644  0.0213 -0.1313  0.1131
  518loPI    C2 8274  10.251  15.116   9.513  0.1689  0.0159 -0.0146
  518loPI    C3 8275  10.444  15.433   9.663  0.0126 -0.0448  0.3242
  518loPI   PO4 8276   9.801  15.391   9.491 -0.2917 -0.2227  0.1374
  518loPI   GL1 8277   9.533  15.565   9.250  0.1867 -0.1917  0.5633
  518loPI   GL2 8278   9.186  15.583   9.260  0.1031  0.1468 -0.2232
  518loPI   C1A 8279   9.580  15.498   8.847 -0.0984 -0.0118 -0.0312
  518loPI   C2A 8280   9.599  15.574   8.508  0.1682 -0.1734 -0.0201
  518loPI   C3A 8281   9.509  15.646   8.056 -0.1194  0.0505  0.1689
  518loPI   C4A 8282   9.824  15.402   7.729  0.0724  0.0033 -0.1626
  518loPI   C5A 8283  10.043  15.256   7.380 -0.1824 -0.0477 -0.0710
  518loPI   C6A 8284  10.248  15.313   6.972  0.1977 -0.1902 -0.1720
  518loPI   C1B 8285   9.266  15.879   8.911  0.5064  0.2943 -0.0473
  518loPI   C2B 8286   9.236  15.915   8.442  0.5230 -0.0664 -0.1178
  518loPI   C3B 8287   9.045  15.869   8.066 -0.0032  0.1344  0.3470
  518loPI   C4B 8288   9.096  15.831   7.657  0.0321  0.0068 -0.0717
  519loPI    C1 8289  17.746   8.862   9.986  0.2350 -0.2548  0.1068
  519loPI    C2 8290  17.935   9.188  10.121 -0.0386 -0.1150  0.1601
  519loPI    C3 8291  17.976   8.839  10.312  0.1659 -0.0874  0.1686
  519loPI   PO4 8292  17.916   8.800   9.696 -0.1726 -0.0966  0.2065
  519loPI   GL1 8293  17.919   8.500   9.440 -0.3861 -0.0780  0.1793
  519loPI   GL2 8294  17.723   8.319   9.333 -0.0092  0.2512  0.0994
  519loPI   C1A 8295  17.975   8.722   9.005 -0.0765  0.2345  0.1506
  519loPI   C2A 8296  18.006   8.655   8.478 -0.3727 -0.0424  0.0492
  519loPI   C3A 8297  18.034   8.573   8.010  0.1020  0.0032 -0.3977
  519loPI   C4A 8298  18.061   8.435   7.587  0.2559  0.0148  0.0535
  519loPI   C5A 8299  17.864   8.438   7.265  0.4692  0.0437 -0.1576
  519loPI   C6A 8300  17.534   8.212   6.992  0.2561  0.1837 -0.0172
  519loPI   C1B 8301  17.423   8.098   9.092  0.0364 -0.0207  0.0058
  519loPI   C2B 8302  17.294   7.840   8.616  0.0268 -0.2197  0.0059
  519loPI   C3B 8303  17.238   7.742   8.285  0.0137  0.0299  0.1212
  519loPI   C4B 8304  16.957   7.761   7.947 -0.1568  0.2608  0.2618
  520loPI    C1 8305  10.549   8.660   9.798  0.3729 -0.2438 -0.0667
  520loPI    C2 8306  10.842   8.729  10.061  0.1480 -0.1922  0.1743
  520loPI    C3 8307  10.466   8.832  10.150  0.0930 -0.0196 -0.2380
  520loPI   PO4 8308  10.497   8.372   9.695 -0.1734  0.1006 -0.0779
  520loPI   GL1 8309  10.319   8.355   9.340  0.0706 -0.2960  0.1767
  520loPI   GL2 8310  10.622   8.498   9.225  0.1381  0.1678 -0.3596
  520loPI   C1A 8311  10.216   8.189   9.033 -0.0169 -0.2175  0.0707
  520loPI   C2A 8312   9.904   8.145   8.653  0.1188  0.2832 -0.1156
  520loPI   C3A 8313   9.641   8.130   8.412  0.2569  0.1120  0.3429
  520loPI   C4A 8314   9.392   8.047   8.070  0.1034  0.0288 -0.1039
  520loPI   C5A 8315   9.330   8.040   7.727  0.1315 -0.2470  0.0408
  520loPI   C6A 8316   9.155   7.910   7.326 -0.0706  0.0394 -0.3451
  520loPI   C1B 8317  10.632   8.565   8.686 -0.1852 -0.0709 -0.0002
  520loPI   C2B 8318  10.450   8.714   8.209 -0.2163  0.2093  0.2742
  520loPI   C3B 8319  10.239   8.573   7.900  0.3613 -0.1353 -0.2290
  520loPI   C4B 8320  10.310   8.538   7.514  0.1141  0.0830 -0.1086
  521loPI    C1 8321   4.017  15.959   9.879  0.0762  0.0329 -0.2201
  521loPI    C2 8322   4.140  16.171  10.195 -0.0852  0.0475 -0.1658
  521loPI    C3 8323   3.966  15.815  10.249  0.1228 -0.0692 -0.2532
  521loPI   PO4 8324   4.256  16.019   9.733 -0.0174  0.1753  0.1058
  521loPI   GL1 8325   4.473  15.781   9.510  0.1746  0.1626  0.7056
  521loPI   GL2 8326   4.552  15.357   9.593  0.0605 -0.2934  0.3442
  521loPI   C1A 8327   4.256  15.720   9.054 -0.1684  0.0517 -0.2211
  521loPI   C2A 8328   4.306  15.602   8.661 -0.1861 -0.1379  0.0789
  521loPI   C3A 8329   4.228  15.279   8.427 -0.0195 -0.1899 -0.0589
  521loPI   C4A 8330   4.297  15.268   7.931  0.1891 -0.0118 -0.0975
  521loPI   C5A 8331   4.611  15.218   7.521  0.1452 -0.2881 -0.1021
  521loPI   C6A 8332   4.560  15.309   7.184 -0.2998 -0.0033  0.0612
  521loPI   C1B 8333   4.469  15.168   9.147  0.0090 -0.2493 -0.3695
  521loPI   C2B 8334   4.613  14.941   8.829 -0.4218  0.1731  0.1467
  521loPI   C3B 8335   4.551  14.925   8.309  0.1132  0.0828  0.1806
  521loPI   C4B 8336   4.534  14.846   7.865 -0.0698  0.0579 -0.1274
  522loPI    C1 8337  16.751  14.735   9.701 -0.0953 -0.0303  0.0865
  522loPI    C2 8338  16.489  14.633   9.986 -0.1497  0.2085  0.1248
  522loPI    C3 8339  16.619  15.010   9.961  0.0074  0.1445 -0.0444
  522loPI   PO4 8340  16.629  14.466   9.477 -0.0748  0.1937  0.2276
  522loPI   GL1 8341  16.504  14.466   9.057  0.1789  0.0927 -0.0026
  522loPI   GL2 8342  16.750  14.720   8.955 -0.4242 -0.3104 -0.3919
  522loPI   C1A 8343  16.379  14.518   8.695  0.0898  0.1054  0.1106
  522loPI   C2A 8344  16.292  14.539   8.252  0.0941 -0.1375 -0.2945
  522loPI   C3A 8345  16.618  14.590   7.908 -0.0015 -0.2132 -0.1472
  522loPI   C4A 8346  16.515  14.285   7.605  0.0701  0.1389 -0.0914
  522loPI   C5A 8347  16.669  14.009   7.246 -0.0492 -0.0248  0.1976
  522loPI   C6A 8348  16.508  13.846   6.931  0.3716 -0.0361  0.0435
  522loPI   C1B 8349  17.031  14.940   8.588 -0.1300 -0.0070 -0.0407
  522loPI   C2B 8350  17.163  15.170   8.323  0.3240  0.3359  0.0337
  522loPI   C3B 8351  17.051  15.299   7.888 -0.3082  0.1388 -0.1213
  522loPI   C4B 8352  17.070  15.099   7.465 -0.2897  0.2257 -0.0178
  523loPI    C1 8353   1.282   9.963  10.197  0.1615 -0.0815 -0.1757
  523loPI    C2 8354   1.153   9.610  10.333 -0.2277  0.0423 -0.2104
  523loPI    C3 8355   1.016   9.949  10.494  0.1776  0.1824 -0.1463
  523loPI   PO4 8356   1.267   9.901   9.882  0.0515  0.0698 -0.1067
  523loPI   GL1 8357   1.490   9.797   9.475  0.3857  0.0384  0.0027
  523loPI   GL2 8358   1.408   9.412   9.556  0.1790  0.0460  0.3219
  523loPI   C1A 8359   1.585   9.767   9.060 -0.0020  0.1565  0.3378
  523loPI   C2A 8360   1.484   9.499   8.641  0.1071 -0.1736  0.2690
  523loPI   C3A 8361   1.407   9.421   8.220  0.0645 -0.2261 -0.3747
  523loPI   C4A 8362   1.288   9.638   7.909 -0.1386  0.2120  0.0863
  523loPI   C5A 8363   1.042   9.744   7.756 -0.3389 -0.1490 -0.4758
  523loPI   C6A 8364   0.836  10.078   7.577  0.3687  0.1722  0.0100
  523loPI   C1B 8365   1.332   9.366   9.149  0.0643  0.2049  0.2524
  523loPI   C2B 8366   1.046   9.307   8.798  0.2050 -0.1662  0.2033
  523loPI   C3B 8367   0.902   9.396   8.413  0.2168  0.0475  0.3040
  523loPI   C4B 8368   0.930   9.298   8.014 -0.1374 -0.1799 -0.3935
  524loPI    C1 8369   0.241  18.932   9.714  0.1223 -0.0028 -0.0823
  524loPI    C2 8370  -0.010  18.809  10.000  0.0675 -0.0648 -0.1566
  524loPI    C3 8371   0.184  19.156  10.041 -0.0915  0.0226 -0.1351
  524loPI   PO4 8372   0.063  18.899   9.462 -0.0566 -0.0251 -0.2876
  524loPI   GL1 8373  -0.022  18.939   8.998 -0.3679 -0.1385 -0.2378
  524loPI   GL2 8374   0.257  18.757   8.973  0.0521 -0.2642  0.0757
  524loPI   C1A 8375  -0.164  18.729   8.602 -0.0798  0.0710 -0.0081
  524loPI   C2A 8376  -0.018  18.484   8.356  0.0922  0.3981 -0.1252
  524loPI   C3A 8377   0.192  18.201   7.957 -0.0299  0.1513 -0.3519
  524loPI   C4A 8378   0.174  18.081   7.493 -0.2006  0.0333  0.1073
  524loPI   C5A 8379   0.580  18.049   7.314  0.1087  0.1294 -0.4509
  524loPI   C6A 8380   0.997  17.829   7.041 -0.0570  0.0844 -0.0564
  524loPI   C1B 8381   0.392  18.822   8.570 -0.1009 -0.0508  0.0685
  524loPI   C2B 8382   0.438  18.609   8.172  0.0095  0.1263 -0.4855
  524loPI   C3B 8383   0.761  18.576   7.818 -0.2915 -0.4451  0.0474
  524loPI   C4B 8384   0.522  18.433   7.600  0.2941  0.0503 -0.1447
  525loPI    C1 8385   1.255   0.828   9.561 -0.0524  0.0086 -0.0688
  525loPI    C2 8386   1.166   1.202   9.452  0.0240  0.1128  0.2173
  525loPI    C3 8387   1.159   1.100   9.838  0.1143 -0.1530  0.1509
  525loPI   PO4 8388   1.222   0.730   9.309 -0.3670 -0.0410 -0.0466
  525loPI   GL1 8389   1.508   0.812   8.910 -0.3602 -0.2045  0.1398
  525loPI   GL2 8390   1.198   0.567   8.871 -0.0260  0.2864 -0.2933
  525loPI   C1A 8391   1.510   0.594   8.502  0.0039 -0.1398 -0.2162
  525loPI   C2A 8392   1.524   0.485   8.121  0.1335 -0.0679 -0.1989
  525loPI   C3A 8393   1.677   0.516   7.777 -0.1257 -0.0732 -0.4960
  525loPI   C4A 8394   1.858   0.521   7.375  0.1829  0.0760 -0.0245
  525loPI   C5A 8395   1.825   0.616   6.935 -0.1236 -0.1725  0.1326
  525loPI   C6A 8396   1.762   0.415   6.604  0.0503 -0.0503  0.0068
  525loPI   C1B 8397   0.909   0.810   8.549  0.1441 -0.4371  0.1647
  525loPI   C2B 8398   1.080   0.797   8.077 -0.2225 -0.0856  0.3139
  525loPI   C3B 8399   1.206   0.757   7.653 -0.0427  0.0046  0.0322
  525loPI   C4B 8400   1.363   0.593   7.224 -0.0660 -0.2093  0.2179
  526loPI    C1 8401  18.028   2.266   9.755  0.0407 -0.0374  0.0647
  526loPI    C2 8402  18.401   2.404   9.795  0.0076  0.0512  0.0736
  526loPI    C3 8403  18.248   2.157  10.070  0.1173 -0.1196 -0.0166
  526loPI   PO4 8404  18.032   2.089   9.491 -0.1257 -0.1668 -0.0497
  526loPI   GL1 8405  17.871   2.194   9.040 -0.3739 -0.0404 -0.1054
  526loPI   GL2 8406  17.865   1.803   8.939  0.0538  0.0402  0.0401
  526loPI   C1A 8407  17.687   2.466   8.657  0.3018 -0.0118 -0.0701
  526loPI   C2A 8408  17.491   2.368   8.286 -0.0593  0.0790  0.1454
  526loPI   C3A 8409  17.366   2.291   7.767  0.4548 -0.0456 -0.0848
  526loPI   C4A 8410  17.091   2.356   7.359 -0.0924  0.5266 -0.2207
  526loPI   C5A 8411  16.739   2.225   7.052  0.1578  0.0288  0.3129
  526loPI   C6A 8412  16.397   2.008   6.904 -0.2710 -0.1747  0.1553
  526loPI   C1B 8413  18.150   1.920   8.537  0.0555  0.0420  0.2902
  526loPI   C2B 8414  18.028   2.105   8.162 -0.1594  0.1165 -0.0039
  526loPI   C3B 8415  17.845   2.219   7.778 -0.2558 -0.0899  0.0351
  526loPI   C4B 8416  17.683   2.617   7.810  0.2414  0.3581  0.0936
  527loPI    C1 8417  10.380  18.237   9.887 -0.2026  0.1893 -0.1380
  527loPI    C2 8418  10.180  18.542  10.052 -0.1773  0.1204  0.0212
  527loPI    C3 8419  10.413  18.308  10.279 -0.2635 -0.0703 -0.0840
  527loPI   PO4 8420  10.486  18.292   9.665 -0.0390  0.0984 -0.0523
  527loPI   GL1 8421  10.726  18.492   9.444 -0.2322  0.0140  0.1822
  527loPI   GL2 8422  10.982  18.344   9.301  0.4326  0.3928  0.3838
  527loPI   C1A 8423  10.563  18.734   9.163 -0.3561 -0.1756 -0.3208
  527loPI   C2A 8424  10.650  18.706   8.748  0.0594 -0.0924  0.0029
  527loPI   C3A 8425  10.636  18.608   8.390  0.1821  0.1580  0.2604
  527loPI   C4A 8426  10.802  18.442   7.974  0.2019  0.1147  0.3216
  527loPI   C5A 8427  10.594  18.571   7.533  0.4524 -0.0151  0.1258
  527loPI   C6A 8428  10.337  18.326   7.319 -0.0629 -0.0708  0.0157
  527loPI   C1B 8429  11.042  18.422   8.852 -0.0465 -0.2890  0.0358
  527loPI   C2B 8430  11.072  18.300   8.350  0.0803 -0.1764  0.1099
  527loPI   C3B 8431  11.337  18.231   8.016 -0.2961  0.0112 -0.1652
  527loPI   C4B 8432  11.485  18.302   7.602  0.1104 -0.0634 -0.0149
  528loPI    C1 8433   5.864  11.528  10.201  0.0608 -0.1880 -0.0217
  528loPI    C2 8434   5.545  11.521  10.442  0.3927  0.0326  0.4395
  528loPI    C3 8435   5.830  11.243  10.479  0.2587 -0.1685  0.0241
  528loPI   PO4 8436   5.801  11.541   9.941  0.0004  0.1042 -0.0609
  528loPI   GL1 8437   6.009  11.666   9.546 -0.0262 -0.0082 -0.0300
  528loPI   GL2 8438   6.252  11.659   9.434  0.0676 -0.3973  0.2107
  528loPI   C1A 8439   5.855  11.975   9.391  0.0545 -0.0747 -0.0829
  528loPI   C2A 8440   5.776  12.182   9.026  0.1575  0.1440 -0.2664
  528loPI   C3A 8441   5.839  12.417   8.652  0.0291  0.0489 -0.1354
  528loPI   C4A 8442   5.835  12.573   8.196 -0.1111  0.0347  0.0768
  528loPI   C5A 8443   5.778  12.771   7.713 -0.1194  0.1966  0.1635
  528loPI   C6A 8444   6.006  12.763   7.314 -0.2999 -0.3993  0.0840
  528loPI   C1B 8445   6.159  11.879   8.981 -0.0781 -0.0954 -0.3454
  528loPI   C2B 8446   6.146  11.976   8.634 -0.0539 -0.2429  0.0696
  528loPI   C3B 8447   6.081  12.021   8.192  0.0750  0.1709  0.0989
  528loPI   C4B 8448   6.023  12.179   7.881 -0.2138 -0.0639 -0.0145
  529loPI    C1 8449  15.890   4.430   9.509  0.0549 -0.1233  0.0546
  529loPI    C2 8450  16.008   4.209   9.821  0.1651 -0.0172  0.0886
  529loPI    C3 8451  15.633   4.348   9.805  0.1568 -0.0296  0.1700
  529loPI   PO4 8452  16.041   4.587   9.509  0.4901  0.0365 -0.0224
  529loPI   GL1 8453  16.097   4.921   9.150 -0.0550 -0.2860 -0.1316
  529loPI   GL2 8454  15.861   5.083   9.412  0.0359 -0.1121  0.0151
  529loPI   C1A 8455  16.465   5.044   8.823  0.0478 -0.0308 -0.1515
  529loPI   C2A 8456  16.265   5.165   8.489 -0.1719  0.1610 -0.1930
  529loPI   C3A 8457  16.386   5.370   8.094  0.4050 -0.2312 -0.3006
  529loPI   C4A 8458  16.488   5.593   7.815  0.0009 -0.0606 -0.0442
  529loPI   C5A 8459  16.633   5.975   7.551  0.0372  0.2276 -0.1175
  529loPI   C6A 8460  17.045   6.094   7.574 -0.1097 -0.1818 -0.2699
  529loPI   C1B 8461  15.649   4.868   9.040 -0.1846 -0.0663  0.2900
  529loPI   C2B 8462  15.423   4.848   8.604  0.4065 -0.1492 -0.4442
  529loPI   C3B 8463  15.488   4.564   8.380 -0.0687 -0.0873  0.0283
  529loPI   C4B 8464  15.414   4.164   8.170 -0.1101  0.1544 -0.0706
  530loPI    C1 8465  16.427  10.725   9.597 -0.0686 -0.0773 -0.1083
  530loPI    C2 8466  16.616  10.691   9.948 -0.0659 -0.2530 -0.1258
  530loPI    C3 8467  16.220  10.751   9.939 -0.0162  0.1047 -0.0893
  530loPI   PO4 8468  16.426  10.369   9.443  0.4339  0.1755 -0.2044
  530loPI   GL1 8469  16.497  10.345   8.948 -0.3637  0.4858 -0.0072
  530loPI   GL2 8470  16.687  10.599   9.097  0.1049  0.0695  0.2265
  530loPI   C1A 8471  16.410  10.304   8.474  0.0234 -0.1541  0.1528
  530loPI   C2A 8472  16.383  10.568   8.115 -0.0657 -0.3728  0.0290
  530loPI   C3A 8473  16.248  10.615   7.807 -0.1226  0.1195  0.1417
  530loPI   C4A 8474  16.311  10.597   7.494 -0.0041  0.4702  0.4473
  530loPI   C5A 8475  16.640  10.477   7.253  0.1226 -0.0387  0.0815
  530loPI   C6A 8476  16.727  10.355   6.774  0.2819  0.1513  0.0346
  530loPI   C1B 8477  16.534  10.808   8.739  0.0465  0.3836 -0.1035
  530loPI   C2B 8478  16.559  11.082   8.424  0.2733  0.1104  0.0800
  530loPI   C3B 8479  16.799  11.300   8.199  0.2282 -0.0373 -0.2805
  530loPI   C4B 8480  16.886  11.330   7.673  0.1792 -0.1793 -0.2260
  531loPI    C1 8481   4.625   0.021   9.606  0.1860  0.1497 -0.1283
  531loPI    C2 8482   4.558  -0.207   9.927 -0.3667  0.2469 -0.1641
  531loPI    C3 8483   4.822   0.092   9.946  0.0677 -0.1349  0.0030
  531loPI   PO4 8484   4.461  -0.043   9.457 -0.2378 -0.4576  0.1644
  531loPI   GL1 8485   4.360  -0.188   9.044  0.0371  0.0197  0.2863
  531loPI   GL2 8486   4.307   0.189   8.998 -0.1672 -0.1201  0.1227
  531loPI   C1A 8487   4.239  -0.185   8.586  0.4078 -0.1581 -0.2021
  531loPI   C2A 8488   4.259  -0.069   8.173 -0.0083 -0.2439  0.3620
  531loPI   C3A 8489   4.483  -0.156   7.755 -0.0027  0.0085  0.2763
  531loPI   C4A 8490   4.504  -0.146   7.263 -0.2104 -0.0887  0.2217
  531loPI   C5A 8491   4.743   0.094   6.906  0.2693  0.1446 -0.0828
  531loPI   C6A 8492   4.782   0.513   6.686 -0.0458 -0.0029  0.0392
  531loPI   C1B 8493   4.256   0.352   8.662 -0.1949  0.0426  0.0806
  531loPI   C2B 8494   4.246   0.454   8.229 -0.0699  0.3244 -0.1064
  531loPI   C3B 8495   4.098   0.500   7.868 -0.1670  0.1973  0.0352
  531loPI   C4B 8496   3.912   0.430   7.434 -0.0324 -0.0439 -0.3048
  532loPI    C1 8497  19.187  13.716   9.581  0.1185 -0.2487 -0.1263
  532loPI    C2 8498  18.836  13.687   9.772  0.0487  0.1293 -0.1901
  532loPI    C3 8499  19.145  13.871   9.947  0.1366  0.0314 -0.2408
  532loPI   PO4 8500  19.154  13.779   9.376 -0.2645  0.3348  0.0926
  532loPI   GL1 8501  18.929  13.543   8.962 -0.1441 -0.0619 -0.1572
  532loPI   GL2 8502  19.051  13.922   8.898 -0.2663  0.2592  0.0121
  532loPI   C1A 8503  18.788  13.717   8.500 -0.1359  0.0371  0.0004
  532loPI   C2A 8504  18.717  13.581   8.028 -0.0101 -0.0981 -0.0885
  532loPI   C3A 8505  18.652  13.512   7.635 -0.1769  0.0157  0.2448
  532loPI   C4A 8506  18.652  13.510   7.161 -0.3201  0.0568  0.0845
  532loPI   C5A 8507  18.633  13.451   6.768 -0.0086 -0.1681  0.2243
  532loPI   C6A 8508  18.890  13.560   6.408  0.0479  0.2878 -0.0377
  532loPI   C1B 8509  19.216  14.099   8.509  0.4842 -0.0012 -0.2731
  532loPI   C2B 8510  19.265  14.049   8.107 -0.0758  0.3681 -0.0458
  532loPI   C3B 8511  19.353  14.044   7.696  0.0117 -0.0229 -0.2738
  532loPI   C4B 8512  19.033  13.765   7.446 -0.4531  0.0925 -0.4314
  533loPI    C1 8513   8.015   8.706   9.625 -0.0745  0.4644 -0.0678
  533loPI    C2 8514   7.778   8.979   9.797 -0.1287  0.1510  0.3718
  533loPI    C3 8515   7.836   8.624   9.974  0.1516 -0.0256 -0.0582
  533loPI   PO4 8516   7.897   8.646   9.389  0.1646  0.0918  0.1280
  533loPI   GL1 8517   7.799   8.559   8.924  0.1847  0.0476  0.0411
  533loPI   GL2 8518   8.110   8.555   8.906 -0.0710  0.0795 -0.0555
  533loPI   C1A 8519   7.744   8.514   8.490 -0.2607  0.0167 -0.3770
  533loPI   C2A 8520   7.726   8.509   8.043  0.3583 -0.0375  0.2697
  533loPI   C3A 8521   7.565   8.355   7.557  0.0819 -0.4838  0.2120
  533loPI   C4A 8522   7.331   8.465   7.210 -0.0887  0.1217 -0.0512
  533loPI   C5A 8523   7.194   8.457   6.763 -0.2035 -0.1394 -0.0986
  533loPI   C6A 8524   7.054   8.217   6.383 -0.2090  0.0972  0.1334
  533loPI   C1B 8525   8.196   8.822   8.542 -0.3761 -0.2399  0.1918
  533loPI   C2B 8526   8.250   8.999   8.091 -0.2594 -0.2523 -0.0767
  533loPI   C3B 8527   8.242   8.920   7.584 -0.0525 -0.0529  0.2828
  533loPI   C4B 8528   8.013   9.088   7.261  0.2331 -0.1602  0.4027
  534loPI    C1 8529  14.321  16.651   9.609 -0.0370 -0.0245 -0.2126
  534loPI    C2 8530  14.599  16.364   9.629  0.1282  0.1450 -0.0266
  534loPI    C3 8531  14.362  16.436   9.943  0.0179  0.1448 -0.1090
  534loPI   PO4 8532  14.221  16.597   9.365 -0.1205  0.0751  0.1256
  534loPI   GL1 8533  14.387  16.652   8.951  0.5580 -0.2307  0.0183
  534loPI   GL2 8534  14.725  16.529   8.992  0.0894 -0.1504 -0.1075
  534loPI   C1A 8535  14.482  16.616   8.445  0.0918 -0.0585  0.0888
  534loPI   C2A 8536  14.354  16.363   8.146  0.3297 -0.6207  0.0498
  534loPI   C3A 8537  13.952  16.333   7.864 -0.1842  0.4563 -0.2252
  534loPI   C4A 8538  13.558  16.154   7.590 -0.1119 -0.1176 -0.2130
  534loPI   C5A 8539  13.371  16.408   7.356  0.1337 -0.0132 -0.0691
  534loPI   C6A 8540  13.198  16.786   7.384 -0.0252  0.0449 -0.2600
  534loPI   C1B 8541  14.682  16.254   8.719 -0.1387  0.1643  0.1280
  534loPI   C2B 8542  14.760  16.116   8.320  0.2012 -0.1556  0.0573
  534loPI   C3B 8543  15.143  15.912   8.054 -0.1661  0.1421 -0.1729
  534loPI   C4B 8544  15.480  15.693   8.362  0.1165  0.1299 -0.0361
  535loPI    C1 8545  15.055  13.515   9.750 -0.0927  0.3344  0.1003
  535loPI    C2 8546  15.206  13.742   9.457 -0.0856  0.0135 -0.1507
  535loPI    C3 8547  15.422  13.670   9.786  0.0173  0.1482 -0.1877
  535loPI   PO4 8548  14.867  13.414   9.514 -0.1457 -0.0602  0.2898
  535loPI   GL1 8549  14.777  13.541   9.195  0.0848  0.1121 -0.1846
  535loPI   GL2 8550  14.498  13.750   9.059  0.5837 -0.3166  0.0893
  535loPI   C1A 8551  14.956  13.760   8.777 -0.0135  0.1118  0.0288
  535loPI   C2A 8552  14.994  13.840   8.337 -0.2365 -0.2832  0.3527
  535loPI   C3A 8553  15.078  13.867   7.978 -0.0591 -0.1010 -0.3653
  535loPI   C4A 8554  15.218  13.819   7.558 -0.1661  0.1175  0.0508
  535loPI   C5A 8555  15.082  14.081   7.191 -0.1233  0.0118 -0.1089
  535loPI   C6A 8556  14.794  14.265   6.834 -0.1183  0.0640 -0.1947
  535loPI   C1B 8557  14.436  13.770   8.655  0.0978  0.1154 -0.0793
  535loPI   C2B 8558  14.505  13.683   8.271 -0.1230 -0.0333 -0.0319
  535loPI   C3B 8559  14.615  13.797   7.868  0.1128 -0.4140  0.0867
  535loPI   C4B 8560  14.457  13.691   7.410 -0.0187 -0.1259 -0.1672
  536loPI    C1 8561   0.661  19.188   9.453 -0.1157 -0.2024  0.0703
  536loPI    C2 8562   0.613  19.376   9.803 -0.0086  0.0282 -0.0370
  536loPI    C3 8563   0.773  19.010   9.793 -0.1568 -0.0439  0.1678
  536loPI   PO4 8564   0.489  19.132   9.262 -0.0173 -0.3885 -0.1519
  536loPI   GL1 8565   0.465  19.268   8.890 -0.0705  0.0968 -0.2663
  536loPI   GL2 8566   0.159  19.406   8.997  0.1272 -0.5074  0.1057
  536loPI   C1A 8567   0.462  19.343   8.452  0.0544 -0.1334 -0.2698
  536loPI   C2A 8568   0.393  19.382   7.985  0.1993 -0.0047  0.1076
  536loPI   C3A 8569   0.288  19.366   7.575 -0.0381 -0.0770  0.1247
  536loPI   C4A 8570   0.360  19.329   7.181 -0.3572  0.3233  0.1889
  536loPI   C5A 8571  -0.012  19.283   6.966 -0.2222 -0.1217  0.3714
  536loPI   C6A 8572  -0.241  19.623   6.843 -0.1400  0.1920  0.0008
  536loPI   C1B 8573   0.042  19.195   8.621 -0.0005  0.2079  0.1091
  536loPI   C2B 8574   0.167  19.023   8.196 -0.0554  0.5106  0.0077
  536loPI   C3B 8575   0.288  18.859   7.783  0.0034 -0.0995  0.0711
  536loPI   C4B 8576   0.045  18.585   7.671 -0.1374 -0.0004  0.0974
  537loPI    C1 8577   5.533   2.244   9.641 -0.3393 -0.2151 -0.0184
  537loPI    C2 8578   5.708   2.386   9.311 -0.0445  0.0104  0.2280
  537loPI    C3 8579   5.734   1.997   9.400 -0.1647 -0.0598 -0.0350
  537loPI   PO4 8580   5.306   2.537   9.616  0.1195  0.2410 -0.1686
  537loPI   GL1 8581   5.204   2.376   9.201 -0.1551  0.1303  0.1696
  537loPI   GL2 8582   5.252   2.073   9.284 -0.0924 -0.2882  0.0092
  537loPI   C1A 8583   5.107   2.274   8.671 -0.0317 -0.0330 -0.1361
  537loPI   C2A 8584   5.094   2.219   8.270 -0.1241 -0.0369 -0.0557
  537loPI   C3A 8585   5.245   2.178   7.810  0.0254 -0.1321  0.0677
  537loPI   C4A 8586   5.249   2.289   7.410 -0.0234  0.0483 -0.1921
  537loPI   C5A 8587   5.309   2.757   7.341  0.0835  0.0372  0.0451
  537loPI   C6A 8588   5.656   3.087   7.059  0.3681 -0.0132 -0.1337
  537loPI   C1B 8589   5.495   2.058   8.973  0.2786 -0.2240 -0.4899
  537loPI   C2B 8590   5.565   2.172   8.496  0.0962  0.1378 -0.0105
  537loPI   C3B 8591   5.763   2.084   8.095 -0.0000 -0.0699 -0.2190
  537loPI   C4B 8592   5.955   1.915   7.873  0.3234  0.1106 -0.0155
  538loPI    C1 8593   6.117   2.479   9.874  0.1132 -0.0470  0.0326
  538loPI    C2 8594   5.912   2.136   9.902 -0.2073  0.1320 -0.0661
  538loPI    C3 8595   6.267   2.172  10.083 -0.1725 -0.2478 -0.0498
  538loPI   PO4 8596   6.073   2.499   9.641 -0.0443  0.0273 -0.1707
  538loPI   GL1 8597   6.171   2.811   9.319  0.0532 -0.2432 -0.0255
  538loPI   GL2 8598   6.227   2.520   9.181 -0.1020 -0.1925  0.1934
  538loPI   C1A 8599   6.262   2.855   8.859 -0.0151  0.1465 -0.2485
  538loPI   C2A 8600   6.302   2.998   8.443 -0.2319 -0.0793  0.0639
  538loPI   C3A 8601   6.593   3.107   8.014  0.2358 -0.1237 -0.1633
  538loPI   C4A 8602   6.905   3.384   7.726  0.3397 -0.3204 -0.0049
  538loPI   C5A 8603   7.131   3.664   7.454  0.2487  0.0009  0.4049
  538loPI   C6A 8604   7.373   3.526   7.118  0.0420  0.5633 -0.0948
  538loPI   C1B 8605   5.972   2.469   8.927 -0.2022 -0.0087 -0.2870
  538loPI   C2B 8606   5.936   2.558   8.543 -0.0252 -0.4038  0.2041
  538loPI   C3B 8607   6.012   2.508   8.194  0.1419  0.0782  0.3267
  538loPI   C4B 8608   6.035   2.379   7.701  0.2607  0.1220  0.2630
  539loPI    C1 8609  18.921  16.455   9.477  0.0502 -0.4382  0.1367
  539loPI    C2 8610  18.914  16.541   9.868 -0.2348  0.1149  0.0207
  539loPI    C3 8611  19.169  16.732   9.625 -0.1482 -0.1332 -0.0870
  539loPI   PO4 8612  18.741  16.561   9.344  0.2568 -0.0819  0.1096
  539loPI   GL1 8613  18.489  16.382   9.093 -0.2348  0.0056 -0.0815
  539loPI   GL2 8614  18.754  16.223   9.010  0.1933  0.0148  0.1462
  539loPI   C1A 8615  18.369  16.361   8.707  0.0943  0.0056 -0.0533
  539loPI   C2A 8616  18.411  16.311   8.185  0.2526 -0.1691  0.1296
  539loPI   C3A 8617  18.670  16.271   7.948  0.1156  0.0228 -0.2870
  539loPI   C4A 8618  18.735  16.263   7.553  0.2105  0.3459  0.1162
  539loPI   C5A 8619  19.159  16.192   7.232 -0.1093  0.2320  0.0540
  539loPI   C6A 8620  19.584  16.202   7.130  0.1580 -0.0118 -0.0151
  539loPI   C1B 8621  18.657  15.923   8.714 -0.0110 -0.0998 -0.0453
  539loPI   C2B 8622  18.783  15.876   8.230  0.0316  0.1521 -0.1212
  539loPI   C3B 8623  18.939  15.833   7.892  0.2932  0.1748 -0.2758
  539loPI   C4B 8624  18.820  15.666   7.542  0.0554 -0.0573 -0.0418
  540loPI    C1 8625   3.150  10.151   9.905 -0.0122 -0.0929  0.1874
  540loPI    C2 8626   3.221  10.449  10.162  0.1057  0.1889 -0.1617
  540loPI    C3 8627   2.978  10.148  10.266  0.0844  0.3391  0.2423
  540loPI   PO4 8628   3.122  10.193   9.702  0.1939 -0.2130  0.0119
  540loPI   GL1 8629   3.079  10.083   9.264  0.0471 -0.3486  0.1615
  540loPI   GL2 8630   2.794  10.082   9.342 -0.3257 -0.3706 -0.0362
  540loPI   C1A 8631   3.291  10.212   8.861  0.3512 -0.0948  0.2394
  540loPI   C2A 8632   3.455  10.428   8.484  0.0100 -0.0488  0.0893
  540loPI   C3A 8633   3.672  10.442   8.070 -0.1879 -0.1041 -0.0055
  540loPI   C4A 8634   3.661  10.474   7.573  0.0209  0.1320 -0.0866
  540loPI   C5A 8635   4.007  10.265   7.275 -0.1286  0.0276 -0.0639
  540loPI   C6A 8636   4.328  10.195   7.403 -0.0372 -0.0079 -0.0288
  540loPI   C1B 8637   2.739  10.134   8.868  0.0995 -0.0177  0.0739
  540loPI   C2B 8638   2.930  10.165   8.445  0.0759  0.1797 -0.0416
  540loPI   C3B 8639   3.087  10.110   8.131  0.2162 -0.1103 -0.0687
  540loPI   C4B 8640   3.387  10.138   7.790 -0.1687 -0.2002 -0.2159
  541POPI    C1 8641   1.193  13.955   9.593  0.1165 -0.1785 -0.1001
  541POPI    C2 8642   1.259  13.870   9.979 -0.0243 -0.0333 -0.0429
  541POPI    C3 8643   1.108  14.226   9.875  0.1168 -0.0296 -0.2420
  541POPI   PO4 8644   1.019  13.753   9.534 -0.0740  0.2921  0.1104
  541POPI   GL1 8645   0.837  13.587   9.204 -0.3600 -0.1990  0.1032
  541POPI   GL2 8646   0.611  13.375   9.092  0.0382 -0.2064  0.1158
  541POPI   C1A 8647   0.914  13.720   8.884 -0.0864 -0.0213  0.0545
  541POPI   D2A 8648   0.735  13.749   8.489  0.1732 -0.3921 -0.2166
  541POPI   C3A 8649   1.070  13.855   8.062  0.2652  0.0030 -0.1438
  541POPI   C4A 8650   1.537  13.942   8.022  0.0498  0.3385 -0.0547
  541POPI   C1B 8651   0.460  13.409   8.688  0.1414  0.3150 -0.1126
  541POPI   C2B 8652   0.368  13.353   8.323  0.1203  0.1380  0.2064
  541POPI   C3B 8653   0.309  13.246   7.920  0.1161 -0.1467  0.0940
  541POPI   C4B 8654   0.462  13.079   7.450 -0.0434 -0.1015  0.0345
  542POPI    C1 8655   6.334   8.817   9.568 -0.2559 -0.0150  0.1458
  542POPI    C2 8656   6.592   8.534   9.684 -0.0869 -0.0097 -0.2034
  542POPI    C3 8657   6.536   8.859   9.910  0.1356 -0.0600 -0.0740
  542POPI   PO4 8658   6.415   8.879   9.279 -0.1458 -0.2305  0.1407
  542POPI   GL1 8659   6.322   9.050   8.913 -0.1132  0.3419 -0.0641
  542POPI   GL2 8660   6.583   9.271   8.978  0.3100 -0.1587  0.1678
  542POPI   C1A 8661   6.015   9.304   8.732  0.0356  0.1122 -0.0567
  542POPI   D2A 8662   6.141   9.593   8.493 -0.0333  0.2252 -0.0159
  542POPI   C3A 8663   6.118   9.969   8.686  0.1593  0.1752  0.0138
  542POPI   C4A 8664   6.377  10.237   8.741 -0.0630  0.1237  0.1157
  542POPI   C1B 8665   6.588   9.273   8.513  0.0913 -0.0168 -0.1320
  542POPI   C2B 8666   6.701   9.351   8.056 -0.2308 -0.0755 -0.3993
  542POPI   C3B 8667   6.913   9.518   7.704  0.0497  0.0398 -0.1298
  542POPI   C4B 8668   6.971   9.842   7.394  0.1404 -0.0205  0.3454
  543POPI    C1 8669  11.757  14.830   9.789  0.0491 -0.2234 -0.3352
  543POPI    C2 8670  12.137  14.891   9.899 -0.1277  0.2045  0.0724
  543POPI    C3 8671  11.906  14.641  10.109 -0.1119  0.0496 -0.0931
  543POPI   PO4 8672  11.795  14.782   9.529  0.1560  0.0425  0.3007
  543POPI   GL1 8673  12.053  14.848   9.164 -0.1072 -0.3916  0.2560
  543POPI   GL2 8674  11.861  15.056   8.984 -0.1691  0.3164 -0.1289
  543POPI   C1A 8675  11.993  14.520   8.911  0.0348 -0.2074 -0.1119
  543POPI   D2A 8676  12.305  14.168   8.900 -0.1817 -0.1498 -0.0647
  543POPI   C3A 8677  12.526  13.924   8.579  0.1489  0.2165 -0.2185
  543POPI   C4A 8678  12.659  13.922   8.088 -0.1065  0.2273  0.2717
  543POPI   C1B 8679  11.640  14.983   8.707 -0.3921 -0.0367  0.1198
  543POPI   C2B 8680  11.672  15.181   8.276  0.1493 -0.2372  0.2589
  543POPI   C3B 8681  12.016  15.244   7.982  0.0793  0.0350  0.2066
  543POPI   C4B 8682  12.016  15.156   7.620 -0.0198  0.0669 -0.1503
  544POPI    C1 8683   7.677  17.052  10.071  0.1332  0.0969  0.0256
  544POPI    C2 8684   7.359  16.880  10.242  0.0602 -0.0415 -0.2431
  544POPI    C3 8685   7.448  17.261  10.324 -0.0434 -0.0688  0.0055
  544POPI   PO4 8686   7.641  16.871   9.796 -0.0809  0.0891  0.0519
  544POPI   GL1 8687   7.642  16.712   9.475 -0.0869 -0.3515  0.2670
  544POPI   GL2 8688   7.959  16.951   9.217 -0.1057 -0.0755  0.2698
  544POPI   C1A 8689   7.498  16.738   9.084 -0.4018 -0.2083  0.1019
  544POPI   D2A 8690   7.414  16.644   8.632  0.1460  0.0367  0.0273
  544POPI   C3A 8691   7.344  16.828   8.284 -0.0813  0.1856  0.5705
  544POPI   C4A 8692   7.435  17.064   7.928  0.0582 -0.0082  0.0961
  544POPI   C1B 8693   7.914  16.778   8.749 -0.2157  0.2945 -0.1197
  544POPI   C2B 8694   7.843  16.827   8.308  0.0785  0.4192 -0.3056
  544POPI   C3B 8695   7.730  16.613   7.932  0.1798 -0.3843 -0.2266
  544POPI   C4B 8696   7.763  16.606   7.478  0.2300  0.0280  0.2459
  545POPI    C1 8697   8.333  11.515   9.865  0.0400 -0.1099  0.1120
  545POPI    C2 8698   8.060  11.600   9.584  0.0856 -0.3094  0.0053
  545POPI    C3 8699   8.009  11.730   9.959  0.2030  0.2721 -0.1697
  545POPI   PO4 8700   8.427  11.237   9.847  0.0947  0.1420  0.0311
  545POPI   GL1 8701   8.453  10.967   9.422  0.1531 -0.0740 -0.2740
  545POPI   GL2 8702   8.260  11.177   9.360  0.0127 -0.1811  0.1570
  545POPI   C1A 8703   8.644  11.182   9.033  0.0326  0.0535  0.2800
  545POPI   D2A 8704   9.022  11.433   9.044 -0.0542 -0.2902 -0.1354
  545POPI   C3A 8705   9.059  11.561   8.611 -0.1787 -0.1525  0.2191
  545POPI   C4A 8706   9.319  11.677   8.278 -0.0548  0.2816 -0.2080
  545POPI   C1B 8707   7.967  11.357   9.100  0.1029  0.3508 -0.0499
  545POPI   C2B 8708   7.863  11.334   8.645 -0.1665  0.2264 -0.2090
  545POPI   C3B 8709   7.724  11.423   8.229 -0.2601  0.1355 -0.2132
  545POPI   C4B 8710   7.579  11.564   7.892  0.5082 -0.0631 -0.2894
  546POPI    C1 8711  13.392   8.000   9.642  0.3423  0.2250  0.1444
  546POPI    C2 8712  13.333   8.288   9.914 -0.0179  0.0930  0.2111
  546POPI    C3 8713  13.283   7.904  10.015 -0.0724  0.0377 -0.0185
  546POPI   PO4 8714  13.511   8.203   9.452 -0.2048  0.0758  0.2102
  546POPI   GL1 8715  13.663   8.175   9.098 -0.0636  0.0840 -0.0311
  546POPI   GL2 8716  13.685   7.819   9.174  0.0179 -0.0629  0.1423
  546POPI   C1A 8717  13.672   8.460   8.715 -0.1493  0.1875  0.3366
  546POPI   D2A 8718  13.452   8.604   8.302 -0.4662 -0.0722 -0.0285
  546POPI   C3A 8719  13.372   8.242   8.007 -0.2511  0.0862 -0.0302
  546POPI   C4A 8720  13.264   8.084   7.587  0.2814  0.0670  0.0817
  546POPI   C1B 8721  13.662   7.839   8.728 -0.0104 -0.0856  0.0673
  546POPI   C2B 8722  13.584   7.883   8.289  0.1004 -0.1752  0.0051
  546POPI   C3B 8723  13.511   7.708   7.782  0.1263  0.0056  0.5309
  546POPI   C4B 8724  13.339   7.605   7.386  0.8654  0.2737 -0.1495
  547POPI    C1 8725   5.354  13.667  10.163 -0.2097 -0.0739 -0.1253
  547POPI    C2 8726   5.544  13.483  10.464 -0.3191 -0.1558 -0.1055
  547POPI    C3 8727   5.151  13.555  10.490 -0.2901  0.0197 -0.1428
  547POPI   PO4 8728   5.628  13.805  10.076 -0.2302 -0.1542  0.1275
  547POPI   GL1 8729   6.008  13.985   9.891 -0.1412 -0.1096 -0.2459
  547POPI   GL2 8730   5.875  14.092   9.729  0.0810 -0.1639 -0.2090
  547POPI   C1A 8731   6.136  13.920   9.401  0.0433  0.0266 -0.0331
  547POPI   D2A 8732   6.141  13.656   9.028 -0.0234 -0.2020 -0.0074
  547POPI   C3A 8733   5.956  13.727   8.626  0.2264  0.2199  0.0074
  547POPI   C4A 8734   5.564  13.646   8.458  0.1866  0.1652  0.0091
  547POPI   C1B 8735   5.685  14.197   9.265  0.0712 -0.2707  0.0491
  547POPI   C2B 8736   5.653  14.138   8.816 -0.0028  0.0061  0.3579
  547POPI   C3B 8737   5.721  14.184   8.426 -0.2389  0.1635 -0.3945
  547POPI   C4B 8738   5.809  14.086   7.997  0.1797  0.1480  0.2723
  548POPI    C1 8739   3.031   1.101   9.673 -0.0488  0.0140 -0.0629
  548POPI    C2 8740   2.919   1.307   9.349 -0.3464  0.0095  0.0342
  548POPI    C3 8741   2.974   1.496   9.697 -0.1316 -0.0019  0.0077
  548POPI   PO4 8742   2.970   0.900   9.602 -0.0968  0.0998  0.1159
  548POPI   GL1 8743   2.866   0.872   9.099  0.1196 -0.2195  0.0446
  548POPI   GL2 8744   3.149   0.900   9.104  0.1803 -0.1683  0.0440
  548POPI   C1A 8745   2.725   0.931   8.738 -0.2072  0.0545 -0.1156
  548POPI   D2A 8746   2.954   0.759   8.314  0.1098 -0.0922 -0.0279
  548POPI   C3A 8747   2.907   0.933   7.820  0.0152 -0.0634 -0.0216
  548POPI   C4A 8748   2.598   1.057   7.585  0.0610  0.1191 -0.3508
  548POPI   C1B 8749   3.259   0.539   8.853  0.2572 -0.0804 -0.1751
  548POPI   C2B 8750   3.250   0.330   8.478 -0.2100 -0.2072 -0.2563
  548POPI   C3B 8751   3.193   0.375   8.044  0.1463 -0.4456  0.1398
  548POPI   C4B 8752   3.261   0.401   7.575  0.1579  0.0121 -0.1043
  549POPI    C1 8753  10.514   9.266   9.983  0.1362  0.1119 -0.1637
  549POPI    C2 8754  10.553   9.615  10.175 -0.0653 -0.0724  0.2233
  549POPI    C3 8755  10.667   9.275  10.352 -0.1490 -0.2367 -0.0314
  549POPI   PO4 8756  10.456   9.312   9.700 -0.0200  0.0143 -0.3903
  549POPI   GL1 8757  10.099   9.365   9.506  0.0563  0.1014  0.0688
  549POPI   GL2 8758   9.883   9.452   9.278  0.1089 -0.1309 -0.1456
  549POPI   C1A 8759  10.015   9.030   9.234 -0.1369  0.2055  0.0814
  549POPI   D2A 8760  10.008   8.639   9.077  0.1101 -0.0772 -0.1060
  549POPI   C3A 8761  10.165   8.569   8.698  0.0971 -0.1432 -0.1052
  549POPI   C4A 8762   9.973   8.593   8.318  0.1922  0.0033  0.1994
  549POPI   C1B 8763  10.059   9.561   8.896  0.1938 -0.0471 -0.0379
  549POPI   C2B 8764  10.227   9.506   8.432 -0.1208 -0.0361 -0.0959
  549POPI   C3B 8765  10.382   9.580   7.959  0.0276 -0.1346 -0.5675
  549POPI   C4B 8766  10.505   9.397   7.555  0.0418 -0.5476 -0.3043
  550POPI    C1 8767  13.365   2.795   9.716 -0.1031  0.0259  0.0152
  550POPI    C2 8768  13.535   2.606  10.025  0.1372  0.0282 -0.1129
  550POPI    C3 8769  13.761   2.816   9.770 -0.0489 -0.0369 -0.3347
  550POPI   PO4 8770  13.205   2.612   9.616 -0.2070  0.0013  0.2865
  550POPI   GL1 8771  13.011   2.674   9.179 -0.0944  0.2391  0.1056
  550POPI   GL2 8772  13.004   3.006   9.171 -0.2291 -0.2590  0.2816
  550POPI   C1A 8773  12.896   2.792   8.721 -0.3010 -0.1614 -0.2869
  550POPI   D2A 8774  12.502   2.801   8.460  0.0246  0.0099  0.0731
  550POPI   C3A 8775  12.267   2.868   8.120  0.0338 -0.0155  0.2273
  550POPI   C4A 8776  12.241   2.961   7.579 -0.0242  0.2364 -0.0334
  550POPI   C1B 8777  12.761   3.262   8.854 -0.0777  0.0658 -0.4070
  550POPI   C2B 8778  12.617   3.350   8.550  0.0180 -0.4596  0.2237
  550POPI   C3B 8779  12.461   3.304   8.266  0.3696  0.2292 -0.0100
  550POPI   C4B 8780  12.586   3.352   7.804 -0.0013  0.0233 -0.1416
  551POPI    C1 8781  15.534  12.860   9.828  0.0169 -0.0017 -0.0461
  551POPI    C2 8782  15.820  12.742  10.082 -0.0800  0.0215  0.0750
  551POPI    C3 8783  15.675  13.114  10.103 -0.3033 -0.0701  0.1867
  551POPI   PO4 8784  15.570  12.820   9.619  0.0343 -0.2586  0.1922
  551POPI   GL1 8785  15.602  12.478   9.265 -0.2059 -0.0074 -0.0143
  551POPI   GL2 8786  15.763  12.168   9.333  0.3479 -0.1167 -0.0484
  551POPI   C1A 8787  15.418  12.334   8.839 -0.1729 -0.1182  0.0358
  551POPI   D2A 8788  15.658  12.059   8.597 -0.0149  0.1116  0.3550
  551POPI   C3A 8789  15.494  11.904   8.238 -0.1057 -0.0815  0.1793
  551POPI   C4A 8790  15.300  11.757   7.927 -0.0473 -0.2259  0.1673
  551POPI   C1B 8791  16.082  12.269   8.982 -0.0433  0.0657 -0.0488
  551POPI   C2B 8792  16.162  12.344   8.495 -0.2482 -0.1996  0.0183
  551POPI   C3B 8793  16.236  12.560   8.155 -0.2043 -0.2251 -0.1767
  551POPI   C4B 8794  16.284  12.776   7.796 -0.0807  0.0269  0.2982
  552POPI    C1 8795  12.861  12.280   9.591 -0.1195  0.2371 -0.1062
  552POPI    C2 8796  12.682  12.294   9.948  0.1903  0.1537  0.0563
  552POPI    C3 8797  12.976  12.030   9.882  0.2538  0.2865 -0.2054
  552POPI   PO4 8798  12.619  12.355   9.395 -0.0654  0.1658 -0.2090
  552POPI   GL1 8799  12.477  12.128   9.027 -0.0897  0.0686 -0.1558
  552POPI   GL2 8800  12.116  12.169   9.117 -0.2180  0.3951 -0.2064
  552POPI   C1A 8801  12.634  12.013   8.584 -0.2921  0.1140  0.1575
  552POPI   D2A 8802  12.835  11.835   8.319 -0.0624  0.0319 -0.1662
  552POPI   C3A 8803  12.751  11.789   7.867 -0.4433 -0.2415 -0.0331
  552POPI   C4A 8804  12.320  11.699   7.720 -0.0095 -0.4998  0.0220
  552POPI   C1B 8805  12.125  12.130   8.653 -0.3988  0.3287  0.0498
  552POPI   C2B 8806  12.231  12.018   8.232 -0.0953 -0.3891  0.1242
  552POPI   C3B 8807  12.413  12.164   7.733  0.0451 -0.0973  0.0412
  552POPI   C4B 8808  12.575  11.945   7.315 -0.1576 -0.0734 -0.2753
  553POPI    C1 8809  18.713   8.821   9.861  0.0446  0.1895  0.0963
  553POPI    C2 8810  19.050   8.817  10.078 -0.0870  0.2203  0.3042
  553POPI    C3 8811  18.823   9.146  10.067 -0.2606  0.1057  0.4009
  553POPI   PO4 8812  18.824   8.654   9.635 -0.3423 -0.2227 -0.0853
  553POPI   GL1 8813  18.750   8.425   9.242  0.2058  0.1395  0.0503
  553POPI   GL2 8814  18.674   8.694   9.081  0.2479 -0.0287 -0.0214
  553POPI   C1A 8815  19.034   8.399   8.872  0.0709 -0.1884  0.2074
  553POPI   D2A 8816  19.317   8.576   8.653 -0.2416 -0.1228 -0.3371
  553POPI   C3A 8817  19.223   8.819   8.284  0.0506 -0.0461  0.2070
  553POPI   C4A 8818  18.755   8.998   8.123 -0.2233 -0.0702  0.1732
  553POPI   C1B 8819  18.370   8.924   8.735 -0.1226  0.0621 -0.3836
  553POPI   C2B 8820  18.189   9.037   8.293  0.1444  0.0735  0.1087
  553POPI   C3B 8821  18.142   9.315   7.851  0.1869 -0.0322 -0.1116
  553POPI   C4B 8822  17.843   9.283   7.476  0.1905 -0.0645  0.2426
  554POPI    C1 8823  16.691   6.572   9.592  0.0642 -0.1216 -0.0716
  554POPI    C2 8824  16.683   6.440   9.970 -0.0937  0.1044  0.0064
  554POPI    C3 8825  17.009   6.623   9.829 -0.0446  0.0441  0.0410
  554POPI   PO4 8826  16.589   6.458   9.488  0.2348 -0.0510 -0.1012
  554POPI   GL1 8827  16.285   6.549   9.087  0.0413  0.2736  0.0524
  554POPI   GL2 8828  16.138   6.494   9.280 -0.0673 -0.2137  0.1224
  554POPI   C1A 8829  16.118   6.533   8.644 -0.3678  0.0736  0.2000
  554POPI   D2A 8830  16.163   6.497   8.234  0.3355 -0.4352 -0.1167
  554POPI   C3A 8831  15.822   6.746   7.902  0.0927  0.0296 -0.0703
  554POPI   C4A 8832  15.747   6.753   7.386  0.0275 -0.0718  0.2342
  554POPI   C1B 8833  16.215   6.068   8.881 -0.2532  0.2739  0.1226
  554POPI   C2B 8834  16.451   6.147   8.529  0.0509 -0.1046 -0.1918
  554POPI   C3B 8835  16.608   6.006   8.139  0.0854 -0.0990  0.0318
  554POPI   C4B 8836  17.094   6.207   8.029 -0.1856 -0.2859 -0.2935
  555POPI    C1 8837   9.680   4.195  10.254 -0.3526 -0.0956  0.0690
  555POPI    C2 8838   9.444   3.933  10.444 -0.0683 -0.3382  0.0960
  555POPI    C3 8839   9.841   3.882  10.444 -0.0146  0.0430  0.0187
  555POPI   PO4 8840   9.580   4.289   9.951  0.0568  0.1497 -0.1076
  555POPI   GL1 8841   9.736   4.487   9.628  0.1447  0.2938  0.2664
  555POPI   GL2 8842  10.043   4.344   9.619  0.0175  0.1037  0.0163
  555POPI   C1A 8843   9.831   4.529   9.190  0.0460  0.0319 -0.1741
  555POPI   D2A 8844   9.863   4.611   8.800  0.2527  0.1650  0.0474
  555POPI   C3A 8845  10.141   4.644   8.493 -0.0838 -0.0957 -0.0858
  555POPI   C4A 8846  10.439   4.800   8.108  0.1591  0.3516  0.1964
  555POPI   C1B 8847  10.080   4.079   9.322  0.0106 -0.1264  0.2001
  555POPI   C2B 8848   9.842   4.075   8.947  0.0414 -0.2168 -0.1309
  555POPI   C3B 8849   9.584   4.189   8.645  0.2610 -0.2045 -0.0953
  555POPI   C4B 8850   9.406   3.952   8.298 -0.1503  0.1476  0.3290
  556POPI    C1 8851  14.634   8.533   9.602 -0.2072 -0.1074 -0.1392
  556POPI    C2 8852  14.305   8.432   9.805  0.0236 -0.1233  0.2353
  556POPI    C3 8853  14.485   8.781   9.877 -0.0228 -0.0238 -0.1136
  556POPI   PO4 8854  14.678   8.258   9.421 -0.1370  0.0912 -0.0708
  556POPI   GL1 8855  14.469   7.860   9.236  0.0010  0.1183 -0.3322
  556POPI   GL2 8856  14.743   8.002   8.989  0.3202 -0.3137 -0.0450
  556POPI   C1A 8857  14.258   7.687   8.910  0.0553 -0.2071  0.1939
  556POPI   D2A 8858  14.011   7.679   8.438  0.1784 -0.2704  0.0256
  556POPI   C3A 8859  13.946   7.822   7.951 -0.4119 -0.2262  0.1482
  556POPI   C4A 8860  14.099   7.950   7.605  0.0363 -0.0067  0.0764
  556POPI   C1B 8861  14.868   8.119   8.502 -0.1050 -0.1339 -0.1572
  556POPI   C2B 8862  14.782   7.944   8.053 -0.1145 -0.1713 -0.1780
  556POPI   C3B 8863  14.647   7.907   7.640 -0.2597 -0.0352 -0.1832
  556POPI   C4B 8864  14.490   7.559   7.460 -0.0954 -0.1966 -0.1184
  557POPI    C1 8865  18.107   4.342   9.361 -0.1191 -0.1881 -0.1189
  557POPI    C2 8866  18.258   4.250   9.719 -0.2280 -0.1955 -0.0745
  557POPI    C3 8867  18.428   4.537   9.498 -0.2004 -0.1453  0.0117
  557POPI   PO4 8868  17.916   4.342   9.351 -0.2077  0.0556  0.4544
  557POPI   GL1 8869  17.838   4.096   8.926 -0.0494  0.1726  0.1792
  557POPI   GL2 8870  17.810   3.800   8.899  0.1618  0.0997 -0.0245
  557POPI   C1A 8871  18.055   4.077   8.498 -0.0154 -0.4245  0.1766
  557POPI   D2A 8872  18.124   4.191   8.105 -0.0869  0.3722 -0.0616
  557POPI   C3A 8873  17.840   4.162   7.728 -0.2968  0.2503  0.0828
  557POPI   C4A 8874  17.618   3.781   7.527 -0.0832 -0.0455 -0.1629
  557POPI   C1B 8875  18.011   3.595   8.563 -0.1726 -0.1388 -0.1238
  557POPI   C2B 8876  18.173   3.625   8.280  0.2020  0.1422 -0.3036
  557POPI   C3B 8877  18.111   3.693   7.796  0.1079 -0.3475 -0.2171
  557POPI   C4B 8878  18.106   3.481   7.376  0.1252  0.0431 -0.1171
  558POPI    C1 8879  14.000  11.637   9.961 -0.2525 -0.2373  0.1592
  558POPI    C2 8880  14.153  11.317  10.146 -0.0508 -0.1431  0.1571
  558POPI    C3 8881  14.119  11.665  10.341  0.0336 -0.0801  0.0608
  558POPI   PO4 8882  14.112  11.571   9.689  0.1137 -0.0042 -0.0565
  558POPI   GL1 8883  14.170  11.422   9.308 -0.0350 -0.3425  0.1315
  558POPI   GL2 8884  14.481  11.376   9.333 -0.3146 -0.1523 -0.1046
  558POPI   C1A 8885  14.263  11.622   8.929  0.2140 -0.2263 -0.2964
  558POPI   D2A 8886  14.449  11.886   8.585 -0.1533  0.1252  0.1022
  558POPI   C3A 8887  14.124  12.221   8.239 -0.3081  0.1360  0.3569
  558POPI   C4A 8888  13.982  12.374   7.800 -0.1576 -0.0444  0.0080
  558POPI   C1B 8889  14.833  11.508   9.036 -0.0416 -0.0984  0.4294
  558POPI   C2B 8890  14.977  11.613   8.670 -0.0758 -0.1915 -0.0823
  558POPI   C3B 8891  14.838  11.810   8.241  0.2820  0.0829 -0.0240
  558POPI   C4B 8892  14.756  11.844   7.804 -0.0852 -0.1415 -0.1360
  559POPI    C1 8893   2.078  10.045   9.994  0.1095 -0.1412 -0.0150
  559POPI    C2 8894   2.022   9.847  10.336  0.1457  0.0078  0.0783
  559POPI    C3 8895   1.778  10.147  10.237  0.0641 -0.1102 -0.0836
  559POPI   PO4 8896   2.019   9.894   9.786 -0.0153  0.1611  0.1218
  559POPI   GL1 8897   1.906  10.050   9.310 -0.0507 -0.2693 -0.0662
  559POPI   GL2 8898   1.961  10.371   9.417  0.3059 -0.0411 -0.3156
  559POPI   C1A 8899   1.935  10.129   8.958 -0.4130 -0.3199  0.0809
  559POPI   D2A 8900   1.930  10.391   8.688  0.1062  0.1410  0.1920
  559POPI   C3A 8901   2.037  10.305   8.320  0.0945  0.3927  0.3298
  559POPI   C4A 8902   2.277  10.296   7.978  0.3298 -0.2353 -0.0784
  559POPI   C1B 8903   2.350  10.391   9.091  0.1689  0.1809 -0.1932
  559POPI   C2B 8904   2.467  10.526   8.699 -0.3008 -0.0289  0.2548
  559POPI   C3B 8905   2.586  10.484   8.294 -0.2007 -0.2532 -0.0865
  559POPI   C4B 8906   2.745  10.567   8.004  0.0513  0.0762  0.0960
  560POPI    C1 8907   3.939  13.390  10.382 -0.2595 -0.0468 -0.1297
  560POPI    C2 8908   3.625  13.599  10.515 -0.1591 -0.0652  0.1412
  560POPI    C3 8909   3.671  13.216  10.623  0.0338 -0.0202  0.2244
  560POPI   PO4 8910   3.974  13.431  10.090 -0.0654 -0.1933 -0.1215
  560POPI   GL1 8911   4.229  13.388   9.603  0.1833 -0.0045  0.1018
  560POPI   GL2 8912   4.477  13.557   9.554 -0.0264  0.0925  0.2605
  560POPI   C1A 8913   4.244  13.033   9.432 -0.4215  0.3056 -0.2386
  560POPI   D2A 8914   4.543  12.885   9.150 -0.3648  0.0943  0.2448
  560POPI   C3A 8915   4.400  13.004   8.729  0.1002 -0.0588  0.5355
  560POPI   C4A 8916   4.369  12.844   8.308 -0.1547 -0.0358  0.3107
  560POPI   C1B 8917   4.405  13.549   9.071  0.1060  0.1714  0.1311
  560POPI   C2B 8918   4.183  13.506   8.647 -0.0532 -0.3491 -0.3242
  560POPI   C3B 8919   4.257  13.358   8.244 -0.3611  0.1083  0.1983
  560POPI   C4B 8920   4.356  13.156   7.902 -0.2255 -0.0436  0.0467
  561POPI    C1 8921   1.868   7.229   9.739  0.0636  0.0002  0.0450
  561POPI    C2 8922   2.034   7.199  10.101 -0.1119  0.0005  0.1266
  561POPI    C3 8923   1.636   7.193  10.063 -0.1010  0.2316 -0.0448
  561POPI   PO4 8924   1.935   7.346   9.638  0.2484 -0.1451  0.0177
  561POPI   GL1 8925   1.950   7.421   9.190  0.2297  0.1816  0.0065
  561POPI   GL2 8926   1.853   7.603   8.798  0.2004  0.0318  0.1391
  561POPI   C1A 8927   2.313   7.692   9.085 -0.2659 -0.1759  0.1343
  561POPI   D2A 8928   2.559   8.000   8.891  0.4644 -0.0627 -0.0499
  561POPI   C3A 8929   2.719   8.465   8.792  0.0249 -0.1646 -0.1344
  561POPI   C4A 8930   2.757   8.637   8.344 -0.0721  0.3108 -0.2689
  561POPI   C1B 8931   2.061   7.749   8.354 -0.0782  0.1786 -0.2072
  561POPI   C2B 8932   2.339   7.705   8.051 -0.0732  0.1161  0.2987
  561POPI   C3B 8933   2.398   7.594   7.621 -0.1335  0.0680 -0.0013
  561POPI   C4B 8934   2.423   7.302   7.258  0.4107  0.2278 -0.3189
  562POPI    C1 8935   8.660  16.718  10.146 -0.2204 -0.2398  0.6080
  562POPI    C2 8936   9.022  16.611  10.013 -0.2510  0.1830  0.1557
  562POPI    C3 8937   8.947  16.618  10.406  0.0827 -0.3531  0.2389
  562POPI   PO4 8938   8.487  16.566   9.879 -0.2540 -0.0064  0.0032
  562POPI   GL1 8939   8.452  16.659   9.456 -0.5600  0.0402 -0.0724
  562POPI   GL2 8940   8.512  17.083   9.356 -0.0888  0.1950  0.2077
  562POPI   C1A 8941   8.458  16.637   9.071 -0.5195 -0.2481 -0.2017
  562POPI   D2A 8942   8.405  16.435   8.778  0.3054  0.0108  0.1730
  562POPI   C3A 8943   8.309  16.567   8.447  0.0413  0.0556 -0.0878
  562POPI   C4A 8944   8.301  16.812   8.070 -0.2613 -0.2313 -0.0418
  562POPI   C1B 8945   8.347  17.060   8.891  0.1190 -0.0299  0.3262
  562POPI   C2B 8946   8.356  17.053   8.501 -0.4248  0.0183 -0.2181
  562POPI   C3B 8947   8.095  17.252   8.238  0.0974  0.0992 -0.0352
  562POPI   C4B 8948   7.947  17.150   7.875 -0.0133 -0.1733 -0.2867
  563POPI    C1 8949  10.816  15.602   9.965  0.0324 -0.0212  0.0683
  563POPI    C2 8950  10.693  15.961  10.091  0.1810  0.0713 -0.0461
  563POPI    C3 8951  10.772  15.673  10.356  0.1008  0.1356  0.0485
  563POPI   PO4 8952  10.847  15.717   9.619 -0.1210  0.1083 -0.2178
  563POPI   GL1 8953  10.627  15.750   9.241  0.0948 -0.0679 -0.0623
  563POPI   GL2 8954  10.620  15.349   9.151  0.0007  0.0942  0.2022
  563POPI   C1A 8955  10.960  15.644   8.949 -0.3890  0.0688  0.1756
  563POPI   D2A 8956  11.019  15.702   8.546 -0.1551 -0.0983  0.3529
  563POPI   C3A 8957  11.215  15.355   8.429 -0.1136  0.1313  0.0797
  563POPI   C4A 8958  11.224  15.178   7.967 -0.1982 -0.1568 -0.3426
  563POPI   C1B 8959  10.486  15.338   8.782 -0.2018 -0.2626 -0.0642
  563POPI   C2B 8960  10.503  15.494   8.466  0.2817  0.0604  0.1914
  563POPI   C3B 8961  10.757  15.458   8.039  0.1073 -0.2939  0.0847
  563POPI   C4B 8962  11.091  15.583   7.738 -0.1221 -0.0674  0.3890
  564POPI    C1 8963   6.863   6.644   9.855 -0.0179  0.0133 -0.2643
  564POPI    C2 8964   6.648   6.317   9.939 -0.1068  0.1359 -0.0034
  564POPI    C3 8965   6.474   6.678   9.945  0.0858  0.2280  0.1248
  564POPI   PO4 8966   7.027   6.498   9.673 -0.3267 -0.2684  0.1760
  564POPI   GL1 8967   6.994   6.438   9.306 -0.2400  0.1083  0.0422
  564POPI   GL2 8968   7.031   6.142   9.250 -0.0600  0.1913  0.2855
  564POPI   C1A 8969   7.168   6.531   8.893  0.1927 -0.0301 -0.1316
  564POPI   D2A 8970   7.325   6.416   8.484 -0.2434 -0.0667 -0.1672
  564POPI   C3A 8971   7.616   6.531   8.177  0.0156  0.2290  0.0235
  564POPI   C4A 8972   7.862   6.880   7.947  0.1683  0.2856 -0.2955
  564POPI   C1B 8973   6.816   6.133   8.779  0.2867  0.0860 -0.5248
  564POPI   C2B 8974   6.813   6.262   8.315 -0.2142  0.0064  0.3426
  564POPI   C3B 8975   7.085   6.329   7.878  0.1470  0.0110  0.2551
  564POPI   C4B 8976   6.976   6.546   7.524  0.2045  0.1843 -0.0024
  565POPI    C1 8977  10.033   5.192  10.351  0.1307  0.0415 -0.1614
  565POPI    C2 8978  10.105   5.292  10.731 -0.1587 -0.0421 -0.0814
  565POPI    C3 8979  10.021   5.576  10.462  0.1275  0.0249 -0.1041
  565POPI   PO4 8980  10.280   5.066  10.316 -0.1795  0.1357  0.4274
  565POPI   GL1 8981  10.363   4.841  10.048 -0.0700  0.0301  0.3748
  565POPI   GL2 8982  10.041   5.035   9.856  0.1033 -0.0020 -0.1756
  565POPI   C1A 8983  10.668   4.929   9.708  0.2158  0.1384 -0.3001
  565POPI   D2A 8984  10.946   5.169   9.443  0.0580 -0.0653  0.0545
  565POPI   C3A 8985  10.702   5.263   8.991  0.1251 -0.1224  0.0936
  565POPI   C4A 8986  10.558   5.305   8.596  0.0111  0.1788 -0.0798
  565POPI   C1B 8987  10.109   4.839   9.466  0.0087 -0.0993 -0.1902
  565POPI   C2B 8988  10.297   4.777   9.079 -0.1548 -0.0807  0.2099
  565POPI   C3B 8989  10.615   4.803   8.841 -0.0554  0.1338 -0.0385
  565POPI   C4B 8990  10.707   4.631   8.469  0.3347 -0.0186  0.1133
  566POPI    C1 8991   4.019  12.051  10.136  0.0046 -0.0526  0.1092
  566POPI    C2 8992   4.190  11.799  10.395  0.2211  0.2680  0.2858
  566POPI    C3 8993   4.080  12.164  10.514 -0.4841  0.1180  0.1434
  566POPI   PO4 8994   4.198  12.001   9.867 -0.2313  0.0723 -0.0348
  566POPI   GL1 8995   4.174  12.083   9.459 -0.0300  0.0779  0.0678
  566POPI   GL2 8996   4.526  11.939   9.524 -0.0040 -0.3673  0.2050
  566POPI   C1A 8997   4.055  12.030   9.076  0.1882  0.0201 -0.1572
  566POPI   D2A 8998   4.023  12.054   8.641  0.1329 -0.1352 -0.1134
  566POPI   C3A 8999   3.718  12.104   8.266 -0.1279 -0.1527 -0.0032
  566POPI   C4A 9000   3.324  12.174   8.184 -0.3594 -0.0107 -0.0727
  566POPI   C1B 9001   4.521  11.842   9.067  0.0364  0.3572 -0.0813
  566POPI   C2B 9002   4.509  11.921   8.565  0.2531  0.1913  0.0320
  566POPI   C3B 9003   4.467  11.867   8.082 -0.1023 -0.0357  0.0908
  566POPI   C4B 9004   4.363  11.617   7.699  0.0676 -0.1388  0.1745
  567POPI    C1 9005   4.613   3.367   9.547  0.3051  0.3246  0.0772
  567POPI    C2 9006   4.392   3.697   9.500 -0.0088  0.1669  0.3923
  567POPI    C3 9007   4.626   3.657   9.822 -0.1709 -0.0254  0.4882
  567POPI   PO4 9008   4.789   3.201   9.437  0.2265  0.0362  0.0341
  567POPI   GL1 9009   4.804   3.213   8.968 -0.3201 -0.0386  0.0699
  567POPI   GL2 9010   4.690   3.518   8.836 -0.0392  0.0609  0.0996
  567POPI   C1A 9011   5.215   3.199   8.687 -0.2801  0.0293 -0.1395
  567POPI   D2A 9012   5.359   3.102   8.270  0.0243  0.0072 -0.0483
  567POPI   C3A 9013   5.255   3.145   7.813  0.2032 -0.0836 -0.1724
  567POPI   C4A 9014   5.163   3.350   7.517  0.1844  0.1295  0.0623
  567POPI   C1B 9015   5.046   3.737   8.731 -0.3171  0.0436 -0.0268
  567POPI   C2B 9016   5.474   3.928   8.658 -0.1428 -0.0989  0.2167
  567POPI   C3B 9017   5.603   4.063   8.304  0.1577  0.0171 -0.1614
  567POPI   C4B 9018   5.628   4.154   7.837  0.0839 -0.0918 -0.0809
  568POPI    C1 9019   2.088   4.114   9.062 -0.0515 -0.2311  0.1605
  568POPI    C2 9020   2.151   3.888   9.385  0.1902  0.0988  0.3504
  568POPI    C3 9021   2.455   4.086   9.218  0.0862 -0.1420 -0.1398
  568POPI   PO4 9022   1.945   4.383   9.175 -0.1049  0.0046  0.1543
  568POPI   GL1 9023   1.785   4.585   8.920 -0.2934 -0.0855 -0.3048
  568POPI   GL2 9024   1.640   4.776   8.763  0.0818  0.4104 -0.5890
  568POPI   C1A 9025   1.994   4.488   8.532  0.0590 -0.4292 -0.1743
  568POPI   D2A 9026   2.148   4.098   8.576  0.0452 -0.1312 -0.3645
  568POPI   C3A 9027   2.341   3.968   8.385  0.0143 -0.0942 -0.1434
  568POPI   C4A 9028   2.528   3.644   8.039  0.1284  0.0328  0.0382
  568POPI   C1B 9029   1.486   4.755   8.289 -0.0421  0.0272 -0.4217
  568POPI   C2B 9030   1.278   4.752   7.944 -0.3606 -0.0096 -0.2712
  568POPI   C3B 9031   1.145   5.084   7.740 -0.2479  0.0948 -0.3015
  568POPI   C4B 9032   1.026   5.327   7.390 -0.1512  0.1058  0.0734
  569POPI    C1 9033   3.616   1.348   9.869  0.0581 -0.0372  0.0629
  569POPI    C2 9034   3.785   0.986   9.859  0.2822  0.0674  0.0003
  569POPI    C3 9035   3.548   1.087  10.165  0.3209 -0.0864  0.0822
  569POPI   PO4 9036   3.475   1.502   9.560 -0.0793 -0.2707 -0.1770
  569POPI   GL1 9037   3.456   1.718   9.130  0.3938  0.2552  0.0106
  569POPI   GL2 9038   3.352   1.385   9.063 -0.1591  0.0076 -0.2813
  569POPI   C1A 9039   3.872   1.743   8.927  0.0326  0.0543  0.0839
  569POPI   D2A 9040   3.960   1.555   8.558  0.2367 -0.2186 -0.2637
  569POPI   C3A 9041   4.140   1.495   8.158 -0.1070  0.3799  0.0289
  569POPI   C4A 9042   4.257   1.431   7.761  0.2233 -0.2042  0.2336
  569POPI   C1B 9043   3.400   1.204   8.733  0.0943 -0.3554 -0.2250
  569POPI   C2B 9044   3.416   0.910   8.479 -0.1201  0.0439 -0.1452
  569POPI   C3B 9045   3.434   0.869   7.912 -0.1273  0.2221  0.1759
  569POPI   C4B 9046   3.350   0.948   7.526  0.1793  0.2765  0.1513
  570POPI    C1 9047  13.577  17.530   9.598 -0.0301 -0.1217  0.1685
  570POPI    C2 9048  13.836  17.351   9.846 -0.1721 -0.0757  0.3522
  570POPI    C3 9049  13.451  17.389   9.951 -0.1928  0.1235  0.2110
  570POPI   PO4 9050  13.618  17.398   9.354 -0.2120 -0.0900  0.1215
  570POPI   GL1 9051  13.916  17.472   8.976 -0.0560  0.2618 -0.5326
  570POPI   GL2 9052  14.042  17.748   8.946 -0.0061 -0.0813 -0.0869
  570POPI   C1A 9053  13.573  17.875   8.780  0.0413  0.3726 -0.0546
  570POPI   D2A 9054  13.606  18.120   8.314  0.2755 -0.3650  0.1002
  570POPI   C3A 9055  13.520  18.124   7.844  0.3221  0.1195  0.3664
  570POPI   C4A 9056  13.345  18.128   7.383 -0.1665  0.0829  0.0328
  570POPI   C1B 9057  14.016  17.895   8.571 -0.1401 -0.0243  0.1608
  570POPI   C2B 9058  14.169  17.861   8.201  0.0818 -0.2757 -0.0077
  570POPI   C3B 9059  14.379  17.885   7.929 -0.0520  0.0224 -0.1259
  570POPI   C4B 9060  14.434  17.916   7.534  0.4621 -0.2063  0.2750
  571POPI    C1 9061  18.685  10.266   9.923 -0.0311  0.0770  0.0779
  571POPI    C2 9062  18.336  10.181  10.100 -0.1921  0.0372 -0.2514
  571POPI    C3 9063  18.572   9.885   9.970 -0.1193  0.0683 -0.1909
  571POPI   PO4 9064  18.673  10.475   9.747 -0.2853  0.0379 -0.1176
  571POPI   GL1 9065  18.850  10.528   9.341 -0.0495 -0.0976  0.0361
  571POPI   GL2 9066  18.847  10.817   9.236  0.1794 -0.3262 -0.1535
  571POPI   C1A 9067  18.842  10.432   8.945 -0.0303 -0.0677 -0.1046
  571POPI   D2A 9068  18.586  10.355   8.625  0.0201  0.0313  0.1584
  571POPI   C3A 9069  18.654  10.441   8.220 -0.0538 -0.0436 -0.2304
  571POPI   C4A 9070  18.844  10.442   7.749  0.1505 -0.4108 -0.0956
  571POPI   C1B 9071  18.831  11.089   8.934  0.4785  0.1092  0.0413
  571POPI   C2B 9072  19.149  11.179   8.758  0.2480 -0.0003 -0.0354
  571POPI   C3B 9073  19.176  11.248   8.290 -0.0804  0.3054 -0.1516
  571POPI   C4B 9074  19.182  11.303   7.905 -0.4099  0.0581  0.0797
  572POPI    C1 9075  14.462  11.190   9.818 -0.1432  0.1039  0.0078
  572POPI    C2 9076  14.835  11.274   9.702 -0.0894  0.0195  0.1185
  572POPI    C3 9077  14.603  11.563   9.852  0.0091  0.0262  0.2612
  572POPI   PO4 9078  14.440  10.935   9.566  0.4255 -0.3371 -0.2219
  572POPI   GL1 9079  14.280  10.847   9.156 -0.0075 -0.1406  0.3048
  572POPI   GL2 9080  14.231  10.494   9.212  0.3586  0.0550  0.0562
  572POPI   C1A 9081  14.118  11.127   8.830 -0.3284 -0.0052 -0.0103
  572POPI   D2A 9082  13.934  11.419   8.531 -0.1852 -0.3990 -0.0499
  572POPI   C3A 9083  14.106  11.644   8.170  0.2704 -0.3052  0.0153
  572POPI   C4A 9084  14.250  11.942   7.872 -0.0590 -0.0486 -0.0822
  572POPI   C1B 9085  14.143  10.217   8.920  0.3155  0.5979  0.3294
  572POPI   C2B 9086  14.204   9.882   8.504  0.2709  0.0148 -0.1433
  572POPI   C3B 9087  14.281   9.419   8.569  0.0418  0.1323  0.0619
  572POPI   C4B 9088  14.229   9.360   8.881 -0.3365 -0.0312  0.1278
  573POPI    C1 9089   0.558  11.880   9.832 -0.1794  0.1715  0.2103
  573POPI    C2 9090   0.308  11.753   9.547  0.0897  0.0977  0.0021
  573POPI    C3 9091   0.279  11.606   9.919 -0.0285 -0.0790 -0.0752
  573POPI   PO4 9092   0.776  11.802   9.780 -0.2028  0.1534  0.0963
  573POPI   GL1 9093   0.863  11.537   9.449 -0.0287  0.0725 -0.1356
  573POPI   GL2 9094   0.579  11.502   9.260 -0.4001  0.3467  0.0383
  573POPI   C1A 9095   1.002  11.560   9.016 -0.3650  0.1803  0.1626
  573POPI   D2A 9096   1.254  11.477   8.617  0.2830 -0.4421 -0.0456
  573POPI   C3A 9097   1.385  11.469   8.130 -0.0941 -0.0362  0.2396
  573POPI   C4A 9098   1.305  11.584   7.763 -0.1444  0.2318  0.3580
  573POPI   C1B 9099   0.618  11.536   8.824  0.2051 -0.4971 -0.3000
  573POPI   C2B 9100   0.739  11.521   8.427  0.0524 -0.1249  0.3892
  573POPI   C3B 9101   0.803  11.376   8.042 -0.3064 -0.1202  0.2207
  573POPI   C4B 9102   0.925  11.445   7.530  0.0446  0.0121  0.0163
  574DPPI    C1 9103   3.703  10.616   9.932  0.1347 -0.1837 -0.1622
  574DPPI    C2 9104   3.791  10.852  10.242 -0.0837 -0.1580 -0.1179
  574DPPI    C3 9105   3.727  10.461  10.300 -0.1111 -0.1557 -0.1324
  574DPPI   PO4 9106   3.902  10.656   9.755 -0.2945 -0.0944 -0.1940
  574DPPI   GL1 9107   3.956  10.434   9.225 -0.1482  0.2272 -0.3476
  574DPPI   GL2 9108   4.252  10.213   9.342 -0.0058 -0.0963  0.2315
  574DPPI   C1A 9109   4.042  10.482   8.767 -0.2759 -0.4564  0.1101
  574DPPI   C2A 9110   3.917  10.424   8.478 -0.1145 -0.1079  0.0596
  574DPPI   C3A 9111   4.220  10.639   8.141 -0.0723  0.1477 -0.1180
  574DPPI   C4A 9112   4.314  10.601   7.723  0.1098 -0.2638  0.2232
  574DPPI   C1B 9113   4.446  10.422   9.017 -0.5156 -0.0237  0.2219
  574DPPI   C2B 9114   4.465  10.441   8.537  0.2756  0.1223 -0.2522
  574DPPI   C3B 9115   4.613  10.331   8.142  0.0841  0.2583  0.2862
  574DPPI   C4B 9116   4.750  10.122   7.787 -0.4109  0.2509  0.1462
  575DPPI    C1 9117   9.117  16.095   9.939 -0.0363 -0.1502 -0.0098
  575DPPI    C2 9118   8.766  16.198  10.099  0.1284  0.1510  0.1674
  575DPPI    C3 9119   9.073  16.100  10.336  0.1815 -0.0587  0.0149
  575DPPI   PO4 9120   8.992  15.881   9.688 -0.3595 -0.1240 -0.4827
  575DPPI   GL1 9121   8.692  15.885   9.314  0.1501 -0.0562 -0.2507
  575DPPI   GL2 9122   8.865  16.101   9.154 -0.1554  0.2115 -0.3259
  575DPPI   C1A 9123   8.761  15.635   8.934  0.2282  0.1280 -0.0828
  575DPPI   C2A 9124   8.698  15.673   8.467 -0.1452 -0.2978  0.0654
  575DPPI   C3A 9125   8.564  15.615   8.066 -0.0539 -0.1603  0.0865
  575DPPI   C4A 9126   8.481  15.897   7.838  0.1378  0.2172 -0.3176
  575DPPI   C1B 9127   8.821  16.089   8.741  0.1642 -0.2131 -0.4136
  575DPPI   C2B 9128   8.742  16.235   8.352  0.2823 -0.1811 -0.0112
  575DPPI   C3B 9129   8.652  16.433   7.978 -0.2487  0.0176  0.2216
  575DPPI   C4B 9130   8.268  16.572   7.645  0.1084 -0.3763  0.0186
  576DPPI    C1 9131   2.217  13.675  10.042  0.0249 -0.4195  0.1837
  576DPPI    C2 9132   2.537  13.442   9.988  0.2331 -0.1683  0.3122
  576DPPI    C3 9133   2.542  13.726  10.270  0.0752  0.1515  0.0004
  576DPPI   PO4 9134   2.234  13.813   9.747 -0.3665 -0.0749  0.1823
  576DPPI   GL1 9135   2.084  13.829   9.341 -0.2393  0.1928  0.4160
  576DPPI   GL2 9136   1.873  13.933   9.089  0.1826  0.1881 -0.1078
  576DPPI   C1A 9137   2.519  13.928   9.058  0.2014 -0.0721  0.0514
  576DPPI   C2A 9138   2.648  13.863   8.631  0.0030 -0.2982  0.1397
  576DPPI   C3A 9139   2.779  13.682   8.296  0.1513  0.1924  0.3699
  576DPPI   C4A 9140   2.955  13.843   7.960  0.0379 -0.2314  0.0583
  576DPPI   C1B 9141   2.124  14.030   8.701 -0.1071 -0.0571  0.0689
  576DPPI   C2B 9142   2.017  13.989   8.201  0.0291 -0.3035 -0.1150
  576DPPI   C3B 9143   2.027  14.102   7.797  0.1500  0.1223  0.0047
  576DPPI   C4B 9144   2.042  14.161   7.338  0.1605  0.1303 -0.0498
  577DPPI    C1 9145  19.003  12.874   9.672 -0.0552 -0.1171  0.0974
  577DPPI    C2 9146  19.255  12.914   9.980  0.1507  0.0176 -0.0857
  577DPPI    C3 9147  18.950  13.169   9.937 -0.0439 -0.1693  0.1579
  577DPPI   PO4 9148  19.094  12.755   9.412  0.3801 -0.2597 -0.0887
  577DPPI   GL1 9149  19.039  12.679   9.011  0.1649  0.1221 -0.0105
  577DPPI   GL2 9150  19.007  13.038   9.005 -0.0775 -0.1367 -0.1228
  577DPPI   C1A 9151  19.116  12.681   8.542  0.0930  0.2801  0.1492
  577DPPI   C2A 9152  19.256  12.440   8.182 -0.0006  0.3104  0.1581
  577DPPI   C3A 9153  19.454  12.470   7.778 -0.2433  0.0906 -0.0950
  577DPPI   C4A 9154  19.425  12.298   7.338  0.0375 -0.0161  0.0558
  577DPPI   C1B 9155  18.792  13.138   8.657 -0.0931  0.0121  0.0973
  577DPPI   C2B 9156  18.998  13.048   8.261 -0.2084 -0.0914 -0.1874
  577DPPI   C3B 9157  19.449  12.907   8.191 -0.2367 -0.0461  0.6057
  577DPPI   C4B 9158  19.802  12.660   8.069 -0.0269 -0.1679 -0.0921
  578DPPI    C1 9159  16.121   3.423   9.752 -0.2255  0.1636 -0.1791
  578DPPI    C2 9160  15.821   3.688   9.739 -0.1567  0.2437 -0.1407
  578DPPI    C3 9161  16.132   3.749   9.983 -0.1961  0.0682 -0.0449
  578DPPI   PO4 9162  16.035   3.200   9.682 -0.1975 -0.1301  0.1592
  578DPPI   GL1 9163  16.076   3.071   9.270 -0.0233  0.2276 -0.3819
  578DPPI   GL2 9164  16.039   3.413   9.229 -0.0525  0.1713 -0.0782
  578DPPI   C1A 9165  16.238   3.014   8.843  0.5027  0.1154  0.1272
  578DPPI   C2A 9166  16.546   2.816   8.587 -0.1414  0.1830 -0.0513
  578DPPI   C3A 9167  16.746   2.954   8.212 -0.3066 -0.3120  0.0455
  578DPPI   C4A 9168  16.778   2.968   7.780 -0.1547 -0.2837 -0.0556
  578DPPI   C1B 9169  15.842   3.310   8.820  0.0613 -0.1322  0.0685
  578DPPI   C2B 9170  15.871   3.389   8.348 -0.0650  0.2315 -0.0506
  578DPPI   C3B 9171  15.883   3.367   7.919 -0.1036  0.2493 -0.1396
  578DPPI   C4B 9172  15.934   3.381   7.501 -0.2526  0.0746  0.2524
  579DPPI    C1 9173   6.880  18.420   9.759 -0.3879 -0.1465 -0.2013
  579DPPI    C2 9174   7.058  18.301  10.097  0.1625  0.1469 -0.3746
  579DPPI    C3 9175   6.746  18.552  10.112 -0.0248 -0.0966 -0.0783
  579DPPI   PO4 9176   7.031  18.495   9.636  0.1608  0.0320  0.0237
  579DPPI   GL1 9177   7.307  18.303   9.485 -0.0170  0.0205 -0.1924
  579DPPI   GL2 9178   7.597  18.203   9.490  0.1233 -0.4129 -0.3169
  579DPPI   C1A 9179   7.406  18.655   9.124 -0.0455  0.0495  0.2218
  579DPPI   C2A 9180   7.582  18.821   8.718  0.1428 -0.2236 -0.0488
  579DPPI   C3A 9181   7.889  18.952   8.359  0.0376  0.2620 -0.0463
  579DPPI   C4A 9182   7.901  18.926   7.886 -0.2039 -0.0100 -0.0006
  579DPPI   C1B 9183   7.872  18.470   9.260  0.0503  0.1854  0.2838
  579DPPI   C2B 9184   8.052  18.529   8.840 -0.1975  0.3693  0.1463
  579DPPI   C3B 9185   8.160  18.488   8.521  0.0670  0.0007 -0.0648
  579DPPI   C4B 9186   8.317  18.595   8.117  0.2290 -0.1145  0.2286
  580DPPI    C1 9187   2.931  14.524   9.781  0.1091  0.0899  0.0754
  580DPPI    C2 9188   2.812  14.461  10.157  0.0205 -0.3112 -0.0152
  580DPPI    C3 9189   3.167  14.629  10.086 -0.2173  0.3369  0.2492
  580DPPI   PO4 9190   2.640  14.583   9.669 -0.1528  0.0448  0.1736
  580DPPI   GL1 9191   2.530  14.490   9.295  0.1186  0.2006  0.2733
  580DPPI   GL2 9192   2.816  14.352   9.155 -0.2048 -0.5703  0.3307
  580DPPI   C1A 9193   2.532  14.745   8.932  0.1300 -0.0129  0.1454
  580DPPI   C2A 9194   2.698  14.721   8.499  0.0417  0.0774  0.3378
  580DPPI   C3A 9195   2.821  14.828   8.146 -0.2888  0.4472  0.2530
  580DPPI   C4A 9196   2.707  14.923   7.693  0.0395  0.4444 -0.2487
  580DPPI   C1B 9197   2.642  14.287   8.752  0.1060 -0.2577  0.1118
  580DPPI   C2B 9198   2.671  14.238   8.223  0.1619  0.0804 -0.2529
  580DPPI   C3B 9199   2.935  14.353   7.880  0.3165  0.0758 -0.0977
  580DPPI   C4B 9200   3.181  14.489   7.507  0.2339  0.0907 -0.0897
  581DPPI    C1 9201  11.536  13.230   9.601  0.0277 -0.0248  0.0187
  581DPPI    C2 9202  11.819  13.511   9.568 -0.0569  0.0583 -0.0037
  581DPPI    C3 9203  11.455  13.574   9.413 -0.1283  0.0065  0.1402
  581DPPI   PO4 9204  11.681  12.993   9.445 -0.2638  0.0023 -0.1635
  581DPPI   GL1 9205  11.901  12.977   9.116  0.0493  0.1427 -0.2201
  581DPPI   GL2 9206  11.816  13.336   9.031  0.1959  0.2366 -0.0880
  581DPPI   C1A 9207  11.959  13.028   8.646 -0.3328  0.0247 -0.1489
  581DPPI   C2A 9208  11.935  13.038   8.252 -0.1362  0.0741 -0.2337
  581DPPI   C3A 9209  11.952  13.058   7.776  0.1917 -0.0946 -0.3433
  581DPPI   C4A 9210  11.981  13.168   7.428  0.2993  0.1392 -0.2192
  581DPPI   C1B 9211  11.723  13.449   8.502  0.1874  0.3244  0.3184
  581DPPI   C2B 9212  11.556  13.478   7.994  0.0976 -0.1583 -0.0972
  581DPPI   C3B 9213  11.716  13.561   7.598  0.4202 -0.2396 -0.1255
  581DPPI   C4B 9214  11.626  13.585   7.149  0.2801 -0.0208  0.2443
  582DPPI    C1 9215  18.379   7.745   9.580  0.2493 -0.1296 -0.2909
  582DPPI    C2 9216  18.684   7.599   9.794 -0.0367 -0.2396  0.0494
  582DPPI    C3 9217  18.450   7.886   9.947 -0.1270 -0.1802 -0.1949
  582DPPI   PO4 9218  18.250   7.515   9.497  0.2215  0.4089 -0.0663
  582DPPI   GL1 9219  18.379   7.342   9.098 -0.2876 -0.1507 -0.2175
  582DPPI   GL2 9220  18.693   7.561   9.154 -0.0872  0.1595  0.1055
  582DPPI   C1A 9221  18.115   7.259   8.763  0.1041 -0.1393 -0.0814
  582DPPI   C2A 9222  17.676   7.130   8.736  0.1057 -0.2074 -0.1051
  582DPPI   C3A 9223  17.338   7.316   8.608 -0.0173 -0.2276  0.2022
  582DPPI   C4A 9224  17.043   7.377   8.630  0.0182  0.2268  0.1963
  582DPPI   C1B 9225  18.609   7.663   8.744  0.1176  0.1239  0.1007
  582DPPI   C2B 9226  18.813   7.728   8.310 -0.2950  0.0937  0.0537
  582DPPI   C3B 9227  18.721   7.735   7.846 -0.1805 -0.0429  0.1553
  582DPPI   C4B 9228  18.464   7.738   7.534  0.0648 -0.2723  0.1481
  583DPPI    C1 9229  18.137  14.889   9.795  0.2575 -0.1639  0.0987
  583DPPI    C2 9230  17.738  14.916   9.808  0.2507 -0.1886 -0.0356
  583DPPI    C3 9231  17.960  15.091  10.092  0.1452 -0.1647  0.0328
  583DPPI   PO4 9232  18.198  14.916   9.608  0.2029 -0.0951 -0.0659
  583DPPI   GL1 9233  18.250  14.786   9.233 -0.1154  0.0442  0.0070
  583DPPI   GL2 9234  18.261  14.517   9.180  0.0418  0.1060 -0.0794
  583DPPI   C1A 9235  18.249  14.951   8.722  0.0893 -0.1798 -0.0795
  583DPPI   C2A 9236  17.996  14.789   8.476 -0.0695  0.2349 -0.1361
  583DPPI   C3A 9237  17.967  14.765   8.092 -0.3699 -0.2592 -0.2799
  583DPPI   C4A 9238  17.847  14.748   7.795 -0.0658  0.1668  0.0178
  583DPPI   C1B 9239  18.313  14.435   8.776 -0.0633  0.1673 -0.0149
  583DPPI   C2B 9240  18.385  14.526   8.347  0.0376  0.2696 -0.0324
  583DPPI   C3B 9241  18.358  14.458   7.973  0.0294 -0.2192  0.2045
  583DPPI   C4B 9242  18.214  14.558   7.556  0.2250 -0.1435 -0.4044
  584DPPI    C1 9243   2.286   7.957   9.572 -0.0035 -0.2266 -0.0699
  584DPPI    C2 9244   2.674   7.887   9.506  0.0784  0.1287  0.0142
  584DPPI    C3 9245   2.530   7.877   9.879  0.0631  0.2604  0.0122
  584DPPI   PO4 9246   2.087   8.261   9.526  0.0367  0.1977  0.2164
  584DPPI   GL1 9247   2.093   8.619   9.369  0.1392  0.0714  0.2240
  584DPPI   GL2 9248   2.115   8.929   9.346  0.1143  0.1366  0.0467
  584DPPI   C1A 9249   1.800   8.679   9.012  0.0102 -0.0870 -0.3826
  584DPPI   C2A 9250   1.778   8.652   8.559  0.2112 -0.1136 -0.0450
  584DPPI   C3A 9251   1.530   8.588   8.191  0.2260 -0.0410  0.0893
  584DPPI   C4A 9252   1.339   8.381   7.860  0.0765  0.5083  0.0334
  584DPPI   C1B 9253   2.219   8.917   8.788 -0.0733 -0.3851 -0.0993
  584DPPI   C2B 9254   2.276   8.713   8.433  0.1251  0.0745  0.3409
  584DPPI   C3B 9255   2.439   8.653   7.987  0.0255  0.0278  0.3207
  584DPPI   C4B 9256   2.583   8.671   7.590 -0.0658 -0.1531  0.2833
  585DPPI    C1 9257   7.409  11.708   9.925  0.0212  0.0733  0.2138
  585DPPI    C2 9258   7.192  12.034   9.842 -0.0152 -0.0018  0.0080
  585DPPI    C3 9259   7.012  11.700   9.968  0.0147  0.0336  0.1466
  585DPPI   PO4 9260   7.562  11.608   9.760 -0.1307  0.0719 -0.1518
  585DPPI   GL1 9261   7.689  11.877   9.467 -0.2166 -0.0310 -0.0559
  585DPPI   GL2 9262   7.497  12.187   9.460 -0.1393 -0.0425  0.0640
  585DPPI   C1A 9263   7.824  11.859   9.018 -0.0419 -0.1668  0.0053
  585DPPI   C2A 9264   7.723  11.836   8.646  0.3824 -0.0838 -0.1223
  585DPPI   C3A 9265   7.542  11.885   8.242 -0.3027  0.0967 -0.0833
  585DPPI   C4A 9266   7.193  11.842   8.047  0.4344 -0.1097 -0.1188
  585DPPI   C1B 9267   7.244  12.389   9.261  0.0009  0.2468 -0.2174
  585DPPI   C2B 9268   7.208  12.555   8.869  0.1039  0.3361  0.1092
  585DPPI   C3B 9269   7.165  12.690   8.451 -0.0641  0.0315  0.0327
  585DPPI   C4B 9270   7.124  12.929   8.147 -0.0762  0.0634 -0.3317
  586DPPI    C1 9271  14.397  14.019   9.829  0.1365 -0.0526  0.0257
  586DPPI    C2 9272  14.444  14.370  10.016  0.1407  0.0001 -0.0735
  586DPPI    C3 9273  14.563  14.031  10.192  0.1792  0.0533  0.0032
  586DPPI   PO4 9274  14.125  14.056   9.645 -0.0399  0.0735 -0.3355
  586DPPI   GL1 9275  14.081  14.139   9.194 -0.2810  0.3552 -0.3927
  586DPPI   GL2 9276  14.057  13.884   9.193 -0.2456 -0.0980 -0.0369
  586DPPI   C1A 9277  14.170  14.169   8.850  0.1407 -0.2340  0.1375
  586DPPI   C2A 9278  14.237  14.213   8.460  0.1913  0.1734  0.1237
  586DPPI   C3A 9279  14.071  14.357   8.010  0.3022 -0.0925  0.1914
  586DPPI   C4A 9280  14.118  14.741   7.730  0.1934  0.2463 -0.2395
  586DPPI   C1B 9281  14.163  13.394   8.901  0.1340 -0.3409 -0.0133
  586DPPI   C2B 9282  14.250  13.224   8.520  0.2152  0.1600  0.0140
  586DPPI   C3B 9283  14.388  13.246   8.164  0.0634  0.1643  0.2724
  586DPPI   C4B 9284  14.409  13.337   7.784  0.2294 -0.0058  0.1463
  587DPPI    C1 9285  16.551  12.533   9.788 -0.1238 -0.2986 -0.1569
  587DPPI    C2 9286  16.286  12.518  10.087 -0.0681 -0.0619 -0.0937
  587DPPI    C3 9287  16.677  12.538  10.167 -0.0597  0.1435 -0.1787
  587DPPI   PO4 9288  16.563  12.830   9.652  0.1982  0.0549 -0.0026
  587DPPI   GL1 9289  16.149  13.046   9.457 -0.2010 -0.0070  0.3234
  587DPPI   GL2 9290  15.760  13.017   9.196 -0.0087 -0.1525 -0.1770
  587DPPI   C1A 9291  16.185  13.176   9.026 -0.1378 -0.1426 -0.1377
  587DPPI   C2A 9292  16.073  13.216   8.566  0.1162  0.0477  0.2717
  587DPPI   C3A 9293  16.110  13.253   8.110  0.1758  0.1619 -0.1517
  587DPPI   C4A 9294  15.940  13.268   7.755 -0.1251 -0.1578  0.0023
  587DPPI   C1B 9295  15.887  12.784   8.784  0.0174 -0.2388  0.2391
  587DPPI   C2B 9296  15.808  12.898   8.248 -0.0683  0.0610  0.4323
  587DPPI   C3B 9297  15.697  12.853   7.858  0.5053 -0.0339 -0.1437
  587DPPI   C4B 9298  15.589  12.825   7.444 -0.3298 -0.0419  0.1438
  588DPPI    C1 9299  10.750   2.510  10.628 -0.1909  0.0613 -0.1933
  588DPPI    C2 9300  10.972   2.762  10.845 -0.1593  0.0493 -0.2116
  588DPPI    C3 9301  10.590   2.697  10.944 -0.0154 -0.3174  0.1285
  588DPPI   PO4 9302  10.765   2.602  10.415 -0.1876  0.0363  0.3114
  588DPPI   GL1 9303  10.942   2.515  10.095  0.0303 -0.1545 -0.0439
  588DPPI   GL2 9304  11.124   2.291  10.037  0.1287  0.0175  0.1327
  588DPPI   C1A 9305  10.696   2.379   9.705 -0.1415  0.0479  0.0858
  588DPPI   C2A 9306  10.498   2.367   9.283 -0.2876 -0.0524 -0.1474
  588DPPI   C3A 9307  10.483   2.204   8.841 -0.1311  0.1861 -0.1587
  588DPPI   C4A 9308  10.731   2.080   8.503 -0.3264 -0.1856 -0.1181
  588DPPI   C1B 9309  11.167   2.354   9.623 -0.0105 -0.0915  0.3695
  588DPPI   C2B 9310  11.132   2.541   9.253  0.3478  0.1041 -0.1181
  588DPPI   C3B 9311  10.992   2.454   8.879  0.0448 -0.2043 -0.3847
  588DPPI   C4B 9312  10.964   2.545   8.377 -0.0828 -0.0582  0.0050
  589DPPI    C1 9313  17.270  17.116   9.722 -0.2065  0.1310  0.1533
  589DPPI    C2 9314  17.310  16.799   9.963  0.1737  0.2503  0.2557
  589DPPI    C3 9315  17.598  17.077   9.949  0.1631  0.2427 -0.3427
  589DPPI   PO4 9316  17.278  17.031   9.499  0.1517 -0.1599  0.2707
  589DPPI   GL1 9317  17.324  16.792   9.149  0.1451  0.2288  0.0796
  589DPPI   GL2 9318  17.489  16.667   9.099 -0.1509  0.1213 -0.0319
  589DPPI   C1A 9319  17.173  16.877   8.656 -0.3922 -0.1069  0.1391
  589DPPI   C2A 9320  17.272  16.946   8.282  0.0070  0.1650 -0.0974
  589DPPI   C3A 9321  17.137  16.917   7.844 -0.1272 -0.1863  0.0949
  589DPPI   C4A 9322  17.313  16.679   7.537  0.0587  0.1975 -0.1159
  589DPPI   C1B 9323  17.595  16.662   8.613  0.1962 -0.0858 -0.0097
  589DPPI   C2B 9324  17.713  16.674   8.141  0.1302  0.1921  0.3751
  589DPPI   C3B 9325  17.825  16.943   7.801  0.2930 -0.3397 -0.0407
  589DPPI   C4B 9326  17.581  17.063   7.433 -0.3133  0.0763 -0.1426
  590DPPI    C1 9327   1.989  11.242  10.286  0.1565  0.1657 -0.0938
  590DPPI    C2 9328   2.131  10.935  10.501 -0.1944  0.0212 -0.0627
  590DPPI    C3 9329   2.221  11.311  10.605 -0.0962 -0.0581  0.1440
  590DPPI   PO4 9330   2.011  11.184  10.048 -0.3756  0.3023 -0.0922
  590DPPI   GL1 9331   2.451  11.137   9.876  0.0109 -0.2185 -0.1453
  590DPPI   GL2 9332   2.271  10.845   9.661  0.0994 -0.0971  0.3292
  590DPPI   C1A 9333   2.423  11.364   9.450 -0.0071  0.1931  0.3727
  590DPPI   C2A 9334   2.628  11.478   9.052 -0.1553 -0.0817 -0.4015
  590DPPI   C3A 9335   2.670  11.471   8.603 -0.0478 -0.2064  0.2051
  590DPPI   C4A 9336   2.819  11.435   8.152  0.2153 -0.0300 -0.0716
  590DPPI   C1B 9337   2.075  10.842   9.284 -0.0064 -0.1664  0.1919
  590DPPI   C2B 9338   2.050  10.822   8.818  0.1114 -0.3128 -0.0914
  590DPPI   C3B 9339   2.096  10.765   8.380  0.1594  0.0230  0.0905
  590DPPI   C4B 9340   2.236  10.836   7.970 -0.1021  0.0282 -0.0316
  591DPPI    C1 9341   6.804   3.106  10.222  0.0653 -0.2335 -0.0037
  591DPPI    C2 9342   7.042   3.215  10.524 -0.0897 -0.0573  0.0572
  591DPPI    C3 9343   6.749   2.950  10.586 -0.0919 -0.0565  0.0499
  591DPPI   PO4 9344   6.954   3.072  10.003 -0.1246 -0.0129  0.1398
  591DPPI   GL1 9345   6.982   3.347   9.576  0.2586 -0.2303  0.1394
  591DPPI   GL2 9346   6.703   3.242   9.323  0.5049  0.0582 -0.2161
  591DPPI   C1A 9347   7.274   3.376   9.214 -0.1878 -0.0005  0.2269
  591DPPI   C2A 9348   7.728   3.305   9.080  0.4360  0.0275 -0.1500
  591DPPI   C3A 9349   8.108   3.237   8.912 -0.2925  0.0354 -0.0668
  591DPPI   C4A 9350   8.241   3.040   8.506 -0.3386 -0.2108  0.2359
  591DPPI   C1B 9351   6.712   3.264   8.908 -0.0687  0.0425  0.1195
  591DPPI   C2B 9352   6.704   3.282   8.490  0.1746  0.0172  0.1660
  591DPPI   C3B 9353   7.116   3.334   8.204  0.1142 -0.0230  0.4175
  591DPPI   C4B 9354   7.322   3.612   8.076 -0.3140 -0.2270  0.0748
  592DPPI    C1 9355  13.136  14.437   9.895 -0.0332 -0.1584 -0.1408
  592DPPI    C2 9356  12.897  14.167  10.068 -0.1595  0.1120  0.1165
  592DPPI    C3 9357  12.932  14.533  10.225 -0.0404  0.2691 -0.2635
  592DPPI   PO4 9358  13.167  14.445   9.644  0.4047  0.1031  0.0611
  592DPPI   GL1 9359  13.232  14.695   9.343  0.2727 -0.0832  0.2941
  592DPPI   GL2 9360  13.533  14.516   9.303  0.1272  0.0970  0.0114
  592DPPI   C1A 9361  13.202  14.462   8.937  0.1115 -0.1182 -0.0137
  592DPPI   C2A 9362  13.242  14.438   8.470  0.0861  0.1935  0.0006
  592DPPI   C3A 9363  13.582  14.549   8.089 -0.1166  0.1876 -0.2482
  592DPPI   C4A 9364  13.789  14.945   8.024  0.1689 -0.0640  0.6316
  592DPPI   C1B 9365  13.613  14.195   8.977 -0.2509 -0.1599 -0.4607
  592DPPI   C2B 9366  13.787  13.866   8.708  0.2317  0.0809 -0.1506
  592DPPI   C3B 9367  14.034  13.795   8.392  0.0244  0.0195 -0.0972
  592DPPI   C4B 9368  14.114  13.701   7.979 -0.1649  0.2745  0.2374
  593DPPI    C1 9369  12.027   2.862  10.396  0.1938  0.0756 -0.0667
  593DPPI    C2 9370  12.053   2.551  10.646 -0.0447  0.0971 -0.0130
  593DPPI    C3 9371  12.174   2.913  10.764  0.1763  0.0380 -0.0545
  593DPPI   PO4 9372  11.650   2.745  10.293  0.1390  0.0464  0.0487
  593DPPI   GL1 9373  11.522   2.573   9.968  0.4124 -0.1509  0.1940
  593DPPI   GL2 9374  11.295   2.862   9.919 -0.0148 -0.2201  0.0279
  593DPPI   C1A 9375  11.596   2.760   9.541  0.2069 -0.0872 -0.2593
  593DPPI   C2A 9376  11.602   2.640   9.088 -0.2152  0.2818 -0.2293
  593DPPI   C3A 9377  11.521   2.575   8.717  0.0384 -0.1044 -0.2555
  593DPPI   C4A 9378  11.366   2.302   8.332  0.3940  0.2158  0.0408
  593DPPI   C1B 9379  10.895   2.898   9.840  0.0678  0.0667  0.0021
  593DPPI   C2B 9380  10.758   2.834   9.385  0.0069  0.0897  0.2645
  593DPPI   C3B 9381  10.581   2.768   9.053  0.1416 -0.1977  0.0057
  593DPPI   C4B 9382  10.538   2.618   8.613 -0.3399  0.1605 -0.1618
  594PYPI    C1 9383  15.588  14.232   9.744  0.0899 -0.2188 -0.1244
  594PYPI    C2 9384  15.322  14.468   9.927  0.1259 -0.0292 -0.3121
  594PYPI    C3 9385  15.355  14.084  10.033 -0.1437 -0.0268 -0.2106
  594PYPI   PO4 9386  15.567  14.114   9.518  0.2025 -0.0569 -0.3595
  594PYPI   GL1 9387  15.192  14.106   9.132  0.0494  0.1036 -0.0654
  594PYPI   GL2 9388  15.548  13.990   8.985 -0.1348 -0.0133  0.1287
  594PYPI   C1A 9389  15.234  14.293   8.728  0.0554  0.0088 -0.0434
  594PYPI   C2A 9390  15.099  14.412   8.287  0.1159 -0.1486  0.0966
  594PYPI   D3A 9391  14.997  14.355   7.829 -0.0826  0.1124 -0.4661
  594PYPI   C4A 9392  15.451  14.298   7.540  0.0833  0.1415  0.0211
  594PYPI   C1B 9393  15.532  13.919   8.546 -0.1193 -0.0573 -0.0982
  594PYPI   C2B 9394  15.588  13.881   8.086  0.0057  0.5269  0.0481
  594PYPI   C3B 9395  15.677  13.800   7.700 -0.0827 -0.1915 -0.2747
  594PYPI   C4B 9396  15.685  13.970   7.266  0.0651  0.3455  0.1091
  595PYPI    C1 9397   3.316  11.746   9.685  0.0646 -0.0914  0.3946
  595PYPI    C2 9398   2.975  11.552   9.765  0.0274 -0.1984 -0.0025
  595PYPI    C3 9399   3.196  11.701  10.064 -0.4724  0.0570  0.2505
  595PYPI   PO4 9400   3.509  11.463   9.626 -0.1292  0.3079  0.1745
  595PYPI   GL1 9401   3.692  11.249   9.255 -0.0492 -0.1678 -0.4115
  595PYPI   GL2 9402   3.652  10.933   9.447  0.0928 -0.3811  0.0333
  595PYPI   C1A 9403   3.338  11.223   9.081 -0.2215 -0.1436  0.1428
  595PYPI   C2A 9404   3.142  11.346   8.692 -0.3165 -0.0063 -0.0234
  595PYPI   D3A 9405   3.172  11.175   8.367  0.1069  0.2014 -0.2239
  595PYPI   C4A 9406   3.267  11.185   7.953 -0.1054  0.3224 -0.1305
  595PYPI   C1B 9407   3.425  10.649   9.120 -0.1263  0.0685  0.0942
  595PYPI   C2B 9408   3.479  10.861   8.707 -0.1243 -0.3295 -0.3603
  595PYPI   C3B 9409   3.575  10.852   8.278  0.0379 -0.2546 -0.4765
  595PYPI   C4B 9410   3.743  10.904   7.817  0.3805  0.2661 -0.3656
  596PYPI    C1 9411   6.986  19.286  10.005 -0.1274 -0.1273 -0.3664
  596PYPI    C2 9412   6.661  19.060  10.060 -0.1801 -0.0203 -0.2328
  596PYPI    C3 9413   6.789  19.300  10.353 -0.0203 -0.0107 -0.3098
  596PYPI   PO4 9414   6.926  19.442   9.779  0.1365  0.1622  0.0475
  596PYPI   GL1 9415   7.238  19.575   9.481 -0.2917  0.0420 -0.0301
  596PYPI   GL2 9416   7.247  19.302   9.476 -0.1303  0.1807  0.0359
  596PYPI   C1A 9417   7.529  19.659   9.220 -0.1114 -0.1776 -0.0071
  596PYPI   C2A 9418   7.749  19.810   8.800  0.0072  0.2943  0.2553
  596PYPI   D3A 9419   7.964  19.962   8.449  0.3453 -0.2700 -0.0121
  596PYPI   C4A 9420   7.970  20.147   8.002  0.1423 -0.0930  0.1631
  596PYPI   C1B 9421   7.342  19.221   9.124 -0.1499 -0.0911  0.0060
  596PYPI   C2B 9422   7.658  19.353   8.746  0.3876  0.0642  0.0074
  596PYPI   C3B 9423   7.867  19.489   8.356  0.1151 -0.1825  0.0384
  596PYPI   C4B 9424   7.968  19.604   7.981 -0.2545 -0.2687 -0.0333
  597PYPI    C1 9425  16.952  18.491   9.314 -0.0150 -0.0506 -0.1336
  597PYPI    C2 9426  17.290  18.285   9.258 -0.0431 -0.1760  0.1368
  597PYPI    C3 9427  16.967  18.102   9.406 -0.1141  0.0297  0.2405
  597PYPI   PO4 9428  16.949  18.612   9.038  0.2386  0.1396 -0.3966
  597PYPI   GL1 9429  17.024  18.367   8.670 -0.0760 -0.0017 -0.0284
  597PYPI   GL2 9430  17.011  18.074   8.817  0.0668 -0.0757  0.2846
  597PYPI   C1A 9431  16.934  18.408   8.162  0.1942 -0.1721  0.0757
  597PYPI   C2A 9432  16.812  18.444   7.846  0.2980  0.0495 -0.0283
  597PYPI   D3A 9433  16.915  18.225   7.566  0.4136  0.0572  0.0881
  597PYPI   C4A 9434  16.526  18.133   7.376 -0.1274 -0.1188 -0.1185
  597PYPI   C1B 9435  16.723  17.911   8.496  0.2045 -0.1305  0.1364
  597PYPI   C2B 9436  16.628  17.516   8.223  0.2719  0.2957 -0.0116
  597PYPI   C3B 9437  16.479  17.408   7.854  0.2831  0.0917  0.1927
  597PYPI   C4B 9438  16.437  17.517   7.457  0.2559  0.4951 -0.1221
  598PYPI    C1 9439   9.799   0.847  10.083  0.2485  0.0381  0.0916
  598PYPI    C2 9440   9.913   1.203   9.939  0.0144  0.0748 -0.0086
  598PYPI    C3 9441   9.714   1.182  10.285 -0.0269  0.0465 -0.0340
  598PYPI   PO4 9442   9.676   0.740   9.861 -0.0825 -0.1703 -0.0711
  598PYPI   GL1 9443   9.649   0.437   9.536 -0.1251 -0.0743 -0.0818
  598PYPI   GL2 9444   9.801   0.256   9.563  0.1080  0.1845  0.0596
  598PYPI   C1A 9445   9.706   0.633   9.135 -0.3370  0.0814 -0.1438
  598PYPI   C2A 9446   9.933   0.474   8.721 -0.1332 -0.1505 -0.5475
  598PYPI   D3A 9447  10.286   0.648   8.696  0.0471  0.0014  0.1250
  598PYPI   C4A 9448  10.359   0.680   8.207 -0.3015 -0.1124 -0.0010
  598PYPI   C1B 9449   9.857   0.156   9.160  0.1724 -0.2212 -0.2020
  598PYPI   C2B 9450   9.773  -0.006   8.771  0.0951  0.3199  0.1317
  598PYPI   C3B 9451   9.840   0.089   8.356  0.0109  0.0360  0.1247
  598PYPI   C4B 9452   9.825   0.472   8.222 -0.0299  0.1530 -0.0317
  599PYPI    C1 9453   8.263  15.668   9.789 -0.0417  0.2266  0.0918
  599PYPI    C2 9454   8.597  15.747   9.996 -0.0954  0.1231  0.2190
  599PYPI    C3 9455   8.450  16.019   9.742  0.2579  0.0493 -0.0727
  599PYPI   PO4 9456   8.272  15.376   9.653 -0.2608  0.4424 -0.0477
  599PYPI   GL1 9457   8.271  15.139   9.407  0.1931  0.0083 -0.2227
  599PYPI   GL2 9458   8.202  15.376   9.177  0.2900  0.0083 -0.1077
  599PYPI   C1A 9459   8.226  14.868   9.073 -0.2703  0.0391 -0.2042
  599PYPI   C2A 9460   8.131  14.690   8.679 -0.2390  0.1929 -0.2391
  599PYPI   D3A 9461   8.202  14.621   8.281  0.0187 -0.1232  0.0587
  599PYPI   C4A 9462   7.936  14.732   8.033 -0.0929 -0.2014 -0.1307
  599PYPI   C1B 9463   8.234  15.484   8.749 -0.0365  0.4298 -0.0317
  599PYPI   C2B 9464   8.129  15.604   8.231  0.0632 -0.0544  0.1492
  599PYPI   C3B 9465   7.953  15.810   7.962 -0.1785 -0.3004 -0.1063
  599PYPI   C4B 9466   8.019  16.178   7.584  0.2466 -0.0030  0.2119
  600PYPI    C1 9467  18.510   1.963   9.347 -0.0178 -0.1918  0.0354
  600PYPI    C2 9468  18.237   1.671   9.346 -0.0303 -0.1821 -0.2069
  600PYPI    C3 9469  18.380   1.810   9.693 -0.4797 -0.0477 -0.0677
  600PYPI   PO4 9470  18.370   2.173   9.111  0.0759  0.0050  0.2379
  600PYPI   GL1 9471  18.494   2.312   8.638 -0.0687  0.2856 -0.1864
  600PYPI   GL2 9472  18.212   2.424   8.706 -0.0036 -0.1068 -0.2049
  600PYPI   C1A 9473  18.549   2.171   8.291  0.2218 -0.0604  0.3285
  600PYPI   C2A 9474  18.426   2.207   7.895  0.2545  0.5931  0.2348
  600PYPI   D3A 9475  18.599   2.147   7.485  0.1195 -0.0706  0.0956
  600PYPI   C4A 9476  18.455   2.073   7.035  0.1653  0.3084 -0.0862
  600PYPI   C1B 9477  18.062   2.628   8.351  0.2064  0.0897  0.0460
  600PYPI   C2B 9478  18.145   2.701   7.879 -0.0218 -0.2043 -0.0477
  600PYPI   C3B 9479  18.294   2.544   7.481 -0.0314 -0.2174 -0.0194
  600PYPI   C4B 9480  18.252   2.510   7.086  0.0180 -0.1808 -0.2787
  601PYPI    C1 9481   9.203  11.826   9.961 -0.0727  0.0922  0.1032
  601PYPI    C2 9482   9.479  11.786  10.248 -0.1168  0.3382  0.1823
  601PYPI    C3 9483   9.115  11.629  10.298  0.0943 -0.2531 -0.0503
  601PYPI   PO4 9484   9.368  12.096   9.725  0.1187 -0.2574  0.2343
  601PYPI   GL1 9485   9.433  12.121   9.300  0.0971  0.0576  0.1489
  601PYPI   GL2 9486   9.407  11.819   9.252  0.1526 -0.1884 -0.3935
  601PYPI   C1A 9487   9.094  12.179   8.960  0.0114  0.0673 -0.0339
  601PYPI   C2A 9488   8.859  12.339   8.573  0.2528 -0.0699  0.4726
  601PYPI   D3A 9489   8.799  12.318   8.111  0.1703 -0.0358  0.0387
  601PYPI   C4A 9490   8.370  12.270   7.952  0.1719 -0.0520  0.0688
  601PYPI   C1B 9491   9.434  11.902   8.744  0.1103  0.2471 -0.0186
  601PYPI   C2B 9492   9.261  12.066   8.536  0.0396  0.2704 -0.3729
  601PYPI   C3B 9493   9.256  12.149   8.067 -0.2538  0.0014 -0.0404
  601PYPI   C4B 9494   9.152  12.405   7.746 -0.0605  0.3475  0.1095
  602PYPI    C1 9495   4.048  19.065   9.429 -0.0552  0.1995  0.0119
  602PYPI    C2 9496   3.975  19.457   9.394  0.1620  0.2504  0.1096
  602PYPI    C3 9497   4.007  19.291   9.757 -0.1681  0.0942  0.0712
  602PYPI   PO4 9498   3.805  18.970   9.253  0.2282  0.0720 -0.2108
  602PYPI   GL1 9499   3.615  18.991   8.825  0.1467 -0.0406 -0.1460
  602PYPI   GL2 9500   3.378  18.680   8.815  0.4148 -0.0167 -0.0683
  602PYPI   C1A 9501   3.864  18.836   8.345 -0.4409  0.0249 -0.0239
  602PYPI   C2A 9502   3.942  18.863   7.962 -0.1842  0.0056  0.2007
  602PYPI   D3A 9503   4.009  19.157   7.644 -0.3996 -0.1070  0.1389
  602PYPI   C4A 9504   3.993  19.342   7.188  0.1366  0.0668 -0.0108
  602PYPI   C1B 9505   3.430  18.616   8.412  0.1910  0.0952  0.0071
  602PYPI   C2B 9506   3.288  18.423   7.935  0.3274  0.4094  0.0010
  602PYPI   C3B 9507   3.181  18.269   7.540 -0.0833 -0.1364 -0.0014
  602PYPI   C4B 9508   2.786  18.215   7.469  0.3292 -0.2972  0.4018
  603PYPI    C1 9509   7.938   8.034   9.878  0.1822  0.0001 -0.2051
  603PYPI    C2 9510   8.281   7.840   9.951  0.2056  0.0191 -0.2637
  603PYPI    C3 9511   7.931   7.672  10.048  0.2455  0.1413  0.1049
  603PYPI   PO4 9512   7.922   8.192   9.631 -0.1030  0.0065 -0.0915
  603PYPI   GL1 9513   8.093   8.159   9.206 -0.3442 -0.1379 -0.0607
  603PYPI   GL2 9514   8.377   7.945   9.211 -0.3034  0.2036 -0.1614
  603PYPI   C1A 9515   7.920   8.070   8.738 -0.0265 -0.0601 -0.0153
  603PYPI   C2A 9516   8.165   8.368   8.324  0.0067  0.1928  0.2159
  603PYPI   D3A 9517   8.191   8.483   7.921 -0.1966 -0.2913 -0.2222
  603PYPI   C4A 9518   8.025   8.501   7.614  0.0048  0.1508  0.3423
  603PYPI   C1B 9519   8.475   8.033   8.780  0.2062 -0.0595 -0.1711
  603PYPI   C2B 9520   8.615   8.089   8.368  0.3415 -0.0527  0.0898
  603PYPI   C3B 9521   8.488   8.064   7.951  0.4866 -0.6442 -0.3520
  603PYPI   C4B 9522   8.717   7.894   7.651 -0.0401  0.2880 -0.2441
  604PYPI    C1 9523  13.259   6.816   9.610  0.1534  0.0058  0.1211
  604PYPI    C2 9524  13.258   6.810  10.010  0.1083 -0.0398  0.1203
  604PYPI    C3 9525  13.595   6.897   9.812  0.2120 -0.3280  0.1643
  604PYPI   PO4 9526  13.083   7.039   9.567  0.1960  0.2332  0.0030
  604PYPI   GL1 9527  12.881   7.206   9.329 -0.3717 -0.1517 -0.0109
  604PYPI   GL2 9528  12.931   6.952   9.080 -0.0776  0.1706  0.1491
  604PYPI   C1A 9529  12.816   7.444   8.958  0.1505 -0.3041  0.3499
  604PYPI   C2A 9530  12.711   7.518   8.515  0.2074  0.2301 -0.1880
  604PYPI   D3A 9531  12.732   7.446   8.044  0.0142 -0.1061  0.0040
  604PYPI   C4A 9532  12.916   7.271   7.806  0.2512 -0.0188  0.0083
  604PYPI   C1B 9533  13.011   7.073   8.560  0.1375  0.0979 -0.1136
  604PYPI   C2B 9534  12.968   6.923   8.102 -0.1799  0.0372 -0.2490
  604PYPI   C3B 9535  13.201   6.857   7.707 -0.2331  0.0349 -0.1552
  604PYPI   C4B 9536  13.395   7.041   7.413  0.1660 -0.0823  0.0429
  605PYPI    C1 9537   1.647   5.264   9.448  0.2193  0.1089  0.0256
  605PYPI    C2 9538   1.326   5.409   9.638  0.3722  0.2634  0.1699
  605PYPI    C3 9539   1.491   5.065   9.758  0.2511  0.1748  0.0843
  605PYPI   PO4 9540   1.683   5.237   9.117  0.2310  0.1048  0.0626
  605PYPI   GL1 9541   1.762   5.507   8.718 -0.1506  0.1560 -0.2770
  605PYPI   GL2 9542   1.417   5.661   8.687  0.2433  0.1692 -0.2301
  605PYPI   C1A 9543   1.936   5.449   8.374  0.0463 -0.0316 -0.2906
  605PYPI   C2A 9544   1.837   5.600   7.987  0.1010 -0.2035 -0.0676
  605PYPI   D3A 9545   1.903   5.407   7.624 -0.0255  0.0182 -0.0142
  605PYPI   C4A 9546   1.806   5.168   7.198  0.2235  0.4104 -0.0921
  605PYPI   C1B 9547   1.394   5.698   8.187  0.1367  0.2412  0.1385
  605PYPI   C2B 9548   1.426   5.495   7.750  0.5023  0.0081 -0.0471
  605PYPI   C3B 9549   1.501   5.585   7.320  0.1884 -0.1544 -0.2372
  605PYPI   C4B 9550   1.356   5.422   6.994  0.1063  0.2339  0.0956
  606PYPI    C1 9551   5.096   7.055   9.790 -0.1361 -0.0451 -0.0494
  606PYPI    C2 9552   5.301   6.808  10.028 -0.2037  0.0634  0.1233
  606PYPI    C3 9553   4.940   6.701   9.892 -0.2118  0.0460  0.1581
  606PYPI   PO4 9554   5.275   7.091   9.581 -0.1942 -0.1949  0.0989
  606PYPI   GL1 9555   5.369   7.161   9.235 -0.0306 -0.1458 -0.3617
  606PYPI   GL2 9556   5.311   7.441   9.000 -0.0880 -0.2988  0.3686
  606PYPI   C1A 9557   5.270   6.953   8.822  0.0509 -0.0532 -0.2268
  606PYPI   C2A 9558   5.256   7.033   8.383 -0.1201  0.2326  0.1492
  606PYPI   D3A 9559   5.416   7.217   7.916  0.4309  0.2106  0.0510
  606PYPI   C4A 9560   5.594   7.706   7.838  0.3262 -0.0391  0.1124
  606PYPI   C1B 9561   5.504   7.469   8.523 -0.1291  0.0907  0.0044
  606PYPI   C2B 9562   5.740   7.415   8.206 -0.1190  0.3819  0.0769
  606PYPI   C3B 9563   5.911   7.281   7.815  0.0740  0.7087 -0.0524
  606PYPI   C4B 9564   6.141   7.277   7.378 -0.0903  0.3625  0.2143
  607ERGO   ROH 9565   6.292  12.328   9.720  0.1835  0.0049  0.1190
  607ERGO    R1 9566   6.341  12.409   9.453  0.0421  0.0196  0.0975
  607ERGO    R2 9567   6.198  12.310   9.238 -0.1846  0.1592  0.1874
  607ERGO    R3 9568   6.154  12.574   9.188 -0.0405  0.1998  0.2628
  607ERGO    R4 9569   6.225  12.459   8.928  0.0494  0.2566  0.2516
  607ERGO    R5 9570   6.319  12.631   9.024  0.0787  0.1842  0.3686
  607ERGO    C1 9571   6.200  12.793   8.700  0.3210  0.3515  0.3597
  607ERGO    C2 9572   6.235  12.812   8.464  0.0100  0.0531 -0.0304
  608ERGO   ROH 9573  15.789   9.770   8.880 -0.1955  0.0838  0.1278
  608ERGO    R1 9574  15.786   9.660   8.619 -0.0602  0.1237  0.1091
  608ERGO    R2 9575  15.553   9.575   8.496  0.0272 -0.0089  0.0403
  608ERGO    R3 9576  15.633   9.744   8.299 -0.0376  0.0743  0.0838
  608ERGO    R4 9577  15.469   9.546   8.162  0.3555 -0.1953 -0.0303
  608ERGO    R5 9578  15.672   9.603   8.111  0.3294  0.0857  0.1390
  608ERGO    C1 9579  15.496   9.687   7.783  0.4858 -0.2258 -0.0305
  608ERGO    C2 9580  15.416   9.786   7.476 -0.0888 -0.2064  0.3549
  609ERGO   ROH 9581  12.549  15.036   9.123  0.0555 -0.1089 -0.0632
  609ERGO    R1 9582  12.372  15.129   8.924  0.1036 -0.0128 -0.0622
  609ERGO    R2 9583  12.439  15.137   8.656  0.0877 -0.0986 -0.0720
  609ERGO    R3 9584  12.211  14.992   8.627 -0.0158  0.0548 -0.0285
  609ERGO    R4 9585  12.327  15.002   8.358  0.0290 -0.1777 -0.0141
  609ERGO    R5 9586  12.125  15.059   8.414  0.0649  0.0025 -0.0754
  609ERGO    C1 9587  12.048  14.788   8.158 -0.1023 -0.0798  0.0606
  609ERGO    C2 9588  11.856  14.491   7.998  0.2105 -0.1516 -0.0743
  610ERGO   ROH 9589  12.382  11.592   9.072  0.2662  0.0141 -0.0682
  610ERGO    R1 9590  12.317  11.489   8.817  0.1017 -0.0109 -0.0197
  610ERGO    R2 9591  12.309  11.647   8.590 -0.0991 -0.0165 -0.0308
  610ERGO    R3 9592  12.482  11.461   8.493 -0.1230  0.0180 -0.1350
  610ERGO    R4 9593  12.356  11.575   8.255 -0.0889  0.1560 -0.0659
  610ERGO    R5 9594  12.367  11.364   8.307 -0.1172  0.1356 -0.1896
  610ERGO    C1 9595  12.545  11.359   7.969 -0.1053  0.2888 -0.1841
  610ERGO    C2 9596  12.627  11.206   7.614  0.1220 -0.1406  0.1285
  611ERGO   ROH 9597   4.752   0.513   8.984  0.1004 -0.1420 -0.0435
  611ERGO    R1 9598   4.696   0.613   8.725  0.0695 -0.1200 -0.0286
  611ERGO    R2 9599   4.855   0.800   8.600  0.0120 -0.0507 -0.0009
  611ERGO    R3 9600   4.861   0.615   8.401  0.0695 -0.0198 -0.0280
  611ERGO    R4 9601   4.861   0.873   8.262 -0.2105 -0.0012  0.0045
  611ERGO    R5 9602   4.723   0.708   8.229 -0.0905 -0.1110  0.0503
  611ERGO    C1 9603   4.870   0.741   7.879 -0.2861  0.0566 -0.0177
  611ERGO    C2 9604   4.853   0.714   7.502 -0.1089 -0.0306 -0.0552
  612ERGO   ROH 9605  10.966  15.567   5.771 -0.0832 -0.1076  0.1115
  612ERGO    R1 9606  10.890  15.762   5.962  0.0614 -0.2618  0.3323
  612ERGO    R2 9607  11.049  15.829   6.177  0.5343  0.0124 -0.0768
  612ERGO    R3 9608  11.019  16.081   6.080 -0.1966 -0.0271 -0.0044
  612ERGO    R4 9609  11.103  16.118   6.359  0.5701  0.1061 -0.2359
  612ERGO    R5 9610  10.927  16.204   6.263  0.1199 -0.1941  0.2748
  612ERGO    C1 9611  11.106  16.523   6.373 -0.0952  0.1237 -0.2606
  612ERGO    C2 9612  11.013  16.771   6.581 -0.0304 -0.3826 -0.3188
  613ERGO   ROH 9613   5.435   9.076   8.976  0.3005  0.0797  0.0976
  613ERGO    R1 9614   5.574   8.987   8.747  0.2329  0.2012  0.0068
  613ERGO    R2 9615   5.446   8.873   8.530  0.1893  0.0957  0.0819
  613ERGO    R3 9616   5.577   9.066   8.391 -0.0610  0.2137  0.0055
  613ERGO    R4 9617   5.433   8.915   8.187  0.0696  0.0004  0.0750
  613ERGO    R5 9618   5.646   8.959   8.189  0.0188  0.2450  0.0187
  613ERGO    C1 9619   5.548   9.121   7.858 -0.2351  0.0557 -0.0007
  613ERGO    C2 9620   5.377   9.170   7.486  0.0990  0.0021  0.1747
  614ERGO   ROH 9621   9.188   2.057   6.099 -0.0601  0.0665  0.0239
  614ERGO    R1 9622   8.953   2.082   6.254 -0.0514  0.1048  0.0285
  614ERGO    R2 9623   8.867   1.884   6.427 -0.0419  0.1498  0.0753
  614ERGO    R3 9624   8.869   2.086   6.609 -0.0386  0.1907  0.0322
  614ERGO    R4 9625   8.745   1.861   6.750  0.0893  0.1693  0.1282
  614ERGO    R5 9626   8.663   2.061   6.728  0.0107  0.1419  0.1168
  614ERGO    C1 9627   8.677   2.037   7.108  0.1688  0.2190  0.1185
  614ERGO    C2 9628   8.673   2.182   7.352 -0.1171 -0.0637 -0.1308
  615ERGO   ROH 9629  18.951  12.855   5.918  0.0123  0.1784 -0.0149
  615ERGO    R1 9630  19.053  12.880   6.181  0.0581  0.0968 -0.0243
  615ERGO    R2 9631  19.022  13.109   6.332  0.1041  0.0604  0.0451
  615ERGO    R3 9632  18.916  12.937   6.514  0.1169  0.0190  0.0129
  615ERGO    R4 9633  19.046  13.145   6.675  0.2929 -0.1259  0.0528
  615ERGO    R5 9634  19.078  12.929   6.690  0.2007 -0.1465 -0.0718
  615ERGO    C1 9635  18.961  13.004   7.045  0.4149 -0.2733  0.0270
  615ERGO    C2 9636  19.030  13.210   7.296 -0.1316  0.0067  0.2368
  616ERGO   ROH 9637  11.596   6.092   9.225  0.2759  0.0736  0.0429
  616ERGO    R1 9638  11.487   6.174   8.977  0.4102  0.0507 -0.0243
  616ERGO    R2 9639  11.616   6.130   8.737  0.3748 -0.2943  0.0141
  616ERGO    R3 9640  11.380   6.014   8.669  0.2171 -0.0214  0.0793
  616ERGO    R4 9641  11.518   6.056   8.414  0.2390 -0.2737  0.0497
  616ERGO    R5 9642  11.317   6.122   8.464  0.3262 -0.0050  0.0548
  616ERGO    C1 9643  11.240   5.903   8.162  0.0120 -0.0055  0.1315
  616ERGO    C2 9644  11.288   5.633   8.054 -0.0202  0.3095  0.1273
  617ERGO   ROH 9645  14.824   8.578   9.093  0.0828  0.1538 -0.2616
  617ERGO    R1 9646  14.795   8.527   8.817 -0.0486  0.0132 -0.2226
  617ERGO    R2 9647  14.556   8.445   8.705 -0.1503  0.1378 -0.0943
  617ERGO    R3 9648  14.596   8.659   8.542 -0.0320  0.0109 -0.2366
  617ERGO    R4 9649  14.430   8.478   8.384 -0.2044  0.0276 -0.0850
  617ERGO    R5 9650  14.620   8.566   8.324 -0.1514 -0.1454 -0.1863
  617ERGO    C1 9651  14.395   8.698   8.045 -0.1248 -0.1557 -0.2134
  617ERGO    C2 9652  14.116   8.699   7.767 -0.0353 -0.2363  0.2464
  618ERGO   ROH 9653   2.630   6.355   8.886 -0.1162  0.2027  0.1067
  618ERGO    R1 9654   2.681   6.563   8.700  0.0397  0.1206  0.0546
  618ERGO    R2 9655   2.868   6.539   8.498  0.0613 -0.0496  0.0894
  618ERGO    R3 9656   2.658   6.606   8.340  0.1256  0.0304  0.0384
  618ERGO    R4 9657   2.892   6.638   8.168  0.1940  0.1170  0.1483
  618ERGO    R5 9658   2.738   6.787   8.206  0.1797  0.0973  0.1616
  618ERGO    C1 9659   2.709   6.758   7.827  0.3316  0.2890  0.1348
  618ERGO    C2 9660   2.762   6.911   7.546  0.0692 -0.0277  0.0461
  619ERGO   ROH 9661  18.343   2.238   5.558  0.0088 -0.0388  0.0467
  619ERGO    R1 9662  18.304   2.394   5.791 -0.1112  0.0427 -0.0264
  619ERGO    R2 9663  18.053   2.454   5.890 -0.1621 -0.0111 -0.1151
  619ERGO    R3 9664  18.154   2.348   6.119 -0.1788  0.1187 -0.0471
  619ERGO    R4 9665  17.961   2.550   6.209 -0.2987  0.0572 -0.1747
  619ERGO    R5 9666  18.170   2.534   6.269 -0.3105  0.1776 -0.1076
  619ERGO    C1 9667  18.001   2.506   6.610 -0.3938  0.2188 -0.1456
  619ERGO    C2 9668  17.808   2.591   6.839 -0.2037  0.2027  0.0864
  620ERGO   ROH 9669  16.631   2.429   5.300 -0.1413 -0.0445 -0.0071
  620ERGO    R1 9670  16.837   2.386   5.489 -0.1415 -0.0634 -0.0126
  620ERGO    R2 9671  16.932   2.586   5.654 -0.1395 -0.0823  0.0003
  620ERGO    R3 9672  16.873   2.407   5.850 -0.1350 -0.0960 -0.0095
  620ERGO    R4 9673  17.000   2.633   5.990  0.0548 -0.1777 -0.0233
  620ERGO    R5 9674  17.058   2.423   6.002 -0.0441 -0.2178 -0.0979
  620ERGO    C1 9675  16.983   2.493   6.369  0.1722 -0.2462 -0.0463
  620ERGO    C2 9676  16.882   2.627   6.700  0.0696  0.1079 -0.1001
  621ERGO   ROH 9677   6.924  15.052   9.243  0.2439  0.0844  0.0385
  621ERGO    R1 9678   6.850  15.023   8.972  0.1740  0.1019  0.0551
  621ERGO    R2 9679   6.807  15.240   8.805  0.1359  0.1137  0.0771
  621ERGO    R3 9680   6.990  15.114   8.648  0.0942  0.1184  0.0254
  621ERGO    R4 9681   6.841  15.286   8.464 -0.0134  0.0550  0.0542
  621ERGO    R5 9682   6.873  15.072   8.443  0.0177  0.0580  0.0816
  621ERGO    C1 9683   7.031  15.195   8.118 -0.1395  0.0252 -0.0077
  621ERGO    C2 9684   7.182  15.109   7.828  0.1443  0.2873  0.0378
  622ERGO   ROH 9685  18.878   7.365   6.010  0.1704 -0.0555 -0.2271
  622ERGO    R1 9686  18.926   7.340   6.288  0.0285  0.0294 -0.1941
  622ERGO    R2 9687  19.068   7.129   6.396 -0.1485 -0.0124 -0.0423
  622ERGO    R3 9688  19.218   7.327   6.505 -0.0770 -0.0582 -0.0549
  622ERGO    R4 9689  19.280   7.090   6.666  0.0141 -0.1268 -0.1835
  622ERGO    R5 9690  19.212   7.283   6.741  0.0626 -0.1517 -0.0661
  622ERGO    C1 9691  19.544   7.254   6.927  0.1758 -0.2366 -0.2776
  622ERGO    C2 9692  19.864   7.130   7.174 -0.2577 -0.0686 -0.0601
  623ERGO   ROH 9693   1.983  17.578   6.079  0.1249  0.0913 -0.2686
  623ERGO    R1 9694   1.861  17.777   6.238  0.0994  0.0273 -0.2078
  623ERGO    R2 9695   1.846  17.759   6.513  0.1494 -0.0329 -0.2092
  623ERGO    R3 9696   1.964  18.004   6.504  0.0844  0.0003 -0.1786
  623ERGO    R4 9697   1.742  18.036   6.693  0.0816 -0.0860 -0.1656
  623ERGO    R5 9698   1.782  18.159   6.518  0.0430 -0.0500 -0.1500
  623ERGO    C1 9699   1.794  18.426   6.789 -0.0187 -0.0860 -0.1115
  623ERGO    C2 9700   1.887  18.524   7.159 -0.1714 -0.1821 -0.2574
  624ERGO   ROH 9701   4.200   5.882   8.858 -0.0428 -0.1333  0.0557
  624ERGO    R1 9702   4.139   5.773   8.604 -0.1886  0.0711 -0.0007
  624ERGO    R2 9703   4.023   5.923   8.402  0.0826  0.3546  0.0372
  624ERGO    R3 9704   4.237   5.836   8.259 -0.0316  0.0575  0.0430
  624ERGO    R4 9705   4.055   5.945   8.058 -0.0035  0.0066  0.0043
  624ERGO    R5 9706   4.144   5.746   8.058 -0.1588 -0.0576  0.1574
  624ERGO    C1 9707   4.276   5.876   7.725 -0.1607 -0.4749 -0.0095
  624ERGO    C2 9708   4.248   5.855   7.334 -0.0265  0.1558  0.2676
  625ERGO   ROH 9709  15.839   5.502   5.450 -0.0798  0.0228 -0.0584
  625ERGO    R1 9710  15.656   5.395   5.638 -0.1160  0.0124 -0.0982
  625ERGO    R2 9711  15.724   5.349   5.902 -0.1251 -0.1246 -0.1147
  625ERGO    R3 9712  15.505   5.502   5.951 -0.0646 -0.0591 -0.0499
  625ERGO    R4 9713  15.528   5.330   6.186  0.0000  0.0040 -0.0190
  625ERGO    R5 9714  15.352   5.354   6.061 -0.0503  0.0132  0.0611
  625ERGO    C1 9715  15.209   5.462   6.398  0.1298  0.1404  0.0975
  625ERGO    C2 9716  15.056   5.478   6.734  0.1183 -0.1783 -0.0019
  626ERGO   ROH 9717  13.158   7.373   5.860 -0.0025 -0.0648  0.0034
  626ERGO    R1 9718  13.264   7.480   6.100  0.0596 -0.0375 -0.0353
  626ERGO    R2 9719  13.197   7.731   6.194  0.0655 -0.0338 -0.0327
  626ERGO    R3 9720  13.133   7.593   6.420  0.1429 -0.0250 -0.0061
  626ERGO    R4 9721  13.158   7.872   6.507 -0.0743  0.0136 -0.0718
  626ERGO    R5 9722  13.261   7.700   6.592  0.0437  0.1117 -0.0181
  626ERGO    C1 9723  13.075   7.825   6.901 -0.0830  0.0496 -0.0696
  626ERGO    C2 9724  12.919   7.860   7.126  0.0425  0.1111  0.0661
  627ERGO   ROH 9725   5.074  16.447   9.350  0.1969 -0.2965 -0.0384
  627ERGO    R1 9726   5.224  16.611   9.175  0.0431 -0.1405 -0.0259
  627ERGO    R2 9727   5.458  16.527   9.055  0.0594  0.0461 -0.1283
  627ERGO    R3 9728   5.330  16.601   8.827 -0.0553  0.0511 -0.0634
  627ERGO    R4 9729   5.611  16.568   8.748 -0.1414 -0.2364 -0.2702
  627ERGO    R5 9730   5.486  16.744   8.715 -0.0119 -0.1394 -0.2541
  627ERGO    C1 9731   5.580  16.661   8.355 -0.3660 -0.3964 -0.2919
  627ERGO    C2 9732   5.832  16.753   8.059 -0.0482 -0.2370  0.0653
  628ERGO   ROH 9733  16.746  16.201   5.832  0.2289  0.0549  0.1089
  628ERGO    R1 9734  16.646  16.228   6.095  0.0742  0.1508  0.0430
  628ERGO    R2 9735  16.652  16.021   6.278 -0.1791  0.1650  0.0767
  628ERGO    R3 9736  16.781  16.204   6.432 -0.1571  0.1015  0.1327
  628ERGO    R4 9737  16.579  16.087   6.610 -0.2183  0.1331  0.0739
  628ERGO    R5 9738  16.609  16.299   6.569 -0.1507  0.1279  0.1167
  628ERGO    C1 9739  16.658  16.298   6.947 -0.2205  0.0550  0.1249
  628ERGO    C2 9740  16.710  16.229   7.301  0.1671  0.0228 -0.4111
  629ERGO   ROH 9741   5.553  19.333   5.467  0.0815 -0.3375 -0.0679
  629ERGO    R1 9742   5.513  19.391   5.741  0.4454 -0.2559 -0.0275
  629ERGO    R2 9743   5.308  19.278   5.889  0.2790  0.2262  0.1247
  629ERGO    R3 9744   5.512  19.206   6.054  0.2468 -0.2862 -0.0437
  629ERGO    R4 9745   5.269  19.155   6.209  0.2242  0.3517  0.1674
  629ERGO    R5 9746   5.440  19.275   6.271  0.6001 -0.0729  0.0158
  629ERGO    C1 9747   5.437  19.015   6.550  0.1620 -0.0564  0.0341
  629ERGO    C2 9748   5.240  18.945   6.759  0.0403  0.1642  0.0593
  630ERGO   ROH 9749   8.325  10.487   9.213 -0.0252 -0.0703 -0.0595
  630ERGO    R1 9750   8.392  10.505   8.939 -0.1341 -0.0837 -0.0872
  630ERGO    R2 9751   8.339  10.302   8.759 -0.2114 -0.0888 -0.0567
  630ERGO    R3 9752   8.213  10.500   8.622 -0.2603 -0.0913 -0.0168
  630ERGO    R4 9753   8.298  10.309   8.416  0.0816  0.1305 -0.0917
  630ERGO    R5 9754   8.341  10.523   8.420 -0.1012  0.1674  0.1070
  630ERGO    C1 9755   8.156  10.499   8.087  0.2064  0.2556 -0.0746
  630ERGO    C2 9756   8.019  10.431   7.789  0.0078  0.1399 -0.1470
  631ERGO   ROH 9757  13.688  14.952   9.229 -0.1758  0.0463 -0.0484
  631ERGO    R1 9758  13.567  15.018   8.981 -0.1121  0.0196 -0.0870
  631ERGO    R2 9759  13.699  14.991   8.740 -0.0525 -0.0153 -0.0519
  631ERGO    R3 9760  13.480  14.843   8.675 -0.0413 -0.0162 -0.0865
  631ERGO    R4 9761  13.526  15.015   8.441 -0.1046  0.0997 -0.0128
  631ERGO    R5 9762  13.340  14.995   8.553 -0.0832  0.0200  0.0075
  631ERGO    C1 9763  13.220  14.891   8.206 -0.1245  0.1658 -0.0225
  631ERGO    C2 9764  13.266  14.894   7.856  0.0485 -0.1866  0.1132
  632ERGO   ROH 9765   2.213  15.479   5.458 -0.0275  0.0214  0.0128
  632ERGO    R1 9766   2.010  15.461   5.655  0.0950 -0.0509  0.1355
  632ERGO    R2 9767   2.065  15.454   5.925  0.2583  0.0151  0.1078
  632ERGO    R3 9768   1.894  15.665   5.933  0.1596 -0.0675  0.1738
  632ERGO    R4 9769   1.846  15.520   6.184  0.3443 -0.0704  0.2032
  632ERGO    R5 9770   1.696  15.577   6.036  0.2496 -0.1528  0.2710
  632ERGO    C1 9771   1.557  15.757   6.342  0.3017 -0.1977  0.3207
  632ERGO    C2 9772   1.465  15.977   6.578 -0.1341 -0.0316 -0.0967
  633ERGO   ROH 9773   1.383  14.164   5.495  0.2227  0.0354  0.0094
  633ERGO    R1 9774   1.337  14.246   5.762  0.2042 -0.0412  0.0296
  633ERGO    R2 9775   1.515  14.403   5.903  0.1151  0.0584  0.0289
  633ERGO    R3 9776   1.297  14.562   5.939  0.0104 -0.0968  0.0898
  633ERGO    R4 9777   1.464  14.610   6.175  0.1221  0.1358 -0.0278
  633ERGO    R5 9778   1.254  14.551   6.174  0.1632 -0.0316  0.1240
  633ERGO    C1 9779   1.230  14.878   6.368  0.0278  0.0351 -0.0036
  633ERGO    C2 9780   1.088  15.115   6.618  0.1598 -0.0019  0.2366
  634ERGO   ROH 9781   9.913  16.522   9.156 -0.1993  0.0221 -0.0990
  634ERGO    R1 9782   9.831  16.569   8.889 -0.1514  0.0149 -0.1161
  634ERGO    R2 9783   9.984  16.712   8.709 -0.1001 -0.0200 -0.1066
  634ERGO    R3 9784   9.954  16.489   8.556 -0.1102 -0.0297 -0.0888
  634ERGO    R4 9785   9.941  16.712   8.366 -0.2656 -0.0445 -0.0857
  634ERGO    R5 9786   9.794  16.552   8.390 -0.2059 -0.0829 -0.0132
  634ERGO    C1 9787   9.887  16.502   8.023 -0.3712 -0.0679 -0.0567
  634ERGO    C2 9788   9.728  16.573   7.750 -0.2629 -0.4415  0.1314
  635ERGO   ROH 9789  11.513  12.889   8.750 -0.0414  0.2176  0.0851
  635ERGO    R1 9790  11.349  13.015   8.557 -0.2149  0.0450  0.1187
  635ERGO    R2 9791  11.437  13.074   8.302 -0.2847  0.2568  0.1466
  635ERGO    R3 9792  11.218  12.933   8.228 -0.0814 -0.0368  0.0838
  635ERGO    R4 9793  11.295  13.082   7.987 -0.2767  0.1721  0.1398
  635ERGO    R5 9794  11.099  13.081   8.081 -0.2879 -0.1466  0.1318
  635ERGO    C1 9795  11.007  12.954   7.734 -0.0813 -0.1529  0.0769
  635ERGO    C2 9796  10.961  12.953   7.447 -0.0802 -0.0907 -0.0680
  636ERGO   ROH 9797   1.833   3.689   9.022 -0.0160 -0.0629 -0.0832
  636ERGO    R1 9798   1.848   3.783   8.756 -0.0740 -0.0187 -0.0703
  636ERGO    R2 9799   1.991   3.652   8.559 -0.0517  0.0581 -0.1027
  636ERGO    R3 9800   1.754   3.660   8.426 -0.0670  0.0005 -0.0798
  636ERGO    R4 9801   1.949   3.573   8.225 -0.0699  0.0193 -0.0919
  636ERGO    R5 9802   1.811   3.741   8.208 -0.1042 -0.0081 -0.0934
  636ERGO    C1 9803   1.701   3.534   7.907 -0.0949 -0.0575 -0.0640
  636ERGO    C2 9804   1.746   3.515   7.613 -0.1420  0.0723  0.0475
  637ERGO   ROH 9805   7.388   4.268   9.467 -0.0269 -0.2768  0.1023
  637ERGO    R1 9806   7.500   4.199   9.217 -0.1034 -0.2666  0.0637
  637ERGO    R2 9807   7.358   4.216   8.980 -0.1376 -0.1295  0.0861
  637ERGO    R3 9808   7.568   4.369   8.902 -0.0723 -0.2129  0.1011
  637ERGO    R4 9809   7.396   4.353   8.665 -0.1892  0.0841  0.1723
  637ERGO    R5 9810   7.608   4.304   8.675 -0.2216 -0.0658  0.0352
  637ERGO    C1 9811   7.615   4.577   8.409 -0.1580  0.1302  0.2366
  637ERGO    C2 9812   7.630   4.601   8.051 -0.1970 -0.0842  0.3482
  638ERGO   ROH 9813   6.894  18.451   9.186 -0.1018 -0.0170 -0.0544
  638ERGO    R1 9814   6.965  18.385   8.920  0.1184 -0.0136  0.0019
  638ERGO    R2 9815   6.917  18.554   8.707 -0.1120 -0.1925 -0.0915
  638ERGO    R3 9816   7.184  18.521   8.663 -0.0264  0.2680  0.0237
  638ERGO    R4 9817   7.080  18.637   8.414 -0.1934 -0.2178 -0.1444
  638ERGO    R5 9818   7.197  18.454   8.433  0.1615  0.0222  0.1019
  638ERGO    C1 9819   7.424  18.654   8.201 -0.1603  0.2002 -0.0672
  638ERGO    C2 9820   7.450  18.824   7.802  0.0133 -0.1745 -0.2263
  639ERGO   ROH 9821  14.362   4.685   8.986  0.1160 -0.0767 -0.1843
  639ERGO    R1 9822  14.126   4.592   8.862  0.1343 -0.2224 -0.1120
  639ERGO    R2 9823  13.939   4.763   8.750 -0.0705 -0.3283  0.0606
  639ERGO    R3 9824  13.977   4.608   8.530 -0.0423 -0.1902 -0.0326
  639ERGO    R4 9825  13.751   4.779   8.461  0.1623  0.0690 -0.0767
  639ERGO    R5 9826  13.757   4.562   8.450 -0.0255  0.0695 -0.2409
  639ERGO    C1 9827  13.677   4.643   8.086  0.3242  0.4300 -0.2441
  639ERGO    C2 9828  13.790   4.652   7.612  0.3050 -0.2174  0.2639
  640ERGO   ROH 9829  15.609   0.718   8.783  0.2597  0.1366  0.0908
  640ERGO    R1 9830  15.519   0.687   8.516  0.2966  0.1339  0.0806
  640ERGO    R2 9831  15.331   0.854   8.402  0.1201 -0.0343  0.1442
  640ERGO    R3 9832  15.521   0.886   8.212  0.0812  0.2438  0.1456
  640ERGO    R4 9833  15.269   0.880   8.063  0.0771 -0.3289  0.1247
  640ERGO    R5 9834  15.444   0.756   8.027  0.3386 -0.0160  0.2040
  640ERGO    C1 9835  15.412   0.926   7.687  0.0153 -0.2394  0.1148
  640ERGO    C2 9836  15.260   0.977   7.436 -0.1349  0.0166 -0.2512
  641ERGO   ROH 9837   1.988  12.669   6.157  0.2222 -0.3037 -0.2376
  641ERGO    R1 9838   2.018  12.648   6.438  0.1746 -0.3566 -0.2364
  641ERGO    R2 9839   2.261  12.596   6.558  0.1746 -0.2688 -0.1996
  641ERGO    R3 9840   2.204  12.822   6.698  0.0384 -0.3294 -0.1556
  641ERGO    R4 9841   2.371  12.664   6.879  0.3671 -0.1498 -0.2888
  641ERGO    R5 9842   2.175  12.747   6.923  0.3061 -0.3651 -0.1286
  641ERGO    C1 9843   2.381  12.915   7.197  0.3513 -0.1374 -0.2994
  641ERGO    C2 9844   2.366  13.099   7.462 -0.2273 -0.2624  0.1448
  642ERGO   ROH 9845  19.273  15.005   9.055  0.0135 -0.1671 -0.0029
  642ERGO    R1 9846  19.366  15.085   8.800  0.0042 -0.0852  0.0201
  642ERGO    R2 9847  19.544  14.934   8.652 -0.0962 -0.0948 -0.0834
  642ERGO    R3 9848  19.352  14.954   8.460 -0.1180  0.0897 -0.0454
  642ERGO    R4 9849  19.604  14.963   8.313 -0.1257 -0.0923 -0.0892
  642ERGO    R5 9850  19.442  15.108   8.301 -0.0163  0.0455 -0.0372
  642ERGO    C1 9851  19.459  14.999   7.936 -0.1634  0.0825 -0.0568
  642ERGO    C2 9852  19.708  14.982   7.714  0.1970 -0.1953 -0.0686
  643ERGO   ROH 9853   3.019  12.653   9.355 -0.1915 -0.1808  0.1428
  643ERGO    R1 9854   3.112  12.504   9.133 -0.1917 -0.1074  0.0922
  643ERGO    R2 9855   2.949  12.335   8.988 -0.2034 -0.0326  0.0100
  643ERGO    R3 9856   3.037  12.483   8.778 -0.1663  0.0421  0.0787
  643ERGO    R4 9857   2.866  12.277   8.657 -0.0415  0.0166 -0.0395
  643ERGO    R5 9858   3.072  12.323   8.603 -0.0382  0.0978  0.0572
  643ERGO    C1 9859   2.900  12.383   8.267  0.0877  0.1155 -0.0039
  643ERGO    C2 9860   2.670  12.287   8.130  0.0531  0.1889  0.0339
  644ERGO   ROH 9861  13.134   4.981   5.715 -0.1612 -0.2086  0.0735
  644ERGO    R1 9862  13.240   5.067   5.963 -0.1414 -0.1152  0.0343
  644ERGO    R2 9863  13.150   4.969   6.205 -0.0549 -0.1000  0.0807
  644ERGO    R3 9864  13.414   4.915   6.244 -0.0261  0.0069  0.0273
  644ERGO    R4 9865  13.311   4.983   6.510  0.0408  0.0754  0.0226
  644ERGO    R5 9866  13.483   5.073   6.410 -0.0252  0.0907 -0.0602
  644ERGO    C1 9867  13.652   4.940   6.725  0.1235  0.2779 -0.0613
  644ERGO    C2 9868  13.754   4.861   7.073 -0.1605 -0.2114 -0.0311
  645ERGO   ROH 9869  13.695   6.382   5.972 -0.0469 -0.0414 -0.1320
  645ERGO    R1 9870  13.799   6.440   6.229 -0.0727  0.0154 -0.1332
  645ERGO    R2 9871  13.738   6.288   6.451 -0.1405  0.0946 -0.0901
  645ERGO    R3 9872  14.008   6.270   6.473 -0.1480  0.0418 -0.0528
  645ERGO    R4 9873  13.905   6.130   6.710 -0.1942  0.0703 -0.0709
  645ERGO    R5 9874  14.050   6.293   6.708 -0.1673  0.0360 -0.0543
  645ERGO    C1 9875  14.256   6.022   6.881 -0.2324  0.0066 -0.0246
  645ERGO    C2 9876  14.340   5.720   7.059  0.0169 -0.2931  0.1641
  646ERGO   ROH 9877  18.379  16.818   5.434  0.1983  0.1978 -0.0006
  646ERGO    R1 9878  18.264  16.868   5.688 -0.1011 -0.1163 -0.0642
  646ERGO    R2 9879  18.143  16.670   5.838  0.2378 -0.4442 -0.1864
  646ERGO    R3 9880  18.317  16.753   6.029 -0.0680 -0.0752 -0.0593
  646ERGO    R4 9881  18.133  16.575   6.171  0.3084 -0.5898 -0.2263
  646ERGO    R5 9882  18.183  16.780   6.225 -0.2345 -0.4841 -0.1192
  646ERGO    C1 9883  18.291  16.599   6.543  0.0625 -0.3282 -0.1302
  646ERGO    C2 9884  18.278  16.470   6.795  0.0586  0.1053 -0.0274
  647ERGO   ROH 9885  16.746   0.730   8.279 -0.0138 -0.1273  0.1562
  647ERGO    R1 9886  16.779   0.556   8.058  0.1286 -0.1236  0.1731
  647ERGO    R2 9887  16.699   0.625   7.802 -0.2647 -0.3485  0.2262
  647ERGO    R3 9888  16.957   0.563   7.740 -0.1851  0.1629 -0.0037
  647ERGO    R4 9889  16.813   0.542   7.486 -0.4356 -0.3537  0.1651
  647ERGO    R5 9890  16.940   0.390   7.576  0.0052 -0.0145  0.1580
  647ERGO    C1 9891  17.122   0.437   7.245 -0.4606  0.1234 -0.0864
  647ERGO    C2 9892  17.464   0.494   6.972  0.1844  0.3499 -0.3664
  648ERGO   ROH 9893   2.133  15.551   9.045 -0.0236  0.2161  0.0879
  648ERGO    R1 9894   2.227  15.495   8.784 -0.0088 -0.0133  0.1399
  648ERGO    R2 9895   2.074  15.359   8.597 -0.0620 -0.0375  0.1962
  648ERGO    R3 9896   2.126  15.577   8.444  0.1080 -0.1665  0.0679
  648ERGO    R4 9897   2.128  15.353   8.256 -0.0578 -0.2744  0.1999
  648ERGO    R5 9898   2.286  15.501   8.283  0.0523 -0.3796  0.1148
  648ERGO    C1 9899   2.208  15.554   7.913  0.1043 -0.5335  0.0816
  648ERGO    C2 9900   2.069  15.603   7.560 -0.2672 -0.0474  0.3511
  649ERGO   ROH 9901   8.702  15.031   9.119  0.1434  0.0162 -0.0386
  649ERGO    R1 9902   8.581  15.172   8.906 -0.0185 -0.0223  0.0274
  649ERGO    R2 9903   8.707  15.211   8.663 -0.0673  0.2239  0.0427
  649ERGO    R3 9904   8.481  15.098   8.564  0.0526  0.0177 -0.0030
  649ERGO    R4 9905   8.645  15.154   8.328  0.0346  0.2128  0.0248
  649ERGO    R5 9906   8.439  15.217   8.360 -0.0344  0.0101  0.0077
  649ERGO    C1 9907   8.397  15.014   8.039  0.2066  0.0129 -0.0284
  649ERGO    C2 9908   8.431  14.772   7.791 -0.2330  0.0118  0.1795
  650ERGO   ROH 9909  14.311  13.169   6.017  0.2422  0.0284 -0.0087
  650ERGO    R1 9910  14.399  13.157   6.286  0.0654  0.0215  0.0505
  650ERGO    R2 9911  14.342  13.354   6.470 -0.0617  0.0130  0.0196
  650ERGO    R3 9912  14.245  13.146   6.615 -0.1521  0.0059 -0.0501
  650ERGO    R4 9913  14.451  13.266   6.786 -0.1128 -0.1269 -0.0011
  650ERGO    R5 9914  14.437  13.057   6.727 -0.1923 -0.1044 -0.0669
  650ERGO    C1 9915  14.423  13.019   7.106 -0.2275 -0.2152 -0.0787
  650ERGO    C2 9916  14.428  13.198   7.297  0.2037 -0.0417  0.2116
  651ERGO   ROH 9917  17.569  12.226   9.163  0.1885  0.1867  0.2937
  651ERGO    R1 9918  17.773  12.367   9.026  0.2457  0.0375  0.2218
  651ERGO    R2 9919  18.015  12.252   8.960  0.1366 -0.1448  0.1267
  651ERGO    R3 9920  17.950  12.337   8.710  0.1043 -0.0883  0.1541
  651ERGO    R4 9921  18.202  12.191   8.676  0.0443 -0.1702  0.0708
  651ERGO    R5 9922  18.160  12.395   8.610  0.0986 -0.1475  0.1096
  651ERGO    C1 9923  18.250  12.235   8.276 -0.0396 -0.1320  0.0641
  651ERGO    C2 9924  18.430  12.299   8.001 -0.1660 -0.1207  0.0709
  652ERGO   ROH 9925   5.735  10.499   5.700 -0.0826 -0.0367  0.2713
  652ERGO    R1 9926   5.854  10.470   5.956 -0.2154 -0.2890  0.3087
  652ERGO    R2 9927   5.855  10.672   6.143  0.2218 -0.2526  0.2809
  652ERGO    R3 9928   5.743  10.483   6.302 -0.2871  0.0281  0.2759
  652ERGO    R4 9929   5.890  10.658   6.486  0.3202 -0.4401  0.2637
  652ERGO    R5 9930   5.909  10.441   6.470 -0.3304 -0.5093  0.2006
  652ERGO    C1 9931   5.805  10.472   6.836 -0.1003 -0.2859  0.2490
  652ERGO    C2 9932   5.684  10.286   7.059  0.2162  0.1503  0.1959
  653ERGO   ROH 9933  13.135  11.972   5.664 -0.0927 -0.1244 -0.0242
  653ERGO    R1 9934  13.013  11.893   5.907 -0.0311 -0.0564  0.0289
  653ERGO    R2 9935  13.160  11.826   6.133  0.0216  0.2505  0.0884
  653ERGO    R3 9936  13.004  12.015   6.250 -0.1636  0.1944 -0.0612
  653ERGO    R4 9937  13.116  11.863   6.473 -0.1108  0.3972  0.0568
  653ERGO    R5 9938  12.906  11.904   6.437 -0.1348  0.2150 -0.0320
  653ERGO    C1 9939  12.945  12.062   6.782 -0.3616  0.4300 -0.1020
  653ERGO    C2 9940  12.953  12.215   7.006 -0.2649 -0.3944 -0.0395
  654ERGO   ROH 9941  11.992  15.087   5.779  0.1286 -0.2275  0.0866
  654ERGO    R1 9942  11.868  15.171   6.019  0.1043 -0.2003  0.0644
  654ERGO    R2 9943  11.959  15.095   6.268  0.1500 -0.0773  0.0854
  654ERGO    R3 9944  11.964  15.363   6.313  0.0364 -0.0594 -0.0044
  654ERGO    R4 9945  12.075  15.245   6.557  0.1455  0.0725  0.0107
  654ERGO    R5 9946  11.909  15.386   6.545  0.0775 -0.0080  0.0007
  654ERGO    C1 9947  12.146  15.584   6.768  0.0363  0.1766 -0.1171
  654ERGO    C2 9948  12.327  15.608   7.091 -0.5066 -0.0686 -0.1584
  655ERGO   ROH 9949   7.858  18.489   5.941  0.1440  0.1289 -0.1756
  655ERGO    R1 9950   7.973  18.429   6.192  0.1497  0.1817 -0.1664
  655ERGO    R2 9951   8.061  18.625   6.366 -0.1466  0.2293 -0.0730
  655ERGO    R3 9952   7.896  18.498   6.541 -0.0346 -0.0429 -0.1587
  655ERGO    R4 9953   8.032  18.701   6.702 -0.3731  0.1363 -0.0688
  655ERGO    R5 9954   8.021  18.488   6.745 -0.0844  0.1015 -0.1138
  655ERGO    C1 9955   7.861  18.626   7.062 -0.3999 -0.1735 -0.1468
  655ERGO    C2 9956   7.958  18.500   7.473  0.1531  0.3514 -0.2000
  656ERGO   ROH 9957   9.043   4.030   7.843  0.0635  0.0272 -0.0371
  656ERGO    R1 9958   8.886   4.256   7.910  0.1283  0.0682 -0.0252
  656ERGO    R2 9959   8.653   4.237   8.057  0.1532  0.1331  0.0184
  656ERGO    R3 9960   8.777   4.421   8.215  0.2224  0.1186 -0.0174
  656ERGO    R4 9961   8.502   4.407   8.317  0.3069 -0.0166  0.2091
  656ERGO    R5 9962   8.609   4.587   8.255  0.1932  0.0457  0.1830
  656ERGO    C1 9963   8.530   4.678   8.617  0.4615 -0.1173  0.2864
  656ERGO    C2 9964   8.405   4.957   8.821  0.1283 -0.1484 -0.0952
  657ERGO   ROH 9965   4.101   8.129   5.448  0.1629  0.1128 -0.0777
  657ERGO    R1 9966   4.009   8.011   5.689  0.1344 -0.1450 -0.2107
  657ERGO    R2 9967   4.145   7.806   5.815  0.3485 -0.0008 -0.1943
  657ERGO    R3 9968   4.134   7.974   6.028 -0.0951 -0.1098 -0.1222
  657ERGO    R4 9969   4.247   7.725   6.135  0.1895  0.0177 -0.1386
  657ERGO    R5 9970   4.073   7.833   6.212 -0.0430 -0.2814 -0.2391
  657ERGO    C1 9971   4.295   7.836   6.522 -0.3195 -0.0740 -0.0383
  657ERGO    C2 9972   4.297   7.655   6.883  0.0777 -0.0031  0.1996
  658ERGO   ROH 9973   8.303  15.192   6.205  0.1512 -0.2855  0.0508
  658ERGO    R1 9974   8.347  15.301   6.462  0.0090 -0.1688  0.0299
  658ERGO    R2 9975   8.274  15.170   6.694  0.0299 -0.1451  0.0638
  658ERGO    R3 9976   8.535  15.208   6.759 -0.0102  0.0475  0.1071
  658ERGO    R4 9977   8.408  15.122   7.009  0.0582 -0.1753  0.0452
  658ERGO    R5 9978   8.528  15.301   6.980 -0.0986 -0.0669  0.1436
  658ERGO    C1 9979   8.730  15.130   7.254  0.0370 -0.0120  0.0752
  658ERGO    C2 9980   9.126  15.221   7.432 -0.1991  0.3898  0.1819
  659ERGO   ROH 9981  11.090  15.100   8.940  0.1927 -0.2555  0.1653
  659ERGO    R1 9982  10.995  14.929   8.736  0.1062 -0.1304  0.0998
  659ERGO    R2 9983  10.814  15.013   8.544  0.1597  0.0384  0.1211
  659ERGO    R3 9984  11.004  14.922   8.372  0.1173 -0.0052  0.0972
  659ERGO    R4 9985  10.762  14.951   8.208  0.0996  0.0345  0.1311
  659ERGO    R5 9986  10.886  14.772   8.227  0.0678  0.0116  0.1204
  659ERGO    C1 9987  10.910  14.830   7.851  0.0248 -0.0089  0.1145
  659ERGO    C2 9988  11.006  14.727   7.468  0.1069  0.1537 -0.0404
  660ERGO   ROH 9989  11.279   7.900   5.636 -0.0856 -0.0408 -0.0749
  660ERGO    R1 9990  11.215   7.948   5.907 -0.2192  0.0557 -0.1227
  660ERGO    R2 9991  11.383   7.877   6.114 -0.4366 -0.1072 -0.0021
  660ERGO    R3 9992  11.358   8.138   6.183 -0.1991 -0.0701 -0.0442
  660ERGO    R4 9993  11.492   8.013   6.412 -0.3017 -0.1608 -0.0257
  660ERGO    R5 9994  11.310   8.133   6.418 -0.1978  0.0075 -0.0392
  660ERGO    C1 9995  11.532   8.338   6.651 -0.0002 -0.1573 -0.0790
  660ERGO    C2 9996  11.595   8.404   7.113  0.1218 -0.3370  0.1748
  661ERGO   ROH 9997   7.549   6.546   6.076 -0.0864  0.2115 -0.0789
  661ERGO    R1 9998   7.646   6.756   6.239 -0.0921  0.2295 -0.0989
  661ERGO    R2 9999   7.641   7.020   6.161 -0.2232  0.2349 -0.0684
  661ERGO    R310000   7.509   7.054   6.397 -0.1330  0.1634 -0.0069
  661ERGO    R410001   7.683   7.289   6.374 -0.2743  0.2645 -0.0952
  661ERGO    R510002   7.673   7.151   6.542 -0.1167  0.2593 -0.0859
  661ERGO    C110003   7.585   7.478   6.719 -0.2193  0.2145 -0.0529
  661ERGO    C210004   7.568   7.719   6.969  0.0264 -0.3087 -0.3636
  662ERGO   ROH10005   0.769   5.181   5.570  0.4616 -0.1009  0.2612
  662ERGO    R110006   0.814   5.338   5.801  0.1622 -0.1437  0.3523
  662ERGO    R210007   0.705   5.590   5.834  0.3625 -0.0242  0.1139
  662ERGO    R310008   0.611   5.484   6.066 -0.2301  0.0840 -0.0580
  662ERGO    R410009   0.617   5.773   6.113  0.4567  0.0706  0.0826
  662ERGO    R510010   0.709   5.619   6.237 -0.0965 -0.2474  0.1415
  662ERGO    C110011   0.477   5.780   6.494 -0.0447  0.2273 -0.0971
  662ERGO    C210012   0.105   5.842   6.740 -0.3798  0.1223 -0.0001
  663ERGO   ROH10013  17.573   8.180   5.579  0.0440  0.2278 -0.0467
  663ERGO    R110014  17.471   7.949   5.707  0.0565  0.1238 -0.2209
  663ERGO    R210015  17.602   7.706   5.701  0.2109  0.2042 -0.1720
  663ERGO    R310016  17.579   7.724   5.972 -0.0663  0.1051 -0.1860
  663ERGO    R410017  17.631   7.440   5.920  0.3802  0.1844 -0.2174
  663ERGO    R510018  17.465   7.523   6.035  0.1525 -0.0745 -0.3464
  663ERGO    C110019  17.626   7.301   6.301  0.2189  0.0798 -0.2570
  663ERGO    C210020  17.597   7.026   6.509  0.0047 -0.0163  0.0501
  664ERGO   ROH10021   0.362   1.560   8.727  0.1577 -0.2107  0.0641
  664ERGO    R110022   0.400   1.665   8.466 -0.0062 -0.1416  0.0669
  664ERGO    R210023   0.578   1.555   8.286  0.0787  0.0682  0.0217
  664ERGO    R310024   0.360   1.546   8.125  0.0546 -0.1508  0.0623
  664ERGO    R410025   0.588   1.566   7.941  0.0137 -0.0997  0.0131
  664ERGO    R510026   0.413   1.696   7.946 -0.0690 -0.2058 -0.0233
  664ERGO    C110027   0.389   1.564   7.588 -0.0467 -0.4030  0.0464
  664ERGO    C210028   0.569   1.440   7.322  0.0658 -0.3392  0.1793
  665ERGO   ROH10029  17.473  14.375   9.216  0.0383 -0.1554  0.1042
  665ERGO    R110030  17.664  14.413   9.012 -0.0154 -0.0530  0.0744
  665ERGO    R210031  17.796  14.203   8.890  0.1468  0.0277  0.1285
  665ERGO    R310032  17.701  14.317   8.662  0.0359 -0.1228  0.0955
  665ERGO    R410033  17.915  14.137   8.572  0.3949  0.2183  0.1777
  665ERGO    R510034  17.896  14.349   8.527  0.0528  0.2053  0.1752
  665ERGO    C110035  17.895  14.205   8.174  0.4355  0.1880  0.1755
  665ERGO    C210036  17.959  14.237   7.834  0.0034  0.2670 -0.2121
  666ERGO   ROH10037  18.295  15.663   5.635 -0.1623 -0.1803  0.0761
  666ERGO    R110038  18.502  15.635   5.825 -0.0717 -0.1046 -0.0108
  666ERGO    R210039  18.697  15.827   5.862 -0.1042 -0.0505 -0.1195
  666ERGO    R310040  18.616  15.814   6.121  0.0127 -0.0403 -0.0812
  666ERGO    R410041  18.903  15.870   6.137  0.0878 -0.3676 -0.2082
  666ERGO    R510042  18.797  15.707   6.235 -0.0457 -0.2819 -0.2073
  666ERGO    C110043  18.946  15.883   6.540  0.3094 -0.5426 -0.2239
  666ERGO    C210044  19.252  16.033   6.735  0.2261  0.0175 -0.0799
  667ERGO   ROH10045  10.985   6.484   5.707 -0.0545 -0.1047 -0.1300
  667ERGO    R110046  11.224   6.586   5.818 -0.0876 -0.0690 -0.0909
  667ERGO    R210047  11.325   6.835   5.751 -0.0998 -0.0643 -0.0938
  667ERGO    R310048  11.320   6.874   6.020 -0.1590 -0.0396 -0.0985
  667ERGO    R410049  11.530   7.054   5.923 -0.0129 -0.1806 -0.0485
  667ERGO    R510050  11.550   6.904   6.081 -0.1574 -0.1813 -0.0297
  667ERGO    C110051  11.645   7.217   6.276 -0.0180 -0.2251 -0.0265
  667ERGO    C210052  11.579   7.510   6.491 -0.2586 -0.1435 -0.3046
  668ERGO   ROH10053  12.761  12.635   8.977  0.1186 -0.1053 -0.0927
  668ERGO    R110054  12.671  12.528   8.731  0.0660 -0.1623 -0.0481
  668ERGO    R210055  12.693  12.665   8.492 -0.2657 -0.0873 -0.0371
  668ERGO    R310056  12.819  12.438   8.412 -0.0572  0.0738 -0.1759
  668ERGO    R410057  12.728  12.565   8.163 -0.6026 -0.0865 -0.0765
  668ERGO    R510058  12.688  12.360   8.227 -0.2240 -0.1397  0.0230
  668ERGO    C110059  12.866  12.294   7.896 -0.6030  0.0652 -0.2298
  668ERGO    C210060  13.012  12.148   7.600 -0.1541  0.1887  0.0033
  669ERGO   ROH10061   8.502   1.038   9.699 -0.0206 -0.2325  0.0014
  669ERGO    R110062   8.412   1.091   9.436 -0.0257 -0.1317  0.0223
  669ERGO    R210063   8.448   1.337   9.313 -0.0902 -0.0591  0.1385
  669ERGO    R310064   8.564   1.187   9.119 -0.0381  0.0637  0.0749
  669ERGO    R410065   8.431   1.404   8.975 -0.2525 -0.0186  0.1548
  669ERGO    R510066   8.407   1.190   8.939 -0.0985 -0.0290  0.1282
  669ERGO    C110067   8.530   1.301   8.595 -0.2981  0.1201  0.1044
  669ERGO    C210068   8.719   1.280   8.379 -0.0821 -0.2183  0.2094
  670ERGO   ROH10069  10.388  15.083   5.978 -0.1238 -0.0454 -0.2237
  670ERGO    R110070  10.179  15.062   6.169 -0.0267  0.0134 -0.1091
  670ERGO    R210071  10.115  14.824   6.294 -0.0498  0.0215 -0.1011
  670ERGO    R310072  10.150  14.972   6.520  0.1357 -0.0173 -0.1033
  670ERGO    R410073   9.927  14.792   6.582 -0.1140  0.2858 -0.1114
  670ERGO    R510074   9.928  15.009   6.601  0.1790  0.2869 -0.1174
  670ERGO    C110075   9.850  14.911   6.962  0.0229  0.4033 -0.1194
  670ERGO    C210076   9.717  14.572   7.154 -0.2494 -0.1648 -0.0346
  671ERGO   ROH10077  13.153  15.926   6.160  0.1014 -0.1140  0.0355
  671ERGO    R110078  13.196  16.017   6.424  0.0767 -0.0613  0.0221
  671ERGO    R210079  13.017  16.179   6.557  0.0809 -0.0008 -0.0390
  671ERGO    R310080  13.028  15.984   6.746  0.0223  0.0365  0.0029
  671ERGO    R410081  12.816  16.164   6.838  0.0261  0.0709 -0.0743
  671ERGO    R510082  12.990  16.099   6.953 -0.0070  0.0767 -0.0281
  671ERGO    C110083  12.711  15.972   7.179 -0.0609  0.1474 -0.0556
  671ERGO    C210084  12.636  15.742   7.473  0.1608 -0.0320 -0.1966
  672ERGO   ROH10085   4.119  16.721   5.801  0.1425  0.1600 -0.0417
  672ERGO    R110086   4.072  16.576   6.039 -0.0674  0.1523 -0.0841
  672ERGO    R210087   4.273  16.519   6.220 -0.1423 -0.1835 -0.0884
  672ERGO    R310088   4.103  16.637   6.396  0.0128  0.0116 -0.0685
  672ERGO    R410089   4.293  16.491   6.564 -0.1078 -0.1408 -0.0879
  672ERGO    R510090   4.076  16.476   6.571 -0.1139  0.0751 -0.0374
  672ERGO    C110091   4.146  16.586   6.930  0.0580  0.0672 -0.0689
  672ERGO    C210092   4.118  16.459   7.234  0.1670  0.1159 -0.0291
  673ERGO   ROH10093  19.318   6.696   9.039  0.0840 -0.1829  0.1641
  673ERGO    R110094  19.333   6.838   8.795  0.0361 -0.1997  0.1517
  673ERGO    R210095  19.198   6.758   8.567 -0.0894 -0.1595  0.2117
  673ERGO    R310096  19.099   7.011   8.575  0.0095 -0.1210  0.2410
  673ERGO    R410097  19.132   6.952   8.289 -0.0184 -0.1024  0.2342
  673ERGO    R510098  19.213   7.124   8.397  0.0509 -0.1453  0.2516
  673ERGO    C110099  19.001   7.303   8.135  0.1156 -0.0331  0.2746
  673ERGO    C210100  19.046   7.324   7.828 -0.1812 -0.2594 -0.0173
  674PSPI    C110101   9.539   8.659   5.318 -0.0334 -0.2426 -0.0773
  674PSPI    C210102   9.459   8.467   5.660 -0.2622  0.2263  0.1410
  674PSPI    C310103   9.161   8.577   5.418 -0.1131  0.0585 -0.1238
  674PSPI   PO410104   9.681   8.805   5.360  0.2303  0.1224 -0.0248
  674PSPI   GL110105   9.848   9.132   5.654 -0.1837  0.1942  0.0185
  674PSPI   GL210106   9.624   9.017   5.889 -0.0569  0.1399 -0.0456
  674PSPI   C1A10107   9.934   9.373   6.084 -0.1352 -0.2607  0.3098
  674PSPI   C2A10108   9.912   9.691   6.418 -0.2428  0.0737 -0.2712
  674PSPI   C3A10109   9.958   9.783   6.782 -0.3190 -0.3632  0.1273
  674PSPI   C4A10110  10.008   9.836   7.176  0.1444  0.5218 -0.0566
  674PSPI   C1B10111   9.631   8.984   6.316  0.5985 -0.0735  0.1473
  674PSPI   C2B10112   9.997   9.000   6.642  0.1205  0.4696  0.0604
  674PSPI   C3B10113   9.850   8.784   7.009  0.1739  0.0371  0.0149
  674PSPI   C4B10114   9.855   8.744   7.510 -0.2307 -0.4304 -0.3749
  675PSPI    C110115  14.911  11.165   5.077  0.0502  0.0198 -0.1587
  675PSPI    C210116  15.289  11.264   4.994  0.0653  0.0378 -0.0685
  675PSPI    C310117  15.066  11.080   4.718  0.0642  0.2455 -0.2080
  675PSPI   PO410118  14.980  11.068   5.406  0.0934  0.0605  0.0423
  675PSPI   GL110119  14.909  10.974   5.843 -0.0482  0.1557 -0.0509
  675PSPI   GL210120  14.675  10.755   6.027  0.2002  0.0105 -0.2193
  675PSPI   C1A10121  15.188  11.253   6.058  0.1259  0.3726  0.1797
  675PSPI   C2A10122  15.287  11.595   6.295 -0.0047 -0.0699  0.1707
  675PSPI   C3A10123  15.063  11.752   6.549 -0.1655  0.1179 -0.2974
  675PSPI   C4A10124  14.605  11.499   6.667  0.3831 -0.2147 -0.0656
  675PSPI   C1B10125  14.996  10.760   6.328  0.4098 -0.4536 -0.1385
  675PSPI   C2B10126  15.138  10.730   6.714  0.1571 -0.0461  0.1551
  675PSPI   C3B10127  14.934  10.850   7.160 -0.1411  0.1823  0.2940
  675PSPI   C4B10128  14.957  10.929   7.548  0.0405 -0.1816  0.2187
  676PSPI    C110129   3.316   0.866   5.095  0.2344  0.0144  0.0426
  676PSPI    C210130   3.446   0.682   4.765  0.0157  0.0790 -0.0813
  676PSPI    C310131   3.540   1.065   4.830  0.0592  0.0661 -0.0681
  676PSPI   PO410132   3.144   0.741   5.128  0.0676  0.3086 -0.0561
  676PSPI   GL110133   2.986   0.438   5.444 -0.1930 -0.1306 -0.1135
  676PSPI   GL210134   2.760   0.736   5.486  0.0086 -0.0618  0.2900
  676PSPI   C1A10135   2.954   0.365   5.901 -0.4874 -0.3646 -0.0287
  676PSPI   C2A10136   2.693   0.268   6.259 -0.2936  0.0500 -0.0255
  676PSPI   C3A10137   2.629   0.581   6.666 -0.2515  0.0809  0.3684
  676PSPI   C4A10138   2.725   0.792   7.098  0.0376 -0.1426 -0.0789
  676PSPI   C1B10139   2.914   0.871   5.832  0.0140 -0.0838  0.2338
  676PSPI   C2B10140   3.071   0.693   6.261  0.1803  0.1024  0.5237
  676PSPI   C3B10141   3.101   0.869   6.637 -0.0990 -0.3168 -0.1023
  676PSPI   C4B10142   3.314   0.715   7.074 -0.2258 -0.2440 -0.0128
  677PSPI    C110143  16.201   4.482   4.774 -0.0793 -0.1003 -0.0328
  677PSPI    C210144  16.148   4.778   4.511  0.1464  0.0005  0.0330
  677PSPI    C310145  16.230   4.409   4.382 -0.1450 -0.0377 -0.0496
  677PSPI   PO410146  16.013   4.454   4.991  0.2352 -0.0066  0.0254
  677PSPI   GL110147  15.791   4.652   5.366  0.3355  0.0451  0.3309
  677PSPI   GL210148  15.778   4.970   5.350 -0.0703  0.2342 -0.1668
  677PSPI   C1A10149  15.940   4.621   5.738 -0.0227  0.1792  0.0686
  677PSPI   C2A10150  15.979   4.444   6.203 -0.0174  0.2893  0.3278
  677PSPI   C3A10151  15.936   4.209   6.539 -0.3178  0.0019 -0.2751
  677PSPI   C4A10152  15.697   3.950   6.767  0.1394  0.4003 -0.1284
  677PSPI   C1B10153  15.530   4.924   5.772  0.0047 -0.2583  0.0018
  677PSPI   C2B10154  15.622   4.782   6.079 -0.0565  0.0056  0.1407
  677PSPI   C3B10155  15.467   4.618   6.368 -0.2849  0.3053 -0.0980
  677PSPI   C4B10156  15.613   4.601   6.801 -0.1105 -0.2050  0.0812
  678PSPI    C110157  14.164  17.968   5.095  0.2284  0.2071 -0.0830
  678PSPI    C210158  14.336  18.172   4.797  0.1481  0.0873 -0.2119
  678PSPI    C310159  13.951  18.236   4.887  0.1676  0.1110 -0.1454
  678PSPI   PO410160  14.391  18.041   5.317  0.2905 -0.1266  0.1011
  678PSPI   GL110161  14.405  18.033   5.689  0.0472 -0.0836 -0.0882
  678PSPI   GL210162  14.082  18.058   5.729  0.0260 -0.0098 -0.0313
  678PSPI   C1A10163  14.639  17.754   5.882  0.1357  0.2540 -0.1795
  678PSPI   C2A10164  14.791  17.722   6.244  0.3313 -0.2219  0.2133
  678PSPI   C3A10165  14.923  17.932   6.630  0.2204  0.1618  0.0672
  678PSPI   C4A10166  14.996  18.225   6.874 -0.3130  0.2319 -0.1686
  678PSPI   C1B10167  13.707  17.918   5.958  0.1102  0.0757 -0.0351
  678PSPI   C2B10168  13.767  17.656   6.320  0.1376  0.0615 -0.0609
  678PSPI   C3B10169  13.952  17.658   6.773 -0.1408  0.2697 -0.0704
  678PSPI   C4B10170  14.322  17.506   7.120  0.0590  0.0531  0.1545
  679PSPI    C110171   2.353   2.376   4.723  0.1694  0.1498  0.1500
  679PSPI    C210172   1.974   2.499   4.695  0.1347  0.0028 -0.0493
  679PSPI    C310173   2.231   2.574   4.398  0.2592  0.0889  0.0786
  679PSPI   PO410174   2.523   2.489   5.004  0.0611 -0.1609 -0.1281
  679PSPI   GL110175   2.400   2.660   5.500  0.0648 -0.2731 -0.1395
  679PSPI   GL210176   2.451   2.336   5.514 -0.0794  0.1260  0.3306
  679PSPI   C1A10177   2.436   2.913   5.830 -0.0056  0.1019  0.3281
  679PSPI   C2A10178   2.314   3.118   6.171 -0.1150 -0.0171 -0.1714
  679PSPI   C3A10179   2.342   2.968   6.582 -0.3426 -0.1149 -0.0119
  679PSPI   C4A10180   2.465   2.760   6.944  0.2168 -0.1674  0.0219
  679PSPI   C1B10181   2.713   2.284   5.836 -0.0215 -0.0975  0.1393
  679PSPI   C2B10182   2.782   2.143   6.284  0.1154  0.0118 -0.1221
  679PSPI   C3B10183   2.700   1.871   6.685  0.2578 -0.3442 -0.0394
  679PSPI   C4B10184   2.431   1.722   7.016  0.2227 -0.3797  0.0196
  680PSPI    C110185   5.425   3.900   4.746  0.0689 -0.1632 -0.0372
  680PSPI    C210186   5.751   3.783   4.546  0.1158 -0.0434 -0.0310
  680PSPI    C310187   5.588   4.141   4.472 -0.2396 -0.2569 -0.3091
  680PSPI   PO410188   5.505   3.833   4.992 -0.0530 -0.0585 -0.2347
  680PSPI   GL110189   5.274   4.006   5.351  0.2283 -0.0152  0.0034
  680PSPI   GL210190   5.132   3.772   5.306  0.1193  0.1846 -0.0060
  680PSPI   C1A10191   5.374   3.964   5.854  0.0714  0.0343 -0.1281
  680PSPI   C2A10192   5.363   4.225   6.197 -0.0366 -0.0664  0.0251
  680PSPI   C3A10193   5.381   4.074   6.622  0.1186  0.0906  0.0921
  680PSPI   C4A10194   5.600   4.078   7.000  0.2579  0.1423 -0.3646
  680PSPI   C1B10195   4.881   3.872   5.763  0.2458 -0.1235  0.2107
  680PSPI   C2B10196   4.837   3.923   6.050  0.0062  0.1765  0.1268
  680PSPI   C3B10197   4.870   4.224   6.495 -0.0749  0.1006 -0.0132
  680PSPI   C4B10198   5.204   4.553   6.603  0.0608 -0.0491 -0.0707
  681PSPI    C110199   1.174  10.859   5.528 -0.0585 -0.1559  0.0109
  681PSPI    C210200   1.022  11.075   5.228  0.4541  0.1234 -0.0578
  681PSPI    C310201   0.860  11.100   5.593  0.1388  0.1643 -0.1970
  681PSPI   PO410202   1.392  10.939   5.566  0.1817 -0.0721  0.4471
  681PSPI   GL110203   1.714  10.831   5.950  0.0101 -0.2995  0.1179
  681PSPI   GL210204   2.027  10.735   5.875  0.1387  0.2153 -0.1165
  681PSPI   C1A10205   1.659  10.795   6.467  0.4089  0.3646  0.2409
  681PSPI   C2A10206   1.739  10.977   6.821 -0.3177  0.0176 -0.1077
  681PSPI   C3A10207   1.634  10.794   7.213  0.3209  0.1958  0.0941
  681PSPI   C4A10208   1.437  10.799   7.610 -0.0539 -0.1883 -0.0126
  681PSPI   C1B10209   2.116  10.788   6.271 -0.1110 -0.0862 -0.0815
  681PSPI   C2B10210   2.185  10.849   6.672 -0.3447 -0.0580 -0.0792
  681PSPI   C3B10211   2.483  11.093   7.008  0.0304 -0.0554 -0.1661
  681PSPI   C4B10212   2.609  11.285   7.345 -0.1117  0.1195 -0.2190
  682PSPI    C110213  10.761   2.604   5.624  0.0463  0.0824  0.4268
  682PSPI    C210214  10.381   2.692   5.534  0.1369  0.2956  0.2404
  682PSPI    C310215  10.473   2.335   5.689 -0.1248  0.2038  0.1897
  682PSPI   PO410216  10.860   2.759   5.888  0.5798 -0.1770  0.2947
  682PSPI   GL110217  10.831   2.761   6.378 -0.1281  0.2313 -0.0584
  682PSPI   GL210218  10.511   2.949   6.408 -0.2284  0.0166 -0.2095
  682PSPI   C1A10219  11.022   3.019   6.611 -0.1042  0.0590  0.0339
  682PSPI   C2A10220  11.024   2.999   7.040  0.0372  0.1244 -0.3510
  682PSPI   C3A10221  10.964   2.938   7.516 -0.2295  0.1531  0.2626
  682PSPI   C4A10222  11.266   3.256   7.850 -0.1776  0.0517  0.1962
  682PSPI   C1B10223  10.581   3.077   6.852  0.2317  0.0484  0.0268
  682PSPI   C2B10224  10.537   2.960   7.233 -0.4037 -0.0896 -0.2817
  682PSPI   C3B10225  10.578   2.602   7.507 -0.0362  0.1684 -0.2241
  682PSPI   C4B10226  10.749   2.146   7.412 -0.1426 -0.4344  0.1608
  683PSPI    C110227  15.980  10.501   5.130  0.2685 -0.1537 -0.0736
  683PSPI    C210228  16.061  10.361   4.764  0.2746 -0.2312 -0.0428
  683PSPI    C310229  16.206  10.716   4.879  0.1280 -0.1253 -0.1779
  683PSPI   PO410230  15.956  10.227   5.290  0.0043  0.0451  0.4473
  683PSPI   GL110231  16.007   9.941   5.645 -0.0299  0.0314 -0.1853
  683PSPI   GL210232  16.384  10.056   5.492 -0.0449  0.0549  0.1682
  683PSPI   C1A10233  15.819   9.887   6.081 -0.0642  0.1271 -0.2323
  683PSPI   C2A10234  15.711   9.553   6.389  0.0114  0.1740  0.0283
  683PSPI   C3A10235  15.400   9.428   6.656 -0.0664 -0.2170  0.2038
  683PSPI   C4A10236  15.295   9.433   7.048  0.1592 -0.1265  0.0458
  683PSPI   C1B10237  16.424  10.036   5.929 -0.3778  0.2536 -0.1963
  683PSPI   C2B10238  16.263  10.056   6.413 -0.2126 -0.0333  0.0435
  683PSPI   C3B10239  16.353   9.943   6.777 -0.3967  0.1797  0.2155
  683PSPI   C4B10240  16.507   9.994   7.170 -0.4240 -0.0939 -0.1564
  684PSPI    C110241   9.434  16.470   5.002 -0.0152 -0.0216  0.0427
  684PSPI    C210242   9.051  16.526   4.901 -0.0611 -0.1872  0.1212
  684PSPI    C310243   9.252  16.211   4.758  0.0749 -0.0494  0.0046
  684PSPI   PO410244   9.455  16.512   5.299 -0.1490  0.2079  0.1593
  684PSPI   GL110245   9.747  16.544   5.436 -0.1686 -0.0376 -0.3101
  684PSPI   GL210246  10.032  16.489   5.528 -0.6737 -0.0860 -0.0486
  684PSPI   C1A10247   9.687  16.552   5.938 -0.4265  0.0461 -0.2102
  684PSPI   C2A10248   9.779  16.508   6.385  0.2428 -0.0295 -0.1461
  684PSPI   C3A10249  10.102  16.748   6.632 -0.0632  0.1041 -0.0538
  684PSPI   C4A10250  10.478  16.800   6.770 -0.1417  0.2804 -0.0081
  684PSPI   C1B10251  10.238  16.484   5.964  0.3459  0.2578 -0.1381
  684PSPI   C2B10252  10.403  16.397   6.412 -0.1584 -0.1299  0.0257
  684PSPI   C3B10253  10.633  16.257   6.840 -0.2156 -0.0718  0.0223
  684PSPI   C4B10254  10.952  16.300   7.159  0.2132 -0.0119  0.0627
  685PSPI    C110255  11.518  11.695   4.732 -0.0767  0.1627 -0.1116
  685PSPI    C210256  11.292  11.371   4.675  0.1649 -0.0168 -0.0666
  685PSPI    C310257  11.588  11.456   4.420  0.0708  0.1982 -0.1068
  685PSPI   PO410258  11.360  11.850   5.011 -0.1991 -0.0268 -0.0896
  685PSPI   GL110259  11.385  11.482   5.204  0.1511  0.0938 -0.1543
  685PSPI   GL210260  11.329  11.206   5.181  0.4290 -0.1726 -0.3831
  685PSPI   C1A10261  11.474  11.356   5.636  0.1078 -0.0548  0.0475
  685PSPI   C2A10262  11.540  11.222   6.075  0.0055 -0.0784  0.0305
  685PSPI   C3A10263  11.365  10.704   6.177  0.1119 -0.0789 -0.1589
  685PSPI   C4A10264  11.234  10.353   6.330 -0.0936  0.0926  0.0477
  685PSPI   C1B10265  10.940  11.253   5.480  0.1050  0.2543  0.1531
  685PSPI   C2B10266  10.598  11.242   5.762 -0.0864  0.1326  0.1313
  685PSPI   C3B10267  10.286  11.226   6.095  0.0228  0.0860  0.2744
  685PSPI   C4B10268   9.850  11.134   6.092 -0.1659  0.2417 -0.1876
  686PSPI    C110269   7.684   6.579   5.135 -0.1853 -0.1220  0.0750
  686PSPI    C210270   7.443   6.270   5.214 -0.2166 -0.1166  0.0015
  686PSPI    C310271   7.424   6.452   4.858 -0.0092 -0.2030 -0.0547
  686PSPI   PO410272   7.916   6.420   5.230  0.2679 -0.0010  0.0747
  686PSPI   GL110273   7.904   6.180   5.519 -0.0061 -0.0022  0.0159
  686PSPI   GL210274   8.125   6.326   5.667  0.1527  0.0615 -0.0752
  686PSPI   C1A10275   7.787   6.060   5.970  0.2182  0.0410 -0.4623
  686PSPI   C2A10276   7.707   5.803   6.280 -0.0087 -0.3024 -0.0109
  686PSPI   C3A10277   7.436   5.717   6.665 -0.5520  0.0830  0.1918
  686PSPI   C4A10278   7.379   5.655   7.015  0.0561 -0.1767  0.2186
  686PSPI   C1B10279   8.060   6.607   6.007 -0.2592 -0.3060 -0.3420
  686PSPI   C2B10280   8.123   6.733   6.395  0.0710 -0.0007  0.2787
  686PSPI   C3B10281   8.083   7.013   6.776  0.0149 -0.1033 -0.1786
  686PSPI   C4B10282   7.808   7.174   7.050  0.1572 -0.0630  0.0961
  687PSPI    C110283  13.894  13.746   5.068  0.0749  0.0194  0.1967
  687PSPI    C210284  13.613  13.843   4.801  0.2552  0.0996  0.0336
  687PSPI    C310285  13.605  13.485   4.979  0.2128 -0.0091 -0.1843
  687PSPI   PO410286  14.003  13.962   5.259  0.0314  0.0698  0.1498
  687PSPI   GL110287  13.892  14.229   5.593  0.1440 -0.1879 -0.2765
  687PSPI   GL210288  14.207  14.134   5.710  0.2654 -0.2458  0.1431
  687PSPI   C1A10289  13.922  14.193   6.088  0.1020 -0.0056  0.1958
  687PSPI   C2A10290  13.820  14.021   6.522  0.1935  0.0201 -0.4175
  687PSPI   C3A10291  14.049  13.642   6.737 -0.2507  0.0689  0.0569
  687PSPI   C4A10292  14.117  13.502   7.047  0.2125  0.2643 -0.2730
  687PSPI   C1B10293  14.389  14.317   6.072  0.0424  0.1228 -0.0088
  687PSPI   C2B10294  14.438  14.551   6.499  0.0127 -0.1280 -0.1362
  687PSPI   C3B10295  14.327  14.530   6.915 -0.1399 -0.2532 -0.3156
  687PSPI   C4B10296  14.102  14.827   7.232 -0.2094  0.2120 -0.0445
  688PSPI    C110297   6.319  18.100   5.116 -0.0777 -0.0270  0.1074
  688PSPI    C210298   5.932  18.083   5.016 -0.0263  0.0460 -0.1104
  688PSPI    C310299   6.116  17.759   5.163 -0.1703  0.0125 -0.0018
  688PSPI   PO410300   6.388  18.311   5.243 -0.0611 -0.2986 -0.0923
  688PSPI   GL110301   6.427  18.217   5.731  0.1238  0.0276 -0.1821
  688PSPI   GL210302   6.722  18.086   5.820 -0.3771 -0.2254 -0.3767
  688PSPI   C1A10303   6.091  18.311   6.049 -0.1606  0.5212 -0.0692
  688PSPI   C2A10304   5.701  18.177   6.232 -0.1990  0.0291 -0.5761
  688PSPI   C3A10305   5.315  18.078   6.167  0.0977  0.0901 -0.0749
  688PSPI   C4A10306   4.911  17.948   6.287 -0.1859 -0.0146  0.0896
  688PSPI   C1B10307   6.609  18.135   6.227  0.1173 -0.3920  0.0751
  688PSPI   C2B10308   6.507  18.154   6.691  0.1003 -0.0355  0.1758
  688PSPI   C3B10309   6.542  17.851   6.950 -0.2421  0.3706 -0.1619
  688PSPI   C4B10310   6.349  17.368   6.802 -0.0754 -0.0010  0.1018
  689PSPI    C110311  18.475   7.227   5.219 -0.0019  0.1730  0.0177
  689PSPI    C210312  18.799   7.304   4.997  0.0728  0.0235  0.0734
  689PSPI    C310313  18.840   7.154   5.365 -0.0633 -0.1141  0.0337
  689PSPI   PO410314  18.358   7.518   5.291 -0.2156 -0.1389 -0.0351
  689PSPI   GL110315  18.384   7.646   5.757 -0.3272 -0.1290  0.0809
  689PSPI   GL210316  18.077   7.687   5.917  0.2888 -0.1777  0.4347
  689PSPI   C1A10317  18.429   7.629   6.208 -0.2228  0.0286  0.0288
  689PSPI   C2A10318  18.442   7.334   6.499 -0.4432  0.4200  0.1284
  689PSPI   C3A10319  18.340   7.135   6.806  0.1309  0.1010 -0.2888
  689PSPI   C4A10320  18.432   6.820   7.151  0.0002  0.3270  0.3325
  689PSPI   C1B10321  17.953   7.807   6.238 -0.3079  0.1136  0.0227
  689PSPI   C2B10322  17.937   8.088   6.594  0.1881 -0.2403  0.0776
  689PSPI   C3B10323  17.949   7.936   6.969 -0.0351  0.0517  0.0336
  689PSPI   C4B10324  18.102   7.555   7.213 -0.2745  0.0336 -0.2315
  690PSPI    C110325   7.460   3.818   5.373  0.1229 -0.0630  0.0027
  690PSPI    C210326   7.208   4.071   5.192  0.2718  0.0497 -0.0494
  690PSPI    C310327   7.405   3.797   4.977  0.2694  0.0276 -0.0234
  690PSPI   PO410328   7.312   3.797   5.636 -0.0354 -0.1755 -0.1299
  690PSPI   GL110329   7.048   3.546   5.794  0.1252  0.1389  0.4123
  690PSPI   GL210330   6.704   3.452   5.822 -0.1679 -0.0107 -0.0142
  690PSPI   C1A10331   7.004   3.712   6.161 -0.0189  0.6450  0.0921
  690PSPI   C2A10332   6.685   3.676   6.519 -0.2496  0.4462 -0.4893
  690PSPI   C3A10333   6.582   4.044   6.798  0.3967 -0.3377 -0.4002
  690PSPI   C4A10334   6.492   4.508   6.969  0.0670 -0.2162 -0.2751
  690PSPI   C1B10335   6.575   3.309   6.243  0.1467  0.0616  0.1640
  690PSPI   C2B10336   6.585   3.144   6.670 -0.2132  0.1935  0.1100
  690PSPI   C3B10337   6.549   2.949   7.079 -0.2165 -0.2078  0.0273
  690PSPI   C4B10338   6.493   3.195   7.479  0.1716  0.1459 -0.1286
  691PSPI    C110339   5.449   2.746   5.163  0.1001 -0.1326 -0.0092
  691PSPI    C210340   5.744   2.623   4.922  0.2020  0.6117 -0.2941
  691PSPI    C310341   5.367   2.628   4.789  0.1003  0.0216 -0.0590
  691PSPI   PO410342   5.514   2.827   5.309 -0.0444  0.0974 -0.0184
  691PSPI   GL110343   5.632   2.616   5.742 -0.0452  0.1579 -0.2225
  691PSPI   GL210344   5.790   2.709   6.013  0.1031 -0.0871 -0.1191
  691PSPI   C1A10345   5.574   2.264   6.113  0.5570 -0.1753  0.0965
  691PSPI   C2A10346   5.387   1.986   6.333  0.1038 -0.1696 -0.0483
  691PSPI   C3A10347   5.264   1.789   6.637 -0.3339 -0.0571 -0.0088
  691PSPI   C4A10348   5.137   1.922   6.956  0.2082 -0.2805  0.2816
  691PSPI   C1B10349   5.895   3.087   5.946 -0.0160  0.0280  0.1155
  691PSPI   C2B10350   5.735   3.532   5.990  0.0262 -0.0765 -0.2233
  691PSPI   C3B10351   5.862   3.893   6.106 -0.0469  0.3100  0.2636
  691PSPI   C4B10352   5.855   4.205   6.275 -0.0160  0.0264  0.0216
  692PSPI    C110353   2.661   8.706   5.195 -0.2334 -0.1429 -0.0440
  692PSPI    C210354   2.675   8.867   4.829  0.1838 -0.1231 -0.0241
  692PSPI    C310355   3.001   8.692   4.983 -0.0474 -0.3144  0.2578
  692PSPI   PO410356   2.480   8.971   5.358  0.1657  0.1882 -0.2015
  692PSPI   GL110357   2.514   9.223   5.775  0.2973 -0.3082  0.0668
  692PSPI   GL210358   2.553   9.563   5.730  0.2644 -0.1903  0.2805
  692PSPI   C1A10359   2.245   9.232   6.205 -0.0353 -0.0178  0.3805
  692PSPI   C2A10360   2.135   9.227   6.572 -0.2415 -0.2089 -0.0070
  692PSPI   C3A10361   2.128   9.464   6.952  0.1141  0.1904 -0.0472
  692PSPI   C4A10362   2.212   9.978   6.916 -0.0797  0.2080  0.0386
  692PSPI   C1B10363   2.716   9.627   6.133  0.2007  0.1830 -0.0386
  692PSPI   C2B10364   2.893   9.320   6.430 -0.0177 -0.0031 -0.0621
  692PSPI   C3B10365   3.132   9.143   6.797  0.2231  0.3972  0.2058
  692PSPI   C4B10366   3.585   8.903   6.801 -0.3908  0.0307  0.1404
  693PSPI    C110367  18.510   1.605   4.843  0.1039 -0.0879  0.1132
  693PSPI    C210368  18.171   1.731   5.013  0.0529 -0.1693  0.0720
  693PSPI    C310369  18.239   1.802   4.625  0.0207 -0.2739  0.0470
  693PSPI   PO410370  18.675   1.652   5.000 -0.3212  0.0827 -0.0854
  693PSPI   GL110371  18.653   1.880   5.366  0.1013  0.0103 -0.0739
  693PSPI   GL210372  18.763   1.656   5.480  0.1460  0.1084 -0.0782
  693PSPI   C1A10373  18.553   1.980   5.867  0.1414  0.0938 -0.0785
  693PSPI   C2A10374  18.106   1.896   6.017 -0.1743  0.0796  0.3055
  693PSPI   C3A10375  17.784   2.080   6.378  0.0209 -0.1428  0.1967
  693PSPI   C4A10376  17.991   2.049   6.858  0.1142 -0.1786  0.2134
  693PSPI   C1B10377  18.876   1.595   5.937 -0.1999 -0.0354 -0.0228
  693PSPI   C2B10378  19.088   1.260   6.241  0.2387 -0.1157  0.0175
  693PSPI   C3B10379  18.825   1.021   6.529 -0.3658  0.1234 -0.0806
  693PSPI   C4B10380  18.421   1.004   6.582 -0.0145 -0.4417 -0.1075
  694POPI    C110381   3.323  10.574   5.056  0.1344 -0.0637 -0.3826
  694POPI    C210382   3.375  10.948   4.923 -0.3950  0.1421 -0.0469
  694POPI    C310383   3.060  10.734   4.800 -0.2178 -0.1153 -0.0626
  694POPI   PO410384   3.647  10.625   5.284  0.2277 -0.3801  0.4157
  694POPI   GL110385   3.736  10.360   5.656 -0.1498 -0.1940 -0.0373
  694POPI   GL210386   3.829  10.713   5.692 -0.0218 -0.1012 -0.1401
  694POPI   C1A10387   3.858  10.363   6.140 -0.0810  0.0598 -0.2610
  694POPI   D2A10388   3.828  10.496   6.545 -0.1624  0.3548 -0.2900
  694POPI   C3A10389   4.063  10.525   6.844  0.1209 -0.3418 -0.1103
  694POPI   C4A10390   4.520  10.641   7.179  0.0824 -0.3203  0.1453
  694POPI   C1B10391   4.038  10.839   6.111  0.0677  0.1021 -0.0327
  694POPI   C2B10392   4.002  10.971   6.546 -0.1439 -0.0506  0.2816
  694POPI   C3B10393   4.158  11.019   6.967 -0.2612  0.1615 -0.1483
  694POPI   C4B10394   3.998  10.795   7.375 -0.1320  0.1344 -0.0719
  695POPI    C110395   2.456   7.909   4.788  0.0605 -0.0285 -0.1134
  695POPI    C210396   2.368   7.655   4.492 -0.0325  0.1480 -0.2393
  695POPI    C310397   2.074   7.823   4.705  0.0354 -0.0140 -0.0139
  695POPI   PO410398   2.654   7.833   5.051  0.0035 -0.0894  0.1990
  695POPI   GL110399   2.629   7.916   5.452 -0.2578 -0.2778 -0.0200
  695POPI   GL210400   2.390   8.044   5.730 -0.2670 -0.3876  0.0107
  695POPI   C1A10401   2.993   7.772   5.686 -0.1218 -0.0296  0.1161
  695POPI   D2A10402   3.254   7.916   6.002 -0.0518  0.0544 -0.2590
  695POPI   C3A10403   3.146   8.381   6.263 -0.0962  0.2142  0.0658
  695POPI   C4A10404   2.877   8.450   6.660 -0.0104 -0.0723  0.3597
  695POPI   C1B10405   2.252   8.337   6.013 -0.2786 -0.2954 -0.0130
  695POPI   C2B10406   2.431   8.400   6.389  0.2397 -0.1337  0.1306
  695POPI   C3B10407   2.227   8.293   6.824  0.0522  0.3918  0.0273
  695POPI   C4B10408   1.949   8.125   7.105 -0.4426 -0.1756 -0.1416
  696POPI    C110409  14.527   2.087   5.139  0.0913 -0.0189 -0.1193
  696POPI    C210410  14.753   1.930   4.849  0.0609 -0.0247 -0.1398
  696POPI    C310411  14.452   2.176   4.756  0.2139  0.1804 -0.0983
  696POPI   PO410412  14.747   2.184   5.336 -0.1343 -0.3661  0.2586
  696POPI   GL110413  14.872   2.296   5.745  0.3544  0.1370  0.3273
  696POPI   GL210414  14.569   2.116   5.859  0.2203  0.1174 -0.2930
  696POPI   C1A10415  15.290   2.308   6.022  0.1805  0.0664  0.2636
  696POPI   D2A10416  15.332   2.353   6.501 -0.1692 -0.3736  0.1239
  696POPI   C3A10417  15.518   2.103   6.745 -0.3075  0.2517 -0.0989
  696POPI   C4A10418  15.569   1.672   6.956 -0.0654 -0.0474 -0.0930
  696POPI   C1B10419  14.926   1.849   6.080 -0.1046 -0.0701  0.1457
  696POPI   C2B10420  15.036   1.939   6.496  0.1358 -0.0207 -0.1699
  696POPI   C3B10421  14.972   2.066   6.783 -0.0638 -0.1154  0.3122
  696POPI   C4B10422  15.121   1.760   7.130 -0.1967 -0.4978  0.0015
  697POPI    C110423  14.823  12.325   5.509  0.0234 -0.0162  0.1023
  697POPI    C210424  14.447  12.453   5.557 -0.0526 -0.2191  0.0592
  697POPI    C310425  14.620  12.471   5.197  0.0871  0.1557  0.1399
  697POPI   PO410426  14.877  12.103   5.575  0.1037  0.1241 -0.1481
  697POPI   GL110427  14.987  11.735   5.835  0.4140 -0.1265 -0.3714
  697POPI   GL210428  15.011  12.066   6.058 -0.1436  0.2136 -0.0827
  697POPI   C1A10429  14.642  11.529   6.096 -0.0574  0.0514  0.0267
  697POPI   D2A10430  14.649  11.115   6.336 -0.1207 -0.1226 -0.2292
  697POPI   C3A10431  14.639  11.005   6.780  0.0264  0.2769  0.4761
  697POPI   C4A10432  14.647  11.246   7.149  0.0120 -0.3574 -0.2111
  697POPI   C1B10433  15.067  12.298   6.485  0.2140  0.2469  0.1302
  697POPI   C2B10434  15.198  12.285   6.863 -0.1152 -0.0731 -0.0427
  697POPI   C3B10435  15.311  12.442   7.285  0.2245 -0.2395 -0.1311
  697POPI   C4B10436  15.471  12.347   7.682 -0.2688 -0.0393 -0.2287
  698POPI    C110437   1.163  11.662   5.401  0.1059 -0.0986  0.0587
  698POPI    C210438   1.149  11.645   5.002 -0.0436  0.2693  0.0448
  698POPI    C310439   1.153  12.000   5.187  0.0459  0.1016  0.3712
  698POPI   PO410440   1.237  11.418   5.564  0.0099  0.0641 -0.0512
  698POPI   GL110441   1.343  11.201   6.013  0.0823 -0.2935  0.1780
  698POPI   GL210442   1.305  11.630   5.992 -0.3177 -0.3440  0.3596
  698POPI   C1A10443   1.201  10.947   6.363  0.0088  0.1302 -0.2417
  698POPI   D2A10444   1.250  10.915   6.819 -0.1045 -0.0133 -0.2415
  698POPI   C3A10445   0.940  11.180   7.106  0.1217  0.1202  0.4218
  698POPI   C4A10446   0.729  11.594   7.112 -0.3357  0.0600  0.3525
  698POPI   C1B10447   1.010  11.453   6.320 -0.2822  0.2248 -0.0550
  698POPI   C2B10448   0.830  11.184   6.599 -0.1801 -0.0275 -0.2244
  698POPI   C3B10449   0.841  10.707   6.687 -0.2680  0.2522 -0.1260
  698POPI   C4B10450   1.172  10.418   6.776 -0.4779  0.1492 -0.1837
  699POPI    C110451  13.359   3.176   5.190  0.0991  0.2380 -0.1811
  699POPI    C210452  13.715   3.005   5.126  0.0102  0.0016 -0.0578
  699POPI    C310453  13.411   2.934   4.876 -0.0330 -0.0385  0.0056
  699POPI   PO410454  13.477   3.423   5.274  0.1470 -0.1369  0.1391
  699POPI   GL110455  13.548   3.556   5.707  0.3163  0.0691  0.2417
  699POPI   GL210456  13.132   3.515   5.671  0.2375 -0.0495 -0.0868
  699POPI   C1A10457  13.320   3.592   6.124  0.1061  0.1851  0.2106
  699POPI   D2A10458  12.945   3.634   6.428 -0.4186 -0.2100  0.0478
  699POPI   C3A10459  13.037   3.677   6.821  0.2419  0.0276  0.2298
  699POPI   C4A10460  13.283   3.651   7.126 -0.3947  0.2003 -0.1193
  699POPI   C1B10461  12.890   3.347   5.943 -0.0843 -0.0786  0.0823
  699POPI   C2B10462  12.758   2.934   6.104  0.1919 -0.0556  0.0664
  699POPI   C3B10463  12.852   2.655   6.285 -0.0690  0.1718  0.0855
  699POPI   C4B10464  12.656   2.245   6.344  0.0746  0.0442 -0.0135
  700POPI    C110465  10.786  10.201   4.514  0.0235  0.3769  0.2034
  700POPI    C210466  10.418  10.114   4.384  0.1887  0.2293 -0.1798
  700POPI    C310467  10.508  10.487   4.495 -0.1967  0.1768  0.3474
  700POPI   PO410468  10.899  10.029   4.666  0.0321 -0.1507  0.1965
  700POPI   GL110469  10.904   9.960   4.978 -0.0861  0.0658 -0.4466
  700POPI   GL210470  10.733  10.071   5.199  0.2062 -0.1138  0.0419
  700POPI   C1A10471  11.110  10.185   5.419 -0.1790 -0.1817  0.3299
  700POPI   D2A10472  11.041  10.457   5.852 -0.1862 -0.0461  0.2679
  700POPI   C3A10473  11.201  10.851   5.745  0.0359 -0.0029 -0.0409
  700POPI   C4A10474  11.067  11.193   5.945  0.2115  0.0233  0.1634
  700POPI   C1B10475  10.732  10.064   5.699 -0.0523  0.1679 -0.2341
  700POPI   C2B10476  10.503  10.344   6.016 -0.1009 -0.1294  0.0191
  700POPI   C3B10477  10.703  10.543   6.381 -0.1640  0.2485 -0.1251
  700POPI   C4B10478  10.636  10.497   6.883  0.1698  0.0643  0.4897
  701POPI    C110479   1.621  11.789   5.643 -0.0142  0.0937 -0.0061
  701POPI    C210480   1.998  11.705   5.540  0.0468 -0.0146  0.2931
  701POPI    C310481   1.721  11.761   5.257  0.3104  0.1832  0.0683
  701POPI   PO410482   1.608  11.995   5.859 -0.1434 -0.3150 -0.0575
  701POPI   GL110483   1.462  12.183   6.237  0.0291 -0.2039  0.0649
  701POPI   GL210484   1.501  12.385   6.470  0.0432 -0.0950 -0.2149
  701POPI   C1A10485   1.068  12.070   6.425 -0.1983  0.0678  0.3412
  701POPI   D2A10486   0.675  12.281   6.432  0.1225 -0.1935  0.2164
  701POPI   C3A10487   0.683  12.775   6.430  0.1348 -0.0035  0.0531
  701POPI   C4A10488   0.255  12.933   6.338 -0.1102  0.0968  0.0825
  701POPI   C1B10489   1.689  12.600   6.848 -0.0371  0.2897  0.2873
  701POPI   C2B10490   1.799  13.019   7.117  0.0702 -0.4287  0.1832
  701POPI   C3B10491   1.754  13.238   7.480  0.3330  0.2380  0.0880
  701POPI   C4B10492   1.477  13.471   7.681 -0.0721 -0.1891 -0.2796
  702POPI    C110493  16.560   7.795   4.786 -0.1181  0.2314  0.3961
  702POPI    C210494  16.783   8.123   4.732 -0.2128  0.2036 -0.2322
  702POPI    C310495  16.487   8.038   4.477 -0.0878 -0.4553 -0.1740
  702POPI   PO410496  16.420   7.826   5.043  0.3916 -0.1331 -0.1844
  702POPI   GL110497  16.416   7.599   5.371 -0.2000  0.0812 -0.4284
  702POPI   GL210498  16.657   7.967   5.465  0.3216 -0.1384 -0.0768
  702POPI   C1A10499  16.530   7.557   5.844 -0.0447  0.0459  0.1562
  702POPI   D2A10500  16.244   7.730   6.166 -0.0820 -0.2784 -0.3179
  702POPI   C3A10501  16.130   7.594   6.530 -0.1239 -0.0618  0.3105
  702POPI   C4A10502  16.233   7.762   6.934  0.0178 -0.1319 -0.1071
  702POPI   C1B10503  16.546   8.021   5.876 -0.1086  0.1741 -0.0522
  702POPI   C2B10504  16.736   7.862   6.299  0.0130  0.3787 -0.0926
  702POPI   C3B10505  16.750   7.610   6.761  0.0054  0.1408 -0.0687
  702POPI   C4B10506  16.892   7.372   7.072  0.1933  0.1765 -0.0110
  703POPI    C110507  19.320  14.910   4.870  0.1821 -0.3614  0.1428
  703POPI    C210508  19.396  14.520   4.825  0.1250 -0.3195 -0.3854
  703POPI    C310509  19.081  14.684   4.642  0.0088 -0.0678  0.0272
  703POPI   PO410510  19.280  14.960   5.174 -0.2193 -0.0860 -0.1663
  703POPI   GL110511  19.215  14.833   5.668 -0.2344  0.3269 -0.0129
  703POPI   GL210512  19.271  15.158   5.667  0.0157 -0.0735  0.2285
  703POPI   C1A10513  19.219  14.830   6.074 -0.0363 -0.2921  0.0418
  703POPI   D2A10514  19.103  14.774   6.576  0.1917  0.0856 -0.1710
  703POPI   C3A10515  19.178  14.445   6.834  0.2568 -0.2106 -0.1382
  703POPI   C4A10516  18.966  14.308   7.156  0.0003 -0.3253 -0.1768
  703POPI   C1B10517  19.577  15.431   5.831  0.3883 -0.0390 -0.0704
  703POPI   C2B10518  19.777  15.773   5.972 -0.1962  0.1629  0.1873
  703POPI   C3B10519  20.082  16.005   5.807 -0.3726 -0.1042  0.0114
  703POPI   C4B10520  20.432  15.989   5.512 -0.0854 -0.4479 -0.4847
  704POPI    C110521  13.520  16.918   4.935 -0.4032  0.2127 -0.1115
  704POPI    C210522  13.471  16.548   4.791  0.5399  0.0296 -0.0309
  704POPI    C310523  13.490  16.860   4.541  0.1574 -0.0221 -0.1299
  704POPI   PO410524  13.759  16.870   5.093  0.3406  0.0013 -0.1940
  704POPI   GL110525  13.851  16.833   5.390 -0.1155 -0.5561 -0.3630
  704POPI   GL210526  14.027  17.062   5.566  0.0552 -0.0671 -0.0737
  704POPI   C1A10527  13.510  16.869   5.721  0.0460 -0.0049 -0.4338
  704POPI   D2A10528  13.227  17.147   5.970  0.2269  0.0621 -0.2029
  704POPI   C3A10529  13.201  17.101   6.457  0.3130 -0.1531 -0.3189
  704POPI   C4A10530  13.181  17.108   6.848 -0.1155 -0.3250 -0.0456
  704POPI   C1B10531  13.969  16.718   5.984  0.2423 -0.2228 -0.0370
  704POPI   C2B10532  14.139  16.799   6.386  0.2880  0.0579  0.1148
  704POPI   C3B10533  14.537  16.962   6.692 -0.3584 -0.0173 -0.0465
  704POPI   C4B10534  14.561  17.041   7.112 -0.0381  0.1207 -0.1217
  705POPI    C110535   6.965  12.950   5.193  0.0062 -0.0983  0.0677
  705POPI    C210536   6.600  12.801   5.125  0.0661 -0.2423  0.0567
  705POPI    C310537   6.761  13.062   4.868 -0.1011 -0.0398  0.1547
  705POPI   PO410538   6.873  13.012   5.482 -0.0610  0.2870 -0.1617
  705POPI   GL110539   6.765  12.952   5.932  0.2404  0.0551  0.0030
  705POPI   GL210540   7.023  13.023   5.978  0.0118 -0.0064 -0.0566
  705POPI   C1A10541   6.609  12.783   6.293 -0.1647 -0.2423  0.0018
  705POPI   D2A10542   6.654  12.690   6.707  0.0381  0.0023  0.0264
  705POPI   C3A10543   6.315  12.445   6.907  0.0605 -0.2651 -0.1431
  705POPI   C4A10544   6.069  12.152   7.125 -0.1812  0.1100  0.2360
  705POPI   C1B10545   7.096  12.820   6.402  0.1633 -0.1031 -0.2122
  705POPI   C2B10546   7.214  12.599   6.804 -0.0865 -0.0055  0.0636
  705POPI   C3B10547   7.065  12.278   7.040  0.0325 -0.0117 -0.0502
  705POPI   C4B10548   6.700  12.124   7.126 -0.1502  0.0235 -0.1843
  706POPI    C110549  17.009  13.313   5.335  0.0547 -0.0139  0.1003
  706POPI    C210550  17.008  12.983   5.109  0.3072  0.0658 -0.0198
  706POPI    C310551  17.177  13.319   4.972  0.0147  0.2590  0.0843
  706POPI   PO410552  16.733  13.362   5.470 -0.1098  0.0844 -0.0740
  706POPI   GL110553  16.745  13.410   5.984  0.0932 -0.1802 -0.1680
  706POPI   GL210554  16.545  13.736   5.880 -0.0223 -0.0367  0.1864
  706POPI   C1A10555  16.596  13.200   6.396 -0.1164  0.0757  0.0147
  706POPI   D2A10556  16.747  12.752   6.603  0.1856 -0.0713  0.1992
  706POPI   C3A10557  16.485  12.765   6.900  0.0654 -0.3106  0.0358
  706POPI   C4A10558  16.382  13.228   6.953  0.0129  0.1749  0.0267
  706POPI   C1B10559  16.519  13.666   6.315  0.3555 -0.0071  0.2459
  706POPI   C2B10560  16.202  13.557   6.576 -0.0718  0.2371 -0.0644
  706POPI   C3B10561  15.897  13.619   6.891  0.4248 -0.2748  0.1183
  706POPI   C4B10562  16.009  13.480   7.273 -0.1261  0.1041  0.0156
  707POPI    C110563  18.498   6.401   5.089  0.3812 -0.2183  0.2807
  707POPI    C210564  18.545   6.727   5.317  0.1635 -0.1059  0.1682
  707POPI    C310565  18.775   6.673   4.994 -0.1884  0.2379 -0.1500
  707POPI   PO410566  18.432   6.168   5.354 -0.4055  0.2699  0.3084
  707POPI   GL110567  18.430   5.934   5.803  0.0854 -0.3438 -0.0248
  707POPI   GL210568  18.172   6.049   5.738 -0.2940  0.0074 -0.1938
  707POPI   C1A10569  18.554   5.792   6.200 -0.0318  0.0103 -0.0541
  707POPI   D2A10570  18.388   5.527   6.459  0.2909  0.2429 -0.0801
  707POPI   C3A10571  18.600   5.532   6.822 -0.0376  0.4218  0.0860
  707POPI   C4A10572  19.062   5.340   7.017  0.1661 -0.2694 -0.0469
  707POPI   C1B10573  18.018   5.827   6.132 -0.3198 -0.0685  0.0460
  707POPI   C2B10574  17.916   5.792   6.539  0.1837  0.0781  0.0855
  707POPI   C3B10575  17.865   6.107   6.912  0.0821 -0.0579  0.1830
  707POPI   C4B10576  18.047   6.347   7.173  0.1832 -0.2184 -0.0792
  708POPI    C110577   7.131  18.865   5.621 -0.1362  0.2823  0.1206
  708POPI    C210578   7.475  18.958   5.801 -0.1417 -0.1332  0.3585
  708POPI    C310579   7.457  18.940   5.402  0.0835 -0.0056  0.3405
  708POPI   PO410580   6.965  18.996   5.715 -0.1167  0.1421 -0.0728
  708POPI   GL110581   6.844  19.229   6.066  0.2332 -0.0390  0.2817
  708POPI   GL210582   7.130  19.039   6.227 -0.1972  0.2630 -0.0734
  708POPI   C1A10583   6.555  19.572   6.284  0.0646  0.1043 -0.2931
  708POPI   D2A10584   6.565  19.958   6.589  0.0958  0.2717  0.0421
  708POPI   C3A10585   6.399  19.941   6.955 -0.1054 -0.0935  0.0582
  708POPI   C4A10586   6.395  19.778   7.354 -0.3106 -0.0670  0.4494
  708POPI   C1B10587   6.903  19.294   6.580 -0.1616  0.4905  0.2986
  708POPI   C2B10588   6.656  19.308   6.972 -0.2181  0.3460  0.2499
  708POPI   C3B10589   6.519  19.286   7.375  0.1373 -0.1308 -0.0525
  708POPI   C4B10590   6.184  19.086   7.629  0.0661  0.0344 -0.0405
  709POPI    C110591  10.786   8.059   5.018  0.0014  0.1307 -0.0906
  709POPI    C210592  10.734   7.675   4.916 -0.1667  0.1686 -0.1505
  709POPI    C310593  10.956   7.915   4.685 -0.2053  0.1505 -0.2067
  709POPI   PO410594  10.916   8.067   5.299 -0.2155  0.2897 -0.1482
  709POPI   GL110595  11.103   8.358   5.492 -0.0108 -0.0346  0.2938
  709POPI   GL210596  10.991   8.347   5.797  0.2611  0.1108 -0.3258
  709POPI   C1A10597  11.501   8.486   5.762  0.0754 -0.1869  0.1883
  709POPI   D2A10598  11.519   8.916   5.729  0.0931 -0.0233  0.1019
  709POPI   C3A10599  11.143   9.182   5.863 -0.3277 -0.1881  0.2368
  709POPI   C4A10600  11.305   9.491   6.102 -0.2233  0.2963  0.2550
  709POPI   C1B10601  10.823   8.503   6.304 -0.1488  0.1910 -0.0808
  709POPI   C2B10602  10.634   8.751   6.565  0.1441 -0.1872  0.1464
  709POPI   C3B10603  10.375   8.788   6.968 -0.3611 -0.0402  0.0602
  709POPI   C4B10604  10.265   8.995   7.275  0.0479  0.2912  0.0962
  710POPI    C110605  13.720  11.858   5.374  0.0036 -0.2890  0.0321
  710POPI    C210606  13.674  11.969   4.993  0.1429 -0.5253 -0.0555
  710POPI    C310607  13.361  11.832   5.200 -0.0327  0.0201  0.0554
  710POPI   PO410608  14.045  11.727   5.363 -0.2291  0.1300  0.0051
  710POPI   GL110609  14.193  11.792   5.824 -0.0447  0.1091  0.1373
  710POPI   GL210610  14.505  11.991   5.881 -0.0985  0.0725 -0.2761
  710POPI   C1A10611  14.169  11.531   6.316 -0.1604  0.0029 -0.1762
  710POPI   D2A10612  13.728  11.643   6.718  0.0543 -0.3359 -0.4398
  710POPI   C3A10613  13.798  11.758   7.177  0.0500 -0.1768  0.2778
  710POPI   C4A10614  14.000  12.107   7.396 -0.1323 -0.0176 -0.2855
  710POPI   C1B10615  14.607  11.999   6.366 -0.2699 -0.0640 -0.1234
  710POPI   C2B10616  14.283  11.874   6.712 -0.1632  0.0525  0.1795
  710POPI   C3B10617  14.222  11.554   7.007 -0.0311 -0.0554  0.4666
  710POPI   C4B10618  14.036  11.341   7.369  0.0310 -0.3675 -0.0257
  711POPI    C110619   6.876   8.723   5.157  0.1501  0.0100 -0.2831
  711POPI    C210620   7.016   8.880   5.497 -0.0640  0.1328 -0.2498
  711POPI    C310621   7.232   8.608   5.299 -0.0183 -0.0790  0.0819
  711POPI   PO410622   6.546   8.644   5.274 -0.1883 -0.0924 -0.0520
  711POPI   GL110623   6.201   8.776   5.616 -0.1413 -0.1483  0.1103
  711POPI   GL210624   6.522   8.825   5.724  0.0317  0.0881 -0.0064
  711POPI   C1A10625   5.787   8.914   5.848 -0.0323  0.2549  0.1927
  711POPI   D2A10626   5.368   9.118   5.924  0.1741  0.0425 -0.3142
  711POPI   C3A10627   5.272   9.379   6.255 -0.2737 -0.0219 -0.3739
  711POPI   C4A10628   5.262   9.846   6.501  0.1265  0.1940  0.0328
  711POPI   C1B10629   6.738   8.525   6.116  0.1265  0.2539 -0.0160
  711POPI   C2B10630   6.809   8.727   6.531 -0.2430  0.1780 -0.5282
  711POPI   C3B10631   6.692   8.818   6.927  0.0421  0.4421  0.0268
  711POPI   C4B10632   6.338   8.482   7.053 -0.0818  0.1105  0.1360
  712POPI    C110633  11.276   8.842   4.727 -0.1815 -0.0616  0.0333
  712POPI    C210634  10.898   8.746   4.637 -0.1414 -0.2039  0.0145
  712POPI    C310635  11.201   8.537   4.479 -0.0479  0.0421 -0.1375
  712POPI   PO410636  11.146   8.956   5.030 -0.1924 -0.1004 -0.0461
  712POPI   GL110637  11.055   8.823   5.552 -0.2242 -0.0748  0.0460
  712POPI   GL210638  10.827   8.940   5.560 -0.0004  0.0667  0.0404
  712POPI   C1A10639  11.200   8.707   6.030  0.0231  0.0194  0.5182
  712POPI   D2A10640  11.558   8.665   6.293  0.1699  0.1563  0.3346
  712POPI   C3A10641  11.655   8.854   6.661 -0.0762 -0.0683  0.4733
  712POPI   C4A10642  11.637   8.979   7.011 -0.3314  0.1990 -0.0764
  712POPI   C1B10643  10.724   8.942   5.981 -0.1653  0.1108  0.1849
  712POPI   C2B10644  10.933   9.062   6.318 -0.3222  0.1669 -0.3287
  712POPI   C3B10645  11.279   9.059   6.400 -0.0257 -0.0080 -0.1947
  712POPI   C4B10646  11.617   9.146   6.149 -0.2237 -0.0239 -0.1362
  713POPI    C110647   0.323  14.146   5.036 -0.2592  0.0552 -0.0211
  713POPI    C210648   0.666  14.243   4.856 -0.2473  0.1454  0.0495
  713POPI    C310649   0.420  13.977   4.687  0.0359 -0.2115  0.1835
  713POPI   PO410650   0.378  14.049   5.275  0.0696  0.0064  0.0653
  713POPI   GL110651   0.194  14.052   5.621 -0.1015 -0.0118  0.0137
  713POPI   GL210652   0.548  13.982   5.732  0.0824 -0.1589  0.0296
  713POPI   C1A10653  -0.072  13.824   5.767  0.3164  0.0240  0.0115
  713POPI   D2A10654   0.029  13.853   6.217  0.0341  0.0763 -0.0753
  713POPI   C3A10655   0.052  13.508   6.474  0.0087 -0.0911 -0.0640
  713POPI   C4A10656   0.105  13.212   6.986 -0.3137  0.2209  0.0844
  713POPI   C1B10657   0.466  13.884   6.076 -0.1005  0.1361 -0.1226
  713POPI   C2B10658   0.465  13.789   6.479  0.1951 -0.3522  0.1028
  713POPI   C3B10659   0.477  13.587   6.977  0.3083 -0.0393 -0.1128
  713POPI   C4B10660   0.175  13.439   7.402  0.3340  0.2318 -0.0421
  714POPI    C110661   1.779  18.347   5.123 -0.1140  0.4015 -0.4819
  714POPI    C210662   1.773  18.738   5.209 -0.2987  0.2200  0.4388
  714POPI    C310663   1.431  18.530   5.202 -0.2283  0.1051 -0.2794
  714POPI   PO410664   1.924  18.288   5.310 -0.0615  0.0689 -0.3569
  714POPI   GL110665   1.764  18.304   5.701  0.1501 -0.0463  0.1700
  714POPI   GL210666   1.326  18.376   5.731  0.1484  0.0066 -0.1454
  714POPI   C1A10667   1.557  18.064   5.994  0.0262  0.1659  0.0008
  714POPI   D2A10668   1.360  18.182   6.256  0.1799 -0.0306 -0.1413
  714POPI   C3A10669   1.361  17.713   6.533 -0.0884  0.1487  0.2951
  714POPI   C4A10670   1.183  17.306   6.745  0.2889  0.3455 -0.4210
  714POPI   C1B10671   0.956  18.334   6.034 -0.2880  0.0878 -0.1327
  714POPI   C2B10672   0.783  18.616   6.270 -0.0530  0.1401 -0.3989
  714POPI   C3B10673   0.576  18.662   6.661 -0.1026 -0.3403 -0.0517
  714POPI   C4B10674   0.833  18.478   6.970  0.1092 -0.1749  0.1991
  715POPI    C110675  16.053   2.269   4.708  0.1632  0.1482 -0.0464
  715POPI    C210676  16.109   2.599   4.489  0.1401 -0.0369 -0.3365
  715POPI    C310677  15.766   2.396   4.460  0.1659 -0.1039 -0.1815
  715POPI   PO410678  16.156   2.306   4.947  0.2476  0.1184 -0.0024
  715POPI   GL110679  16.048   2.107   5.282 -0.1815  0.2340 -0.3209
  715POPI   GL210680  16.279   1.942   5.509  0.1369 -0.0106 -0.0680
  715POPI   C1A10681  15.822   1.962   5.692  0.0366  0.2625  0.0323
  715POPI   D2A10682  15.502   1.808   5.914 -0.1523 -0.1032 -0.0298
  715POPI   C3A10683  15.624   1.376   5.983  0.3018  0.0863 -0.0155
  715POPI   C4A10684  15.989   1.095   5.871  0.2028  0.0343  0.0452
  715POPI   C1B10685  16.268   2.317   5.725 -0.1667  0.1500 -0.1017
  715POPI   C2B10686  16.464   2.349   6.126  0.3929 -0.2051  0.0633
  715POPI   C3B10687  16.709   2.137   6.471  0.0185  0.0290 -0.2394
  715POPI   C4B10688  17.051   1.996   6.769 -0.0193  0.2338 -0.3289
  716POPI    C110689  19.282   4.814   4.857  0.1075  0.0913  0.3064
  716POPI    C210690  18.984   4.700   5.099 -0.3334  0.0350 -0.2417
  716POPI    C310691  19.042   5.088   5.023 -0.1992  0.0523 -0.0572
  716POPI   PO410692  19.512   4.694   4.906  0.2431  0.1358  0.0146
  716POPI   GL110693  19.626   4.544   5.217  0.0772  0.2188  0.1932
  716POPI   GL210694  19.845   4.417   5.411  0.0524 -0.0107  0.0318
  716POPI   C1A10695  19.503   4.629   5.710 -0.1230 -0.2132 -0.3337
  716POPI   D2A10696  19.379   4.328   6.116  0.1433 -0.2910  0.3323
  716POPI   C3A10697  19.255   4.546   6.426  0.2321 -0.2140  0.0374
  716POPI   C4A10698  19.353   4.926   6.759  0.0110 -0.0739  0.0589
  716POPI   C1B10699  19.821   4.128   5.816 -0.2817  0.2730 -0.3472
  716POPI   C2B10700  19.814   3.810   6.207  0.1357 -0.0780 -0.2080
  716POPI   C3B10701  19.844   3.548   6.551 -0.2210 -0.0003 -0.1623
  716POPI   C4B10702  19.678   3.208   6.720 -0.0711 -0.0951 -0.0497
  717POPI    C110703   8.079  14.698   5.372  0.1033 -0.0436  0.0614
  717POPI    C210704   8.023  15.055   5.199 -0.0729 -0.0724  0.0570
  717POPI    C310705   8.188  14.755   4.991 -0.2042 -0.0815 -0.0351
  717POPI   PO410706   8.291  14.737   5.559  0.1484  0.1159 -0.2163
  717POPI   GL110707   8.443  14.386   5.800  0.3016 -0.0541  0.0297
  717POPI   GL210708   8.436  14.053   5.863 -0.1114 -0.3797 -0.0519
  717POPI   C1A10709   8.549  14.677   6.134  0.0647 -0.2569 -0.0670
  717POPI   D2A10710   8.484  14.801   6.445 -0.4184 -0.0307  0.2316
  717POPI   C3A10711   8.940  14.951   6.624  0.1537 -0.1244 -0.2026
  717POPI   C4A10712   9.069  15.338   6.953  0.7321  0.0495 -0.3271
  717POPI   C1B10713   8.538  14.196   6.210  0.0807  0.1306  0.1256
  717POPI   C2B10714   8.624  14.334   6.666 -0.3080 -0.0529 -0.3821
  717POPI   C3B10715   8.681  14.693   6.977  0.0327 -0.0157  0.1242
  717POPI   C4B10716   8.401  14.744   7.316 -0.3152 -0.0574 -0.0459
  718POPI    C110717   4.003   0.771   4.667 -0.1645 -0.2564 -0.1930
  718POPI    C210718   4.199   0.701   4.325 -0.0517 -0.1167 -0.1576
  718POPI    C310719   3.818   0.823   4.316 -0.0982 -0.2650 -0.2293
  718POPI   PO410720   4.143   0.943   4.826  0.2252  0.2315 -0.3837
  718POPI   GL110721   3.960   0.966   5.153  0.1730 -0.1944  0.0483
  718POPI   GL210722   3.922   1.280   5.146 -0.0900  0.2453  0.1840
  718POPI   C1A10723   3.991   1.024   5.597  0.2805 -0.1778 -0.5526
  718POPI   D2A10724   4.084   0.875   6.079  0.0848 -0.0713 -0.2313
  718POPI   C3A10725   4.243   0.888   6.464 -0.0990  0.1878 -0.1639
  718POPI   C4A10726   4.482   0.829   6.856 -0.2598 -0.1427 -0.2527
  718POPI   C1B10727   4.001   1.509   5.514 -0.1424  0.0667 -0.0745
  718POPI   C2B10728   3.945   1.430   5.988 -0.0948  0.2737 -0.1032
  718POPI   C3B10729   3.777   1.230   6.262 -0.0412  0.0042  0.2641
  718POPI   C4B10730   3.888   1.171   6.677  0.3201 -0.1015 -0.1097
  719POPI    C110731   7.658  13.911   5.590  0.0266 -0.2129  0.0901
  719POPI    C210732   7.718  13.653   5.290 -0.0626 -0.2048  0.0650
  719POPI    C310733   7.596  14.026   5.212  0.5367  0.0010  0.0633
  719POPI   PO410734   7.467  13.755   5.787 -0.0346 -0.2899  0.0556
  719POPI   GL110735   7.244  13.530   6.115  0.3492  0.1580  0.0291
  719POPI   GL210736   7.414  13.713   6.336  0.0825 -0.3457 -0.3827
  719POPI   C1A10737   7.164  13.302   6.402 -0.3117 -0.1090 -0.1978
  719POPI   D2A10738   7.160  13.080   6.808 -0.3311 -0.3474 -0.0833
  719POPI   C3A10739   6.803  13.118   6.990  0.1582  0.2403 -0.1300
  719POPI   C4A10740   6.439  13.225   7.286 -0.1711  0.1714 -0.1678
  719POPI   C1B10741   7.575  13.588   6.718  0.0658  0.2331 -0.0487
  719POPI   C2B10742   7.462  13.392   7.087  0.2359 -0.2608  0.0679
  719POPI   C3B10743   7.234  13.252   7.451  0.1171  0.3975 -0.0906
  719POPI   C4B10744   6.871  13.032   7.558 -0.0728 -0.2402 -0.2577
  720POPI    C110745  18.883  15.919   4.702  0.0584 -0.1125  0.0079
  720POPI    C210746  19.084  16.190   4.487 -0.3182  0.1050 -0.0789
  720POPI    C310747  18.782  15.988   4.321 -0.2358 -0.1510  0.0766
  720POPI   PO410748  19.115  15.820   4.927 -0.3892 -0.2128 -0.0571
  720POPI   GL110749  19.309  16.153   5.289  0.2033 -0.0916 -0.0328
  720POPI   GL210750  19.365  16.380   5.444 -0.2219 -0.5624 -0.0447
  720POPI   C1A10751  18.979  16.189   5.660  0.0055  0.3090  0.4517
  720POPI   D2A10752  19.100  16.397   6.100  0.0366  0.1881 -0.0477
  720POPI   C3A10753  18.855  16.368   6.664 -0.1250 -0.0279  0.1529
  720POPI   C4A10754  18.782  16.485   7.118 -0.2351 -0.2124  0.0529
  720POPI   C1B10755  19.560  16.297   5.831 -0.0316 -0.2483  0.3826
  720POPI   C2B10756  19.548  16.295   6.407 -0.2475 -0.1008  0.1424
  720POPI   C3B10757  19.860  16.264   6.697  0.2500 -0.2553  0.1575
  720POPI   C4B10758  20.236  16.331   6.635  0.2447  0.0297 -0.1318
  721POPI    C110759   0.850   7.720   5.175 -0.1030  0.1133 -0.1339
  721POPI    C210760   0.502   7.661   4.986 -0.1479  0.0548 -0.0336
  721POPI    C310761   0.796   7.862   4.805 -0.1455 -0.1081 -0.2144
  721POPI   PO410762   0.919   7.486   5.314 -0.0731  0.3890  0.0725
  721POPI   GL110763   1.218   7.452   5.674 -0.1020  0.2787  0.2961
  721POPI   GL210764   1.179   7.900   5.797  0.2561  0.1193  0.1898
  721POPI   C1A10765   1.208   7.329   6.158 -0.0349 -0.1220  0.1596
  721POPI   D2A10766   0.890   7.380   6.555 -0.1345 -0.0101  0.1638
  721POPI   C3A10767   0.619   7.144   6.670  0.0662  0.0671  0.1224
  721POPI   C4A10768   0.434   6.769   6.848 -0.1798  0.0534 -0.0354
  721POPI   C1B10769   0.969   7.866   6.261 -0.1710 -0.0645 -0.1375
  721POPI   C2B10770   0.961   7.833   6.709 -0.0965  0.0959 -0.0790
  721POPI   C3B10771   1.081   7.843   7.214  0.1282  0.0326 -0.1301
  721POPI   C4B10772   1.252   7.935   7.706  0.1024 -0.0590  0.0355
  722POPI    C110773   7.422   2.163   5.645 -0.0214 -0.2227 -0.2346
  722POPI    C210774   7.293   2.116   6.021 -0.0973 -0.0851 -0.2425
  722POPI    C310775   7.052   2.028   5.715 -0.0858 -0.0618 -0.2582
  722POPI   PO410776   7.749   2.300   5.702 -0.0574  0.0413 -0.2000
  722POPI   GL110777   8.089   2.374   6.058  0.2187  0.0001  0.3103
  722POPI   GL210778   8.317   2.082   6.192 -0.1630 -0.1436 -0.1755
  722POPI   C1A10779   7.841   2.617   6.316  0.0877  0.1550  0.3605
  722POPI   D2A10780   7.866   2.766   6.689 -0.3308  0.0930  0.1302
  722POPI   C3A10781   8.034   3.135   6.807  0.0611 -0.0398  0.4710
  722POPI   C4A10782   8.318   3.510   6.798  0.0496 -0.2362  0.2637
  722POPI   C1B10783   8.189   2.305   6.556  0.2605 -0.3764  0.0163
  722POPI   C2B10784   7.774   2.293   6.719  0.3077 -0.0097  0.2067
  722POPI   C3B10785   7.417   2.610   6.894  0.1169  0.1627  0.2258
  722POPI   C4B10786   7.345   2.796   7.398  0.0906 -0.3470  0.3560
  723POPI    C110787   4.603   0.159   5.008 -0.1812  0.1323  0.2488
  723POPI    C210788   4.650  -0.221   5.126 -0.1507  0.0781  0.0649
  723POPI    C310789   4.327  -0.116   4.915 -0.1867  0.1663  0.1630
  723POPI   PO410790   4.615   0.284   5.270  0.2408 -0.2773 -0.0126
  723POPI   GL110791   4.522   0.338   5.574  0.0471  0.3077  0.2162
  723POPI   GL210792   4.157   0.539   5.607  0.2194  0.2497  0.0366
  723POPI   C1A10793   4.297   0.065   5.908 -0.4059 -0.1005 -0.0645
  723POPI   D2A10794   4.234  -0.024   6.345 -0.2429 -0.2587  0.4211
  723POPI   C3A10795   4.762  -0.064   6.440  0.2361 -0.0732  0.1285
  723POPI   C4A10796   5.073   0.192   6.486  0.1486  0.0240  0.0080
  723POPI   C1B10797   4.478   0.833   5.762  0.4358 -0.0728 -0.1671
  723POPI   C2B10798   4.850   1.070   5.667  0.0000 -0.2643 -0.4155
  723POPI   C3B10799   5.240   1.090   5.996 -0.1294 -0.1998 -0.2049
  723POPI   C4B10800   5.260   0.792   6.332  0.2759 -0.3302 -0.1743
  724POPI    C110801   5.595  13.036   5.271  0.1290  0.0423 -0.1829
  724POPI    C210802   5.239  13.172   5.148  0.0951 -0.0501 -0.1881
  724POPI    C310803   5.564  13.228   4.921  0.1194  0.2017 -0.0957
  724POPI   PO410804   5.548  12.973   5.502 -0.0070 -0.1185 -0.0732
  724POPI   GL110805   5.445  12.882   5.939 -0.2109  0.1424 -0.1375
  724POPI   GL210806   5.181  12.986   6.112  0.1670 -0.1216 -0.1270
  724POPI   C1A10807   5.701  13.020   6.322  0.1572  0.0850 -0.1841
  724POPI   D2A10808   5.703  12.679   6.727  0.0761  0.0550  0.4063
  724POPI   C3A10809   5.870  12.327   6.701  0.0751 -0.1660  0.2352
  724POPI   C4A10810   6.164  12.036   6.636 -0.1239  0.0489 -0.2432
  724POPI   C1B10811   5.179  12.746   6.542  0.2166 -0.4898 -0.0841
  724POPI   C2B10812   5.300  12.829   6.922  0.0879  0.1351 -0.0385
  724POPI   C3B10813   5.407  12.868   7.348  0.1451 -0.1111  0.0226
  724POPI   C4B10814   5.352  13.152   7.543 -0.2185  0.2783  0.0385
  725POPI    C110815   8.027   7.608   5.172 -0.1065 -0.0179  0.0172
  725POPI    C210816   7.989   8.005   5.193 -0.2367 -0.0182 -0.1908
  725POPI    C310817   8.353   7.839   5.202 -0.1654  0.1234 -0.3764
  725POPI   PO410818   7.856   7.559   5.330  0.1383 -0.2143  0.1966
  725POPI   GL110819   7.815   7.391   5.657  0.1348 -0.0811 -0.1975
  725POPI   GL210820   8.160   7.129   5.659 -0.1354 -0.0248  0.2155
  725POPI   C1A10821   7.855   7.636   5.946  0.2057  0.2143  0.1824
  725POPI   D2A10822   7.827   7.726   6.215  0.1579 -0.0084  0.0658
  725POPI   C3A10823   7.981   7.761   6.549 -0.0446  0.0174  0.3111
  725POPI   C4A10824   8.057   7.744   6.943  0.3310  0.0320  0.0244
  725POPI   C1B10825   8.115   7.166   6.022 -0.0799 -0.0503 -0.1614
  725POPI   C2B10826   8.190   7.362   6.353 -0.3175 -0.2429 -0.0972
  725POPI   C3B10827   8.458   7.730   6.617 -0.0215 -0.1852  0.0760
  725POPI   C4B10828   8.611   7.858   7.094 -0.0360  0.3855 -0.0567
  726POPI    C110829   3.302   5.121   5.080 -0.1404 -0.6051 -0.2344
  726POPI    C210830   3.518   5.040   4.754  0.3468  0.1650 -0.1282
  726POPI    C310831   3.275   5.358   4.759  0.3990  0.2035  0.2793
  726POPI   PO410832   3.525   5.022   5.264  0.0491 -0.2160 -0.2782
  726POPI   GL110833   3.507   4.849   5.636  0.1781 -0.1228  0.0401
  726POPI   GL210834   3.396   4.904   5.919 -0.4038 -0.1863  0.1146
  726POPI   C1A10835   3.515   4.433   5.820 -0.2151  0.4848 -0.2089
  726POPI   D2A10836   3.159   4.211   6.004 -0.3095 -0.0588  0.0207
  726POPI   C3A10837   2.845   3.817   5.988  0.3302  0.0826  0.0631
  726POPI   C4A10838   2.861   3.423   5.817 -0.3570  0.0380  0.0802
  726POPI   C1B10839   3.572   5.125   6.234  0.0195 -0.2958  0.1104
  726POPI   C2B10840   3.760   4.883   6.593  0.2033  0.1416 -0.0962
  726POPI   C3B10841   3.665   4.503   6.872  0.2143  0.3134 -0.1995
  726POPI   C4B10842   3.479   4.063   7.005 -0.1102  0.2045  0.1905
  727POPI    C110843   0.442  14.816   4.617  0.1315 -0.0694  0.0444
  727POPI    C210844   0.548  14.505   4.388  0.0588 -0.2473  0.2481
  727POPI    C310845   0.721  14.862   4.334 -0.0036 -0.2696 -0.1246
  727POPI   PO410846   0.497  14.786   4.908 -0.1152  0.0300 -0.0983
  727POPI   GL110847   0.362  14.895   5.412 -0.1974  0.2120 -0.1252
  727POPI   GL210848   0.485  15.180   5.319  0.0565  0.0904  0.0978
  727POPI   C1A10849   0.356  14.948   5.958  0.0437  0.0074 -0.1822
  727POPI   D2A10850   0.198  15.099   6.366 -0.0575 -0.0596 -0.0403
  727POPI   C3A10851   0.180  14.896   6.754 -0.2694  0.1973 -0.1446
  727POPI   C4A10852   0.296  14.708   7.148  0.2876 -0.0399  0.1290
  727POPI   C1B10853   0.667  15.222   5.622 -0.0017 -0.3194 -0.0320
  727POPI   C2B10854   0.747  15.374   6.106  0.1525  0.0942 -0.1256
  727POPI   C3B10855   0.637  15.511   6.459 -0.1224  0.1524 -0.1451
  727POPI   C4B10856   0.476  15.277   6.755  0.0088 -0.3207 -0.1316
  728POPI    C110857  17.747  12.793   5.335 -0.0970 -0.0191  0.0421
  728POPI    C210858  17.590  13.018   5.045  0.1204 -0.1194 -0.1565
  728POPI    C310859  17.406  12.991   5.399 -0.1609 -0.0169 -0.2921
  728POPI   PO410860  18.019  12.731   5.301 -0.0482 -0.0221  0.2219
  728POPI   GL110861  18.307  12.857   5.462  0.3241  0.0429  0.1315
  728POPI   GL210862  18.323  13.200   5.583  0.1619  0.0179  0.2413
  728POPI   C1A10863  18.402  12.771   5.829 -0.0461  0.0099  0.1037
  728POPI   D2A10864  18.204  12.466   6.090  0.1513 -0.1235 -0.1315
  728POPI   C3A10865  17.852  12.207   6.135 -0.3677  0.1487 -0.1966
  728POPI   C4A10866  17.612  12.473   6.345  0.2751  0.1571 -0.3592
  728POPI   C1B10867  18.137  13.512   5.888  0.0023 -0.1486 -0.0847
  728POPI   C2B10868  18.340  13.891   6.001 -0.0087  0.2276 -0.1634
  728POPI   C3B10869  18.340  14.384   6.093 -0.0191 -0.2738 -0.1850
  728POPI   C4B10870  18.375  14.790   5.696 -0.4210 -0.0921 -0.1368
  729POPI    C110871  16.104  12.858   5.206  0.1141  0.1040 -0.0048
  729POPI    C210872  16.482  12.966   5.131  0.0778  0.2592  0.0310
  729POPI    C310873  16.195  13.039   4.861  0.0891  0.0512 -0.0391
  729POPI   PO410874  16.003  12.967   5.467 -0.0004 -0.2821 -0.1776
  729POPI   GL110875  16.034  12.755   5.901  0.0504 -0.0547  0.4048
  729POPI   GL210876  15.826  12.564   5.932  0.2818  0.0244  0.1140
  729POPI   C1A10877  16.164  13.005   6.168  0.3408  0.2785  0.2994
  729POPI   D2A10878  16.010  13.080   6.669  0.0503 -0.2877 -0.4464
  729POPI   C3A10879  15.933  12.750   6.938 -0.3489 -0.0545 -0.0360
  729POPI   C4A10880  15.473  12.669   6.776  0.1177 -0.0898 -0.0553
  729POPI   C1B10881  15.640  12.865   6.148  0.3015  0.0748  0.1289
  729POPI   C2B10882  15.498  13.175   6.450 -0.2409 -0.3876 -0.1903
  729POPI   C3B10883  15.395  13.160   6.873 -0.2851  0.0115 -0.0196
  729POPI   C4B10884  15.376  13.496   7.221 -0.1756 -0.0387 -0.0279
  730POPI    C110885   4.105  12.677   5.344 -0.0348 -0.0973  0.0684
  730POPI    C210886   4.382  12.500   5.117  0.1418 -0.0600  0.2517
  730POPI    C310887   3.994  12.453   5.032  0.2081  0.0840 -0.1528
  730POPI   PO410888   4.172  12.508   5.583  0.1579 -0.1319  0.2251
  730POPI   GL110889   4.031  12.446   5.974  0.0643 -0.2452 -0.4116
  730POPI   GL210890   3.894  12.765   5.907  0.3237  0.0290 -0.0176
  730POPI   C1A10891   4.019  12.491   6.443  0.0999  0.2244  0.3313
  730POPI   D2A10892   3.930  12.798   6.664  0.0338  0.0472 -0.0646
  730POPI   C3A10893   3.856  12.819   7.080 -0.1068  0.0662  0.0379
  730POPI   C4A10894   3.880  13.111   7.353 -0.0350  0.1661  0.1145
  730POPI   C1B10895   3.881  13.068   6.219  0.1036  0.1112  0.0123
  730POPI   C2B10896   3.741  13.222   6.463 -0.0200 -0.0394  0.3196
  730POPI   C3B10897   3.719  13.359   6.879  0.0971  0.2997 -0.1065
  730POPI   C4B10898   3.643  13.551   7.271 -0.0829  0.1158  0.0574
  731POPI    C110899   8.012   4.596   5.196  0.1975 -0.1057  0.0507
  731POPI    C210900   8.012   4.995   5.220  0.1651 -0.0878 -0.2186
  731POPI    C310901   8.140   4.814   4.887 -0.1194 -0.2933 -0.2202
  731POPI   PO410902   7.856   4.553   5.404  0.3716 -0.1221  0.1340
  731POPI   GL110903   7.900   4.789   5.759 -0.6697  0.3425  0.2255
  731POPI   GL210904   7.893   4.469   5.948  0.1778  0.0456  0.0285
  731POPI   C1A10905   7.629   4.887   6.041  0.0135 -0.0751  0.1266
  731POPI   D2A10906   7.219   4.848   6.245  0.1761 -0.1112 -0.1357
  731POPI   C3A10907   6.768   4.937   6.032  0.1414 -0.0984  0.0350
  731POPI   C4A10908   6.332   5.101   5.949  0.0144  0.0961 -0.2032
  731POPI   C1B10909   7.574   4.522   6.394 -0.2183 -0.1325 -0.0024
  731POPI   C2B10910   7.349   4.684   6.681  0.4847  0.2785 -0.4795
  731POPI   C3B10911   6.889   4.830   6.654  0.1951  0.3480 -0.0611
  731POPI   C4B10912   6.497   4.793   6.457 -0.0817 -0.1883 -0.2380
  732POPI    C110913   4.539  14.489   5.369 -0.1362  0.0828  0.2285
  732POPI    C210914   4.730  14.818   5.244 -0.1268 -0.0145 -0.0209
  732POPI    C310915   4.462  14.641   5.007  0.0476 -0.3277  0.0099
  732POPI   PO410916   4.409  14.562   5.597 -0.3092  0.1357  0.2277
  732POPI   GL110917   4.325  14.709   6.006  0.3628 -0.0059  0.1400
  732POPI   GL210918   4.530  14.504   6.115 -0.2556 -0.1624  0.0311
  732POPI   C1A10919   4.358  14.702   6.514 -0.1006 -0.0238  0.1146
  732POPI   D2A10920   4.373  14.328   6.624  0.0128 -0.0031 -0.0196
  732POPI   C3A10921   4.645  14.022   6.404 -0.2197 -0.2379 -0.1745
  732POPI   C4A10922   5.073  13.971   6.377 -0.1309 -0.0947  0.5861
  732POPI   C1B10923   4.842  14.502   6.380 -0.2613 -0.1086 -0.2707
  732POPI   C2B10924   4.830  14.412   6.855 -0.1575  0.1952 -0.1778
  732POPI   C3B10925   4.984  14.368   7.286  0.0608  0.0022 -0.0947
  732POPI   C4B10926   4.962  14.117   7.705 -0.1382 -0.0390 -0.1650
  733POPI    C110927   8.938  16.089   5.131  0.0471 -0.1989 -0.1265
  733POPI    C210928   8.631  15.841   5.066 -0.2039  0.0398  0.1173
  733POPI    C310929   8.716  16.128   4.800 -0.1467 -0.0702  0.0160
  733POPI   PO410930   8.978  16.203   5.318  0.0410  0.1122  0.1220
  733POPI   GL110931   9.120  16.165   5.690 -0.0105  0.0610  0.0444
  733POPI   GL210932   9.445  16.223   5.725  0.2578  0.2275  0.1500
  733POPI   C1A10933   9.119  16.544   6.013 -0.2893 -0.0374 -0.5054
  733POPI   D2A10934   9.302  16.657   6.422  0.0383  0.0506 -0.0630
  733POPI   C3A10935   9.511  16.394   6.845 -0.1221 -0.0249 -0.0035
  733POPI   C4A10936   9.574  16.291   7.325 -0.0200  0.0173 -0.0269
  733POPI   C1B10937   9.429  16.149   6.157  0.1030  0.1848 -0.1273
  733POPI   C2B10938   9.184  16.145   6.589 -0.1084  0.1781 -0.1302
  733POPI   C3B10939   8.881  16.259   6.892  0.0079  0.0593 -0.0555
  733POPI   C4B10940   9.047  16.460   7.236  0.1885 -0.1179 -0.2206
  734POPI    C110941  16.801  14.164   5.186 -0.1555 -0.2307 -0.3899
  734POPI    C210942  17.041  13.846   5.152  0.0736 -0.0946 -0.0927
  734POPI    C310943  17.099  14.166   4.919  0.3266  0.0246  0.1281
  734POPI   PO410944  16.803  14.187   5.505 -0.1392  0.0143  0.0986
  734POPI   GL110945  16.500  14.311   5.766  0.0227  0.1746  0.1370
  734POPI   GL210946  16.440  14.154   6.067 -0.2119  0.1023  0.2881
  734POPI   C1A10947  16.715  14.579   6.087  0.2854 -0.0684 -0.2590
  734POPI   D2A10948  16.996  14.740   6.408  0.3651 -0.0145  0.0837
  734POPI   C3A10949  16.791  14.969   6.864  0.2498  0.3174  0.4254
  734POPI   C4A10950  16.891  15.427   7.016  0.0665 -0.0982  0.5021
  734POPI   C1B10951  16.362  14.269   6.393 -0.0369 -0.1903 -0.6281
  734POPI   C2B10952  16.324  14.379   6.754 -0.0419  0.1700  0.1620
  734POPI   C3B10953  16.341  14.764   6.970  0.1532 -0.2368  0.0401
  734POPI   C4B10954  16.344  15.187   6.861  0.0294 -0.0650 -0.0024
  735POPI    C110955   5.101   3.198   5.144  0.0054  0.0839  0.0266
  735POPI    C210956   5.184   3.505   4.900 -0.0900  0.1663  0.0970
  735POPI    C310957   5.430   3.190   4.917 -0.1839  0.0700 -0.2523
  735POPI   PO410958   5.038   3.279   5.377  0.0378  0.1671 -0.0240
  735POPI   GL110959   5.224   3.224   5.670  0.1423 -0.2016  0.1383
  735POPI   GL210960   5.188   3.491   5.838 -0.2560 -0.6278  0.0137
  735POPI   C1A10961   5.344   3.054   6.044  0.0302 -0.1604 -0.2095
  735POPI   D2A10962   5.556   3.127   6.455  0.1652  0.1338 -0.3467
  735POPI   C3A10963   5.359   3.400   6.769 -0.0373 -0.2633 -0.3164
  735POPI   C4A10964   5.235   3.764   6.921 -0.1495  0.2628  0.1714
  735POPI   C1B10965   5.301   3.580   6.285  0.1033 -0.1841 -0.3186
  735POPI   C2B10966   4.994   3.740   6.492  0.2516 -0.0563 -0.1108
  735POPI   C3B10967   4.772   3.904   6.813  0.0821  0.0252  0.1732
  735POPI   C4B10968   4.363   3.895   6.969  0.0831  0.1802  0.0252
  736POPI    C110969  17.597   7.230   5.239  0.0299 -0.2301 -0.1019
  736POPI    C210970  17.881   7.432   5.435 -0.2087  0.0244 -0.0127
  736POPI    C310971  17.923   7.356   5.044 -0.1004  0.2185 -0.0402
  736POPI   PO410972  17.339   7.423   5.283  0.1971  0.0438 -0.0428
  736POPI   GL110973  17.068   7.718   5.602 -0.0992  0.0475  0.3214
  736POPI   GL210974  16.938   7.406   5.600  0.1460  0.1879  0.1380
  736POPI   C1A10975  17.081   7.967   5.968 -0.0244  0.0754  0.1691
  736POPI   D2A10976  17.058   8.282   6.267 -0.1457  0.3108 -0.0778
  736POPI   C3A10977  16.983   8.162   6.701  0.0275 -0.2246  0.0502
  736POPI   C4A10978  16.977   8.365   7.116 -0.0741  0.0572 -0.1592
  736POPI   C1B10979  16.978   7.504   6.090  0.2881 -0.1760  0.0540
  736POPI   C2B10980  17.107   7.466   6.477 -0.3479 -0.0094  0.0764
  736POPI   C3B10981  17.233   7.703   6.807 -0.1353  0.2562  0.4579
  736POPI   C4B10982  17.152   7.899   7.203  0.1097 -0.3028 -0.0815
  737POPI    C110983  14.314  16.983   4.964 -0.1654  0.0007 -0.1496
  737POPI    C210984  14.627  17.096   4.743 -0.2472  0.2721 -0.1312
  737POPI    C310985  14.467  16.733   4.692  0.1276  0.0932 -0.0737
  737POPI   PO410986  14.286  17.216   5.200 -0.4219 -0.2027  0.4001
  737POPI   GL110987  14.443  17.277   5.739 -0.2200 -0.1782 -0.1917
  737POPI   GL210988  14.359  17.056   6.043  0.0404 -0.1709 -0.2370
  737POPI   C1A10989  14.189  17.625   5.990  0.2751  0.1089  0.2492
  737POPI   D2A10990  14.227  17.937   6.231 -0.7267 -0.1029  0.3301
  737POPI   C3A10991  14.312  18.369   6.136 -0.1122  0.0444  0.0563
  737POPI   C4A10992  14.254  18.790   6.099  0.2268 -0.1247  0.3946
  737POPI   C1B10993  14.428  17.348   6.393 -0.1351  0.1470  0.0593
  737POPI   C2B10994  14.398  17.758   6.628  0.0034 -0.1818 -0.1233
  737POPI   C3B10995  14.607  17.908   7.042 -0.0286  0.2336  0.1352
  737POPI   C4B10996  14.932  17.838   7.241  0.2245  0.1026 -0.1125
  738POPI    C110997   3.413  13.828   5.588 -0.2218  0.0093  0.2613
  738POPI    C210998   3.143  14.054   5.399 -0.3071 -0.2422  0.0766
  738POPI    C310999   3.389  13.819   5.189 -0.0968 -0.1870  0.2566
  738POPI   PO411000   3.531  14.020   5.741  0.2016  0.0613 -0.0900
  738POPI   GL111001   3.450  14.345   5.834  0.0762 -0.1129  0.0406
  738POPI   GL211002   3.454  14.239   6.189  0.0607 -0.1709  0.2585
  738POPI   C1A11003   3.334  14.760   5.952 -0.0513  0.1448 -0.0003
  738POPI   D2A11004   3.599  15.060   6.114  0.1830  0.0805  0.0788
  738POPI   C3A11005   4.016  15.059   6.271  0.0569 -0.1749  0.3054
  738POPI   C4A11006   4.110  15.092   6.827 -0.2481  0.1244 -0.0402
  738POPI   C1B11007   3.507  14.240   6.624 -0.0793  0.2690  0.2276
  738POPI   C2B11008   3.291  14.299   6.931 -0.0025  0.0103 -0.0175
  738POPI   C3B11009   3.155  14.063   7.257 -0.2641  0.2295  0.0320
  738POPI   C4B11010   2.743  13.788   7.307 -0.0227  0.0084 -0.0475
  739POPI    C111011   8.075  17.656   5.316  0.3429  0.1344 -0.1240
  739POPI    C211012   7.893  17.866   5.028 -0.2086 -0.1824 -0.0210
  739POPI    C311013   8.061  17.514   4.943 -0.0813 -0.1230 -0.0173
  739POPI   PO411014   7.903  17.593   5.551  0.1613  0.0368 -0.0262
  739POPI   GL111015   7.699  17.709   5.933  0.0613  0.0153  0.2872
  739POPI   GL211016   7.848  17.934   6.044 -0.1885  0.0746 -0.0923
  739POPI   C1A11017   7.572  17.589   6.368  0.2636 -0.4136  0.1246
  739POPI   D2A11018   7.292  17.372   6.640 -0.0130  0.0892 -0.2403
  739POPI   C3A11019   7.515  17.314   6.957  0.0013 -0.0277  0.1939
  739POPI   C4A11020   7.768  17.070   7.201 -0.0164 -0.2581 -0.2352
  739POPI   C1B11021   7.980  17.932   6.543 -0.0452 -0.3972  0.1813
  739POPI   C2B11022   7.634  17.812   6.778 -0.0057  0.0455  0.2061
  739POPI   C3B11023   7.447  17.780   7.168  0.1906 -0.0304  0.2155
  739POPI   C4B11024   7.118  17.561   7.188 -0.2195 -0.1971 -0.0311
  740POPI    C111025   6.366  14.333   5.471  0.1097 -0.1188 -0.1241
  740POPI    C211026   6.515  14.626   5.699  0.1306 -0.0672 -0.2037
  740POPI    C311027   6.697  14.526   5.357  0.2431 -0.3143 -0.0741
  740POPI   PO411028   6.328  14.140   5.562 -0.1835 -0.1540  0.0023
  740POPI   GL111029   6.140  13.957   5.864 -0.0918  0.0617 -0.1586
  740POPI   GL211030   6.425  14.254   6.090 -0.5368 -0.2003  0.1283
  740POPI   C1A11031   5.790  14.058   6.176 -0.4803  0.0269  0.2055
  740POPI   D2A11032   5.611  13.986   6.556 -0.1319  0.1791  0.1960
  740POPI   C3A11033   5.464  13.728   6.959 -0.2043  0.2480  0.0276
  740POPI   C4A11034   5.449  13.663   7.453 -0.0927  0.2816  0.1527
  740POPI   C1B11035   6.634  14.420   6.477  0.0331  0.2228 -0.2360
  740POPI   C2B11036   6.665  14.683   6.688 -0.1227 -0.0043 -0.1486
  740POPI   C3B11037   6.787  14.640   7.085  0.0543  0.1089  0.2521
  740POPI   C4B11038   7.094  14.693   7.312  0.0239 -0.1453  0.0883
  741POPS   CNO11039  17.218  10.052   4.997  0.1842  0.0210 -0.2391
  741POPS   PO411040  17.611  10.270   5.054  0.1182 -0.0115  0.0426
  741POPS   GL111041  17.754  10.175   5.448  0.0417  0.3203 -0.2646
  741POPS   GL211042  17.606  10.352   5.759  0.1213 -0.0837 -0.1027
  741POPS   C1A11043  17.938   9.954   5.863 -0.1056  0.1898  0.3226
  741POPS   D2A11044  17.802   9.787   6.239 -0.1330  0.1165  0.3170
  741POPS   C3A11045  17.988   9.442   6.571 -0.0087  0.1250  0.2227
  741POPS   C4A11046  17.776   9.382   6.980 -0.3117 -0.1796 -0.2517
  741POPS   C1B11047  17.731  10.292   6.117  0.2196  0.0938 -0.1781
  741POPS   C2B11048  17.844  10.305   6.485  0.2331  0.2137  0.0633
  741POPS   C3B11049  17.947  10.189   6.887 -0.1667 -0.1870  0.0661
  741POPS   C4B11050  17.900  10.148   7.283 -0.2526 -0.0783  0.0949
  742POPS   CNO11051   7.908   2.784   5.488 -0.0996 -0.3185  0.0058
  742POPS   PO411052   7.646   3.056   5.477 -0.0250 -0.1301 -0.1417
  742POPS   GL111053   7.556   3.432   5.799 -0.2849 -0.1268 -0.3069
  742POPS   GL211054   7.861   3.333   5.996 -0.0414 -0.0741  0.3827
  742POPS   C1A11055   7.485   3.635   6.300  0.0373 -0.2581 -0.3645
  742POPS   D2A11056   7.714   4.014   6.365 -0.2264 -0.1265  0.1463
  742POPS   C3A11057   7.779   4.199   6.791 -0.1984  0.1714  0.0178
  742POPS   C4A11058   8.144   4.105   6.969 -0.1112  0.0595 -0.0566
  742POPS   C1B11059   7.751   3.087   6.339  0.1778 -0.4404  0.0574
  742POPS   C2B11060   7.384   2.810   6.381  0.2585 -0.0441  0.0104
  742POPS   C3B11061   7.353   2.410   6.440 -0.2194  0.0594  0.3632
  742POPS   C4B11062   7.566   2.011   6.366  0.0273 -0.1067 -0.1198
  743POPS   CNO11063  11.902   2.673   5.074  0.0041  0.1157 -0.1969
  743POPS   PO411064  11.727   2.471   5.478  0.1806 -0.1314 -0.0857
  743POPS   GL111065  11.793   2.479   5.951  0.4523  0.0331  0.0555
  743POPS   GL211066  11.446   2.612   6.020  0.0088  0.2481 -0.1855
  743POPS   C1A11067  12.053   2.690   6.173  0.4494 -0.3981 -0.0196
  743POPS   D2A11068  12.288   2.962   6.495  0.0858  0.1760  0.0593
  743POPS   C3A11069  12.330   2.922   6.967 -0.0515 -0.2419  0.3380
  743POPS   C4A11070  12.653   3.222   7.313  0.3145 -0.0568 -0.1494
  743POPS   C1B11071  11.375   2.701   6.397  0.0261  0.0794 -0.0175
  743POPS   C2B11072  11.831   2.719   6.695 -0.1282 -0.0364  0.1633
  743POPS   C3B11073  11.891   2.673   7.121  0.5455 -0.1249  0.0449
  743POPS   C4B11074  11.905   2.580   7.648  0.0344 -0.2124 -0.3808
  744POPS   CNO11075  17.199  11.620   5.251  0.0363 -0.0316  0.0157
  744POPS   PO411076  17.420  11.962   5.443 -0.2241 -0.3511  0.1961
  744POPS   GL111077  17.369  11.687   5.757 -0.2080 -0.3896 -0.0286
  744POPS   GL211078  17.518  11.497   5.797 -0.0084 -0.1985 -0.1692
  744POPS   C1A11079  17.039  11.574   6.012 -0.1694  0.2334 -0.1644
  744POPS   D2A11080  16.881  11.457   6.332 -0.0881  0.2536 -0.2327
  744POPS   C3A11081  17.182  11.555   6.749 -0.1071 -0.0245 -0.0952
  744POPS   C4A11082  17.509  11.609   7.095 -0.2402 -0.0258 -0.0744
  744POPS   C1B11083  17.532  11.781   6.229 -0.5672 -0.1838  0.0687
  744POPS   C2B11084  17.704  11.957   6.539 -0.2201  0.0756 -0.0056
  744POPS   C3B11085  17.746  11.971   6.822 -0.1846  0.0267  0.0433
  744POPS   C4B11086  17.706  12.178   7.180  0.2159 -0.1589  0.4264
  745POPS   CNO11087  18.074   9.081   5.214  0.3496  0.0944 -0.5749
  745POPS   PO411088  18.039   9.415   5.381 -0.1763  0.2769  0.1395
  745POPS   GL111089  18.124   9.453   5.759  0.0566 -0.2094 -0.0190
  745POPS   GL211090  18.308   9.183   5.758  0.0847 -0.2048 -0.0373
  745POPS   C1A11091  18.259   9.522   6.128 -0.1117 -0.2677  0.1719
  745POPS   D2A11092  18.505   9.522   6.446 -0.0784  0.4682 -0.4951
  745POPS   C3A11093  18.779   9.255   6.503 -0.2312 -0.0167  0.1885
  745POPS   C4A11094  19.111   9.204   6.792  0.1001 -0.2004  0.0095
  745POPS   C1B11095  18.714   9.379   6.015  0.1858  0.4150  0.4830
  745POPS   C2B11096  19.103   9.442   6.064  0.1165 -0.0838 -0.2529
  745POPS   C3B11097  19.453   9.136   5.923  0.0587 -0.0449  0.1562
  745POPS   C4B11098  19.650   8.760   5.958  0.0340  0.1647 -0.1030
  746POPS   CNO11099  12.047   5.776   5.143  0.0038  0.0876  0.4093
  746POPS   PO411100  11.703   5.840   5.400 -0.0031  0.1361 -0.2381
  746POPS   GL111101  11.618   6.075   5.691  0.0547 -0.0423  0.1532
  746POPS   GL211102  11.356   6.124   5.756 -0.0126 -0.0606 -0.2086
  746POPS   C1A11103  11.946   6.113   6.021 -0.2345 -0.0176 -0.1575
  746POPS   D2A11104  11.990   6.072   6.474  0.2507  0.0007  0.0439
  746POPS   C3A11105  11.733   6.336   6.710 -0.0065 -0.1273  0.5738
  746POPS   C4A11106  11.667   6.634   7.093  0.0966  0.1724 -0.0731
  746POPS   C1B11107  11.416   5.920   6.164 -0.2617  0.1235  0.0497
  746POPS   C2B11108  11.615   5.709   6.499 -0.2452 -0.1564 -0.1804
  746POPS   C3B11109  11.477   5.358   6.668  0.3106 -0.0124  0.0659
  746POPS   C4B11110  11.463   5.225   7.088 -0.2417 -0.0607 -0.1418
  747POPS   CNO11111   5.861   7.298   5.059 -0.0437 -0.3726 -0.0955
  747POPS   PO411112   5.575   7.660   5.082  0.0693  0.2038  0.0603
  747POPS   GL111113   5.696   7.545   5.468  0.1812  0.1668  0.2170
  747POPS   GL211114   5.938   7.335   5.612 -0.1005  0.0842  0.0854
  747POPS   C1A11115   5.602   7.541   5.937  0.0353 -0.1566 -0.0012
  747POPS   D2A11116   5.710   7.658   6.359 -0.0668  0.2591  0.4046
  747POPS   C3A11117   5.443   7.661   6.708 -0.0932  0.2155  0.0547
  747POPS   C4A11118   5.340   7.341   6.976 -0.0524  0.2849 -0.0686
  747POPS   C1B11119   6.020   7.331   6.020  0.0119 -0.0620 -0.0785
  747POPS   C2B11120   6.124   7.438   6.482  0.1216  0.1186 -0.3008
  747POPS   C3B11121   6.004   7.563   6.923 -0.0503  0.2373  0.1400
  747POPS   C4B11122   5.733   7.467   7.251  0.1509  0.1634 -0.2041
  748POPS   CNO11123   9.958   0.346   5.686 -0.2120 -0.0323 -0.0583
  748POPS   PO411124   9.999   0.520   6.091  0.0518  0.0550  0.0989
  748POPS   GL111125   9.779   0.649   6.396  0.2661 -0.3428 -0.0134
  748POPS   GL211126   9.841   0.830   6.653  0.0696  0.1520  0.1566
  748POPS   C1A11127   9.315   0.609   6.555 -0.0583 -0.2042  0.2733
  748POPS   D2A11128   9.194   0.377   6.908  0.1538  0.3269  0.0630
  748POPS   C3A11129   8.971   0.594   7.157  0.0404  0.1098 -0.1127
  748POPS   C4A11130   9.164   0.586   7.583  0.0615 -0.1228  0.0826
  748POPS   C1B11131   9.458   1.032   6.670  0.2431 -0.0125 -0.1531
  748POPS   C2B11132   9.033   1.022   6.822  0.0578 -0.0896 -0.1207
  748POPS   C3B11133   8.659   1.028   7.080 -0.0212  0.1965 -0.3206
  748POPS   C4B11134   8.291   1.012   7.271  0.0691 -0.2692 -0.0081
  749POPS   CNO11135  15.091  12.086   5.113 -0.1795 -0.1300  0.0889
  749POPS   PO411136  15.494  11.829   5.089  0.1766 -0.1782  0.0944
  749POPS   GL111137  15.367  12.016   5.540  0.1444  0.1754 -0.1013
  749POPS   GL211138  15.278  12.347   5.683  0.1703 -0.2014 -0.1926
  749POPS   C1A11139  15.528  11.995   6.035  0.1551 -0.2082 -0.2361
  749POPS   D2A11140  15.595  12.326   6.292 -0.1729 -0.0750 -0.0008
  749POPS   C3A11141  15.875  12.572   6.446  0.0059 -0.0518  0.2121
  749POPS   C4A11142  16.275  12.675   6.486 -0.0207 -0.0391  0.0149
  749POPS   C1B11143  15.191  12.582   6.082 -0.4040  0.1229 -0.0447
  749POPS   C2B11144  15.155  12.749   6.418  0.0210 -0.0855  0.2277
  749POPS   C3B11145  15.014  12.763   6.858 -0.0382 -0.1741  0.3978
  749POPS   C4B11146  14.855  12.634   7.279 -0.2107 -0.2488 -0.4091
  750POPS   CNO11147   8.080   2.860   5.972 -0.1590  0.2264 -0.0089
  750POPS   PO411148   8.492   2.752   5.729  0.1765 -0.0059  0.2639
  750POPS   GL111149   8.537   2.714   6.193  0.0585  0.2956  0.2085
  750POPS   GL211150   8.672   2.488   6.302  0.1651 -0.0349  0.1207
  750POPS   C1A11151   8.444   2.890   6.539 -0.2826  0.0550  0.3112
  750POPS   D2A11152   8.595   3.108   6.941  0.4163  0.0442  0.1663
  750POPS   C3A11153   8.765   3.139   7.269  0.1495 -0.1480 -0.2065
  750POPS   C4A11154   9.066   2.818   7.510 -0.1833 -0.0901  0.5750
  750POPS   C1B11155   8.560   2.517   6.868 -0.0145  0.1812 -0.0492
  750POPS   C2B11156   8.263   2.762   7.011 -0.0875  0.0071  0.0624
  750POPS   C3B11157   8.262   2.972   7.418  0.0609  0.1872 -0.2878
  750POPS   C4B11158   8.591   3.001   7.746  0.0013 -0.0723  0.0399
  751POPS   CNO11159  16.659   3.318   5.036 -0.0774 -0.0181 -0.0476
  751POPS   PO411160  16.852   3.758   4.885 -0.0221  0.2388 -0.5122
  751POPS   GL111161  16.848   3.785   5.269 -0.3038 -0.1285 -0.0576
  751POPS   GL211162  16.766   3.941   5.513 -0.0166  0.2729 -0.4384
  751POPS   C1A11163  17.230   3.656   5.616 -0.0413 -0.3682 -0.1742
  751POPS   D2A11164  17.301   3.441   6.003  0.0435  0.1580 -0.0350
  751POPS   C3A11165  17.561   3.201   6.226 -0.0704  0.0731  0.1246
  751POPS   C4A11166  17.870   3.003   6.008 -0.3273 -0.1943  0.2375
  751POPS   C1B11167  17.059   4.194   5.681  0.0775  0.0914 -0.0596
  751POPS   C2B11168  17.022   4.338   6.076  0.0142 -0.0797  0.0770
  751POPS   C3B11169  16.908   4.452   6.495  0.3258  0.1698 -0.1583
  751POPS   C4B11170  16.826   4.331   6.910 -0.0905  0.1486  0.1119
  752POPS   CNO11171   8.032  16.778   5.508  0.1233  0.1272  0.4439
  752POPS   PO411172   7.593  16.786   5.460  0.1173 -0.3090  0.2386
  752POPS   GL111173   7.480  16.823   5.941  0.1669  0.4035  0.2483
  752POPS   GL211174   7.467  17.132   6.129 -0.2359  0.3717 -0.0701
  752POPS   C1A11175   7.487  16.536   6.164 -0.2296 -0.1242 -0.3293
  752POPS   D2A11176   7.595  16.388   6.547 -0.1872 -0.2378 -0.3466
  752POPS   C3A11177   7.934  16.580   6.720  0.0122  0.2301  0.0303
  752POPS   C4A11178   8.214  16.757   7.085 -0.0551 -0.2076  0.0633
  752POPS   C1B11179   7.719  17.071   6.486 -0.1205  0.5030 -0.1206
  752POPS   C2B11180   8.109  17.047   6.595 -0.1572 -0.0134 -0.0202
  752POPS   C3B11181   8.437  16.744   6.618 -0.1783 -0.1646  0.1601
  752POPS   C4B11182   8.745  16.723   6.805  0.0044 -0.2421 -0.1219
  753POPS   CNO11183  11.794  19.014   5.841  0.1816 -0.1986 -0.1236
  753POPS   PO411184  11.413  19.205   5.742 -0.0631  0.0386 -0.0475
  753POPS   GL111185  11.390  19.477   6.076  0.2743 -0.2739 -0.2837
  753POPS   GL211186  11.142  19.391   6.390 -0.0071 -0.2551 -0.2567
  753POPS   C1A11187  11.553  19.608   6.553  0.0091  0.1837 -0.1256
  753POPS   D2A11188  11.787  19.446   6.867  0.0343 -0.0635 -0.0077
  753POPS   C3A11189  11.605  19.292   7.159 -0.0228  0.1090  0.0354
  753POPS   C4A11190  11.506  19.574   7.496 -0.0187  0.2273 -0.0704
  753POPS   C1B11191  11.137  19.523   6.794 -0.1374 -0.0932 -0.2177
  753POPS   C2B11192  11.103  19.377   7.204 -0.1327  0.0003 -0.1341
  753POPS   C3B11193  11.028  19.543   7.661  0.0827  0.0060 -0.0615
  753POPS   C4B11194  10.865  19.966   7.832 -0.2740 -0.0036  0.2232
  754POPS   CNO11195  11.592   5.092   5.017  0.0059 -0.1564 -0.4267
  754POPS   PO411196  11.396   4.864   5.371  0.2379 -0.0550 -0.1675
  754POPS   GL111197  11.506   4.899   5.814 -0.1488  0.4079  0.1023
  754POPS   GL211198  11.822   4.938   5.880 -0.6393 -0.3653 -0.0175
  754POPS   C1A11199  11.438   4.651   6.268  0.2038 -0.1628  0.0529
  754POPS   D2A11200  11.577   4.470   6.556  0.0487 -0.2650  0.2881
  754POPS   C3A11201  11.673   3.959   6.581 -0.1786 -0.0826  0.5779
  754POPS   C4A11202  11.747   3.718   6.789 -0.1501 -0.0537  0.2933
  754POPS   C1B11203  12.008   5.296   6.080 -0.1273 -0.0070  0.1998
  754POPS   C2B11204  12.004   5.336   6.532 -0.0519 -0.1807  0.2928
  754POPS   C3B11205  11.927   5.175   6.917  0.1116 -0.0635  0.1654
  754POPS   C4B11206  12.028   5.269   7.380 -0.2410 -0.0221  0.0667
  755POPS   CNO11207   1.946   0.236   5.117  0.0247 -0.0526 -0.1396
  755POPS   PO411208   2.209   0.616   4.929  0.1270 -0.1616  0.3059
  755POPS   GL111209   2.201   0.684   5.223 -0.1581 -0.1623  0.3277
  755POPS   GL211210   2.100   0.392   5.527 -0.1308  0.1023 -0.1640
  755POPS   C1A11211   2.016   0.929   5.584  0.0002 -0.0014 -0.1458
  755POPS   D2A11212   1.854   1.028   5.951 -0.0882 -0.2084 -0.1225
  755POPS   C3A11213   2.004   0.674   6.287  0.1106 -0.1415 -0.2981
  755POPS   C4A11214   2.270   0.260   6.497  0.3104  0.0019  0.1489
  755POPS   C1B11215   2.076   0.301   6.016  0.0551  0.3179 -0.1464
  755POPS   C2B11216   1.698   0.168   6.159  0.1251 -0.2376  0.3553
  755POPS   C3B11217   1.310   0.337   6.250 -0.2882  0.2688 -0.1723
  755POPS   C4B11218   0.918   0.375   6.399 -0.1560 -0.3574  0.3398
  756POPS   CNO11219  11.125  15.349   5.358  0.2288 -0.1994  0.1556
  756POPS   PO411220  11.461  15.697   5.317 -0.0925 -0.1253  0.1908
  756POPS   GL111221  11.490  15.713   5.786  0.2180  0.0394 -0.0608
  756POPS   GL211222  11.559  15.961   5.975 -0.3170 -0.1133 -0.1630
  756POPS   C1A11223  11.408  15.463   6.151  0.1088  0.1703  0.0633
  756POPS   D2A11224  11.384  15.114   6.411  0.1026  0.2469 -0.0192
  756POPS   C3A11225  11.667  14.871   6.664  0.2572  0.1530  0.1098
  756POPS   C4A11226  11.754  14.519   6.994 -0.0250  0.3415 -0.0858
  756POPS   C1B11227  11.546  15.896   6.443  0.1278  0.0448 -0.1555
  756POPS   C2B11228  11.587  15.680   6.781  0.1802 -0.0334  0.0675
  756POPS   C3B11229  11.439  15.339   6.839  0.3350 -0.1095  0.0825
  756POPS   C4B11230  11.042  15.124   6.771  0.3127  0.3015 -0.1207
  757POPS   CNO11231   4.670   3.599   5.138 -0.0414 -0.0518  0.4746
  757POPS   PO411232   4.371   3.407   5.110 -0.1728 -0.1567 -0.2325
  757POPS   GL111233   4.160   3.369   5.491 -0.3456  0.0520 -0.0798
  757POPS   GL211234   4.201   3.086   5.719  0.0952  0.1719  0.1029
  757POPS   C1A11235   3.994   3.581   5.787 -0.1696 -0.0311 -0.3193
  757POPS   D2A11236   4.083   3.969   5.881 -0.0674 -0.1542  0.1938
  757POPS   C3A11237   3.938   4.239   6.018  0.2007  0.0636  0.1508
  757POPS   C4A11238   3.727   4.343   6.436  0.2401 -0.0579 -0.0734
  757POPS   C1B11239   4.212   3.026   6.057 -0.0933 -0.3869  0.1335
  757POPS   C2B11240   4.125   3.296   6.463  0.1295 -0.2337  0.1119
  757POPS   C3B11241   4.408   3.514   6.659  0.0647 -0.2458  0.0091
  757POPS   C4B11242   4.652   3.562   7.115 -0.1070 -0.0461  0.1662
  758POPS   CNO11243  13.405   4.382   4.978 -0.1782 -0.1038 -0.2442
  758POPS   PO411244  13.094   4.333   5.114 -0.1163 -0.0469 -0.3176
  758POPS   GL111245  13.158   4.379   5.598 -0.2899 -0.1474  0.0845
  758POPS   GL211246  13.484   4.508   5.468 -0.1250 -0.0935 -0.0528
  758POPS   C1A11247  13.063   4.473   6.026 -0.0843 -0.0711  0.1340
  758POPS   D2A11248  13.225   4.519   6.432  0.1296 -0.3908 -0.0819
  758POPS   C3A11249  13.138   4.614   6.761 -0.1077  0.0344  0.1933
  758POPS   C4A11250  13.025   5.027   6.937  0.3412 -0.2663  0.1914
  758POPS   C1B11251  13.625   4.635   5.798  0.0591  0.0415  0.1619
  758POPS   C2B11252  13.730   4.533   6.228 -0.0987 -0.3837  0.2867
  758POPS   C3B11253  13.669   4.483   6.631  0.0704 -0.1559 -0.0774
  758POPS   C4B11254  13.831   4.316   7.009 -0.1530  0.2285  0.0087
  759POPS   CNO11255   3.209   2.379   4.838 -0.3365 -0.4223 -0.4524
  759POPS   PO411256   3.493   2.187   5.015 -0.1295 -0.1241  0.0533
  759POPS   GL111257   3.378   2.016   5.378  0.0066 -0.1316 -0.0230
  759POPS   GL211258   3.132   2.123   5.644  0.4392 -0.0578 -0.0039
  759POPS   C1A11259   3.567   1.719   5.715  0.0026  0.1413  0.0439
  759POPS   D2A11260   3.371   1.646   6.049  0.1194 -0.1580 -0.1073
  759POPS   C3A11261   3.205   1.885   6.436  0.2734 -0.2321 -0.2123
  759POPS   C4A11262   3.197   1.761   6.950 -0.0932 -0.1957 -0.1937
  759POPS   C1B11263   3.330   2.120   6.037  0.0575  0.1242  0.0852
  759POPS   C2B11264   3.485   2.301   6.416  0.3079 -0.0046  0.2028
  759POPS   C3B11265   3.559   2.146   6.859 -0.0760  0.0857  0.0239
  759POPS   C4B11266   3.657   2.035   7.261  0.3209  0.2271  0.1015
  760POPS   CNO11267   1.257   9.727   5.110  0.0604  0.2179  0.1475
  760POPS   PO411268   0.813   9.584   5.318  0.1782 -0.1448 -0.0426
  760POPS   GL111269   0.687   9.591   5.720 -0.1020  0.0908 -0.0404
  760POPS   GL211270   0.824   9.884   6.007 -0.1806  0.0456 -0.2537
  760POPS   C1A11271   0.343   9.595   6.012  0.4277 -0.0421 -0.0759
  760POPS   D2A11272   0.138   9.386   6.458  0.0745 -0.2882  0.1874
  760POPS   C3A11273   0.241   8.970   6.506 -0.0250 -0.0524  0.1066
  760POPS   C4A11274   0.409   8.540   6.372 -0.0661  0.1173 -0.1343
  760POPS   C1B11275   0.730   9.714   6.312  0.1890  0.4869  0.0222
  760POPS   C2B11276   0.612   9.404   6.666  0.5070  0.3794  0.2483
  760POPS   C3B11277   0.197   9.351   6.945 -0.1019 -0.1103  0.2418
  760POPS   C4B11278  -0.167   9.645   7.033  0.4084  0.1436  0.2069
  761POPS   CNO11279   8.859   7.727   5.033 -0.2541  0.2543  0.0033
  761POPS   PO411280   9.088   7.989   5.035  0.1573 -0.5183  0.1899
  761POPS   GL111281   8.825   8.096   5.421  0.1958 -0.0541  0.1329
  761POPS   GL211282   8.673   8.538   5.432 -0.0746 -0.2113  0.2356
  761POPS   C1A11283   8.641   7.982   5.723 -0.1732 -0.2216  0.0588
  761POPS   D2A11284   8.288   8.289   5.993 -0.2483 -0.0259  0.0442
  761POPS   C3A11285   8.288   8.726   6.133 -0.0682  0.0197  0.4321
  761POPS   C4A11286   8.588   8.799   6.493  0.0442 -0.2633  0.2257
  761POPS   C1B11287   8.811   8.653   5.816 -0.0810 -0.0620 -0.1449
  761POPS   C2B11288   8.851   8.478   6.248  0.1738 -0.1668 -0.2154
  761POPS   C3B11289   8.809   8.384   6.683 -0.0242 -0.0188  0.1209
  761POPS   C4B11290   8.980   8.270   6.997 -0.2118  0.3712  0.1056
  762POPS   CNO11291  11.820  14.936   4.946  0.0346 -0.0096  0.1942
  762POPS   PO411292  11.868  14.873   5.366 -0.0356 -0.0116  0.0094
  762POPS   GL111293  12.069  14.593   5.637 -0.4418 -0.1171  0.1559
  762POPS   GL211294  11.832  14.350   5.809 -0.0893  0.1793 -0.1172
  762POPS   C1A11295  12.274  14.515   6.019  0.1354 -0.2310  0.2291
  762POPS   D2A11296  12.280  14.787   6.475  0.0656 -0.1435  0.0404
  762POPS   C3A11297  12.324  14.505   6.902  0.0648 -0.2318  0.1534
  762POPS   C4A11298  12.721  14.297   7.160 -0.3068 -0.0579 -0.2401
  762POPS   C1B11299  11.528  14.114   6.102 -0.1381  0.1062 -0.0095
  762POPS   C2B11300  11.237  13.922   6.358  0.3195  0.3465 -0.0213
  762POPS   C3B11301  11.089  13.959   6.653 -0.0487 -0.0732  0.1079
  762POPS   C4B11302  11.168  13.706   6.990 -0.1212 -0.1103  0.1616
  763POPS   CNO11303  15.784   0.477   4.433 -0.1731  0.0470  0.1736
  763POPS   PO411304  16.097   0.201   4.774  0.1690  0.3854  0.1242
  763POPS   GL111305  15.757   0.372   5.067  0.3523 -0.1620 -0.1144
  763POPS   GL211306  15.938   0.492   5.215  0.3343  0.1027  0.3331
  763POPS   C1A11307  15.523   0.507   5.491  0.1917 -0.3117 -0.0347
  763POPS   D2A11308  15.096   0.403   5.566 -0.0412 -0.1419  0.1277
  763POPS   C3A11309  15.041   0.757   5.917  0.1790  0.0844 -0.0324
  763POPS   C4A11310  14.687   0.876   6.056  0.2181 -0.0219  0.1589
  763POPS   C1B11311  15.871   0.149   5.510 -0.3178 -0.0465  0.1817
  763POPS   C2B11312  16.052  -0.033   5.866  0.0574  0.1088 -0.0825
  763POPS   C3B11313  16.364  -0.215   6.172 -0.3281 -0.2311  0.3231
  763POPS   C4B11314  16.473  -0.138   6.556  0.1501 -0.2187  0.1958
  764POPS   CNO11315  10.154   0.956   5.385  0.0970  0.1402  0.0286
  764POPS   PO411316   9.951   0.974   5.838  0.0379 -0.0849  0.0606
  764POPS   GL111317  10.181   0.992   6.119 -0.3354  0.1520  0.0822
  764POPS   GL211318  10.488   1.095   6.102 -0.3765  0.0923 -0.3818
  764POPS   C1A11319  10.212   1.141   6.588 -0.2167  0.1464 -0.0199
  764POPS   D2A11320  10.474   1.266   6.888  0.0157 -0.0800 -0.0193
  764POPS   C3A11321  10.833   1.417   7.136 -0.0333 -0.1951  0.1585
  764POPS   C4A11322  10.955   1.631   7.436  0.1808 -0.0753  0.0759
  764POPS   C1B11323  10.715   0.899   6.605 -0.2327  0.0754  0.1120
  764POPS   C2B11324  10.781   0.950   7.103  0.1584 -0.4166  0.0830
  764POPS   C3B11325  10.593   0.940   7.525  0.0228  0.0951 -0.1506
  764POPS   C4B11326  10.406   0.736   7.735  0.2132  0.0573 -0.1660
  765POPS   CNO11327  13.948   7.232   5.213 -0.0620 -0.1252  0.2082
  765POPS   PO411328  13.569   7.233   5.158 -0.2523 -0.3036  0.1509
  765POPS   GL111329  13.549   7.115   5.560 -0.5748 -0.1402 -0.0828
  765POPS   GL211330  13.691   7.446   5.693  0.3054  0.1696 -0.2363
  765POPS   C1A11331  13.535   6.926   5.923  0.0138 -0.0648  0.0289
  765POPS   D2A11332  13.409   6.676   6.301  0.3916  0.1770  0.0533
  765POPS   C3A11333  13.259   6.307   6.428 -0.0504 -0.0541 -0.0864
  765POPS   C4A11334  12.951   6.186   6.786 -0.6163 -0.5440 -0.0543
  765POPS   C1B11335  13.818   7.297   6.076  0.3602  0.0412 -0.2199
  765POPS   C2B11336  13.641   7.096   6.376 -0.1692 -0.0395 -0.1277
  765POPS   C3B11337  13.703   6.741   6.689 -0.1271 -0.0614  0.1098
  765POPS   C4B11338  13.631   6.742   7.044  0.2464  0.0320  0.0697
  766POPS   CNO11339   3.421   6.603   5.154  0.1851 -0.3008  0.4074
  766POPS   PO411340   3.055   6.560   5.184 -0.0495  0.0735  0.1713
  766POPS   GL111341   3.206   6.314   5.565 -0.0224 -0.1660 -0.0299
  766POPS   GL211342   3.156   5.922   5.647  0.0375 -0.0693  0.1505
  766POPS   C1A11343   3.319   6.410   5.938  0.0140 -0.0689  0.0519
  766POPS   D2A11344   3.251   6.278   6.332  0.0868  0.0291 -0.0535
  766POPS   C3A11345   3.482   6.308   6.642 -0.0541  0.4261 -0.0638
  766POPS   C4A11346   3.592   6.575   7.001 -0.1228 -0.0979 -0.0036
  766POPS   C1B11347   3.020   5.841   5.996 -0.1982  0.1585 -0.2643
  766POPS   C2B11348   3.025   5.830   6.420 -0.0035 -0.1597  0.1896
  766POPS   C3B11349   2.995   6.040   6.749 -0.1214 -0.0312  0.1610
  766POPS   C4B11350   3.241   6.238   7.060 -0.0869  0.0334  0.2187
  767POPS   CNO11351  11.606  17.080   5.025  0.2749  0.0038  0.2125
  767POPS   PO411352  11.501  17.043   5.475 -0.1068  0.0613 -0.1421
  767POPS   GL111353  11.470  17.349   5.725  0.0230  0.2203  0.0164
  767POPS   GL211354  11.316  17.585   5.721 -0.1450 -0.1280 -0.0757
  767POPS   C1A11355  11.515  17.583   6.207 -0.3874 -0.4376  0.1768
  767POPS   D2A11356  11.436  17.799   6.699  0.0908  0.0309  0.2734
  767POPS   C3A11357  11.646  18.185   6.783 -0.1987 -0.2112 -0.1902
  767POPS   C4A11358  11.669  18.492   6.635  0.0231 -0.1772 -0.0300
  767POPS   C1B11359  11.016  17.816   5.939 -0.1477 -0.1181 -0.3793
  767POPS   C2B11360  11.177  18.015   6.337 -0.0814 -0.2299  0.0863
  767POPS   C3B11361  11.225  18.390   6.332  0.2105  0.0276 -0.0674
  767POPS   C4B11362  11.134  18.809   6.347 -0.0600  0.0724 -0.1250
  768POPS   CNO11363   8.818  17.866   5.139  0.2004  0.1189 -0.1749
  768POPS   PO411364   8.544  17.744   5.410  0.1591 -0.4126  0.0041
  768POPS   GL111365   8.278  17.812   5.797  0.0862  0.2345  0.2681
  768POPS   GL211366   8.331  17.588   6.023  0.0617 -0.0915 -0.0017
  768POPS   C1A11367   8.306  18.019   6.212 -0.0040  0.3841  0.0933
  768POPS   D2A11368   8.406  18.277   6.516  0.0780  0.2173 -0.1129
  768POPS   C3A11369   8.471  18.331   6.905  0.1885 -0.1869  0.2822
  768POPS   C4A11370   8.473  18.572   7.378 -0.1526  0.1135  0.0568
  768POPS   C1B11371   8.096  17.497   6.303 -0.0135  0.1194 -0.2144
  768POPS   C2B11372   8.037  17.501   6.785 -0.2266 -0.0774 -0.0099
  768POPS   C3B11373   7.932  17.595   7.110 -0.1153  0.2986 -0.2224
  768POPS   C4B11374   7.734  17.474   7.515  0.0146  0.3889 -0.1953
  769POPS   CNO11375   0.587   0.217   4.593 -0.0866  0.0960 -0.0479
  769POPS   PO411376   0.418   0.479   4.919  0.0202 -0.1244 -0.0118
  769POPS   GL111377   0.644   0.436   5.341  0.3252  0.1332 -0.0922
  769POPS   GL211378   0.319   0.530   5.507 -0.0444 -0.0223  0.1257
  769POPS   C1A11379   1.035   0.509   5.622  0.2551 -0.2309 -0.1807
  769POPS   D2A11380   1.383   0.269   5.706 -0.2980 -0.0059 -0.0396
  769POPS   C3A11381   1.671   0.571   5.882  0.2762 -0.0672 -0.0925
  769POPS   C4A11382   1.569   0.798   6.276 -0.1962 -0.0685 -0.1622
  769POPS   C1B11383   0.580   0.579   5.799  0.1239  0.1060 -0.1193
  769POPS   C2B11384   0.583   0.794   6.154  0.0154  0.1380 -0.0272
  769POPS   C3B11385   0.665   0.802   6.704  0.0292  0.3674 -0.0200
  769POPS   C4B11386   0.562   1.105   6.927 -0.0646 -0.0026 -0.1880
  770POPS   CNO11387  14.936   0.481   4.666  0.0766 -0.0908 -0.1210
  770POPS   PO411388  15.351   0.271   4.840 -0.3033  0.0688 -0.1086
  770POPS   GL111389  15.290   0.079   5.235  0.1167  0.1397 -0.2146
  770POPS   GL211390  15.164  -0.258   5.236 -0.1435 -0.1769 -0.2314
  770POPS   C1A11391  15.416   0.011   5.639  0.0411 -0.0006 -0.1107
  770POPS   D2A11392  15.552  -0.251   5.947  0.1706  0.2699 -0.0043
  770POPS   C3A11393  15.390  -0.722   6.122 -0.0602 -0.1626  0.1218
  770POPS   C4A11394  15.085  -0.784   6.422 -0.2911  0.1565  0.0165
  770POPS   C1B11395  15.570  -0.405   5.441 -0.1587 -0.2979  0.1099
  770POPS   C2B11396  15.886  -0.599   5.655 -0.0476 -0.1481  0.1054
  770POPS   C3B11397  16.292  -0.567   5.631  0.1300 -0.2087  0.1777
  770POPS   C4B11398  16.688  -0.692   5.735 -0.0294  0.2486 -0.0536
  771POPS   CNO11399   0.417   2.629   5.396  0.5688 -0.1774  0.4582
  771POPS   PO411400   0.050   2.433   5.114 -0.0456 -0.1067  0.0879
  771POPS   GL111401  -0.211   2.572   5.569 -0.0210  0.1413 -0.1513
  771POPS   GL211402  -0.344   3.018   5.644  0.3368  0.0242  0.1784
  771POPS   C1A11403  -0.481   2.497   5.808 -0.0231  0.0269 -0.0319
  771POPS   D2A11404  -0.657   2.575   6.230  0.0090 -0.1645 -0.0870
  771POPS   C3A11405  -0.304   2.530   6.552  0.2441 -0.1816  0.1037
  771POPS   C4A11406   0.108   2.732   6.481 -0.0252 -0.2665 -0.0774
  771POPS   C1B11407   0.035   3.010   5.619  0.0602  0.2534 -0.1369
  771POPS   C2B11408   0.328   2.725   5.867  0.1537 -0.0061  0.3776
  771POPS   C3B11409   0.572   2.712   6.146 -0.0348  0.0537 -0.0949
  771POPS   C4B11410   0.650   2.694   6.558 -0.0665 -0.4118  0.0617
  772POPS   CNO11411  11.190  13.501   4.813 -0.0858 -0.4012  0.2557
  772POPS   PO411412  11.362  13.440   5.118 -0.0131  0.4159  0.2046
  772POPS   GL111413  11.098  13.106   5.449 -0.0187 -0.0508 -0.2297
  772POPS   GL211414  11.018  13.339   5.661 -0.0902 -0.0737  0.2308
  772POPS   C1A11415  11.166  12.624   5.615 -0.0803 -0.0795 -0.0838
  772POPS   D2A11416  11.486  12.394   5.801 -0.3770 -0.1463  0.1623
  772POPS   C3A11417  11.818  12.573   6.058  0.2485  0.0648  0.2705
  772POPS   C4A11418  12.024  12.318   6.377  0.0128 -0.0084 -0.1371
  772POPS   C1B11419  10.957  13.018   5.970 -0.2801  0.0148  0.2516
  772POPS   C2B11420  10.954  12.608   6.134  0.0256  0.0648  0.0728
  772POPS   C3B11421  10.944  12.581   6.639  0.4426  0.0823 -0.0945
  772POPS   C4B11422  10.795  12.323   6.916  0.0263  0.2005 -0.0625
  773POPS   CNO11423   1.671  13.732   4.940  0.0651 -0.1735  0.0551
  773POPS   PO411424   1.935  13.310   5.075  0.4543  0.1617 -0.1823
  773POPS   GL111425   1.982  13.320   5.509 -0.4483 -0.2613  0.3297
  773POPS   GL211426   1.782  13.493   5.744 -0.1603 -0.1873 -0.0386
  773POPS   C1A11427   2.244  13.190   5.892  0.0109 -0.2720  0.2852
  773POPS   D2A11428   2.321  13.148   6.314 -0.1376 -0.0103 -0.0178
  773POPS   C3A11429   2.329  13.551   6.476  0.3590  0.0611  0.1054
  773POPS   C4A11430   2.510  13.933   6.423  0.1223  0.1360 -0.4380
  773POPS   C1B11431   1.988  13.588   6.131 -0.0933  0.0993  0.2549
  773POPS   C2B11432   1.903  13.862   6.467  0.0192 -0.1092  0.0853
  773POPS   C3B11433   1.662  13.919   6.841 -0.1677 -0.2810 -0.0447
  773POPS   C4B11434   1.294  13.986   7.053  0.1613 -0.0033  0.0300
  774POPS   CNO11435   3.524  17.668   5.116 -0.4392 -0.1719  0.0086
  774POPS   PO411436   3.858  17.964   5.079 -0.2308 -0.3071 -0.1202
  774POPS   GL111437   3.945  17.761   5.478  0.1812  0.1472 -0.2436
  774POPS   GL211438   3.676  17.514   5.576 -0.0279 -0.0082  0.0241
  774POPS   C1A11439   4.225  17.620   5.855  0.0293 -0.1973  0.3969
  774POPS   D2A11440   4.475  17.609   6.125  0.0024  0.1102 -0.0339
  774POPS   C3A11441   4.385  17.334   6.431  0.1364 -0.1287 -0.0617
  774POPS   C4A11442   4.411  17.025   6.685 -0.0835  0.1770 -0.0483
  774POPS   C1B11443   3.519  17.504   5.932  0.2383 -0.2156 -0.3273
  774POPS   C2B11444   3.175  17.295   6.081  0.1601 -0.2973 -0.1455
  774POPS   C3B11445   2.776  17.202   6.223  0.0882 -0.1298 -0.0050
  774POPS   C4B11446   2.682  16.814   6.471  0.2983  0.2498 -0.0404
  775POPS   CNO11447  13.172  12.357   5.044 -0.1708 -0.2240 -0.2302
  775POPS   PO411448  12.919  12.425   5.416 -0.0653  0.1377  0.0178
  775POPS   GL111449  13.232  12.555   5.736  0.0651  0.0675  0.0114
  775POPS   GL211450  13.303  12.869   5.896 -0.0877 -0.0906  0.2366
  775POPS   C1A11451  13.532  12.444   6.046 -0.1367 -0.0196  0.0626
  775POPS   D2A11452  13.916  12.584   5.965  0.0751  0.4198 -0.3457
  775POPS   C3A11453  13.944  12.868   6.267  0.0368 -0.0577  0.1375
  775POPS   C4A11454  13.773  13.268   6.585  0.0109 -0.0184  0.1818
  775POPS   C1B11455  13.089  12.961   6.323 -0.1917 -0.3453  0.0281
  775POPS   C2B11456  12.889  12.791   6.648 -0.0194 -0.1394 -0.0746
  775POPS   C3B11457  12.601  12.417   6.544  0.1759  0.0878 -0.1584
  775POPS   C4B11458  12.368  12.116   6.654  0.2283  0.2494  0.0766
  776POPS   CNO11459   7.442  11.847   5.111  0.1285  0.4899 -0.2551
  776POPS   PO411460   7.628  11.469   5.415  0.0920 -0.1228  0.2232
  776POPS   GL111461   7.393  11.154   5.639  0.3924  0.3872  0.1103
  776POPS   GL211462   7.291  10.956   5.487  0.0179  0.1149  0.0420
  776POPS   C1A11463   7.293  10.936   6.082  0.1104  0.2050  0.2186
  776POPS   D2A11464   7.307  10.543   6.315  0.0972  0.0495 -0.2370
  776POPS   C3A11465   7.619  10.501   6.584 -0.2007  0.0328  0.1514
  776POPS   C4A11466   8.004  10.480   6.877 -0.1488  0.0317  0.1315
  776POPS   C1B11467   7.257  10.530   5.825  0.1178  0.0550 -0.0566
  776POPS   C2B11468   7.408  10.154   6.034  0.1998 -0.1382  0.0472
  776POPS   C3B11469   7.652  10.008   6.347  0.1524 -0.3030 -0.0454
  776POPS   C4B11470   7.871   9.987   6.709  0.0153  0.3545 -0.0489
  777POPS   CNO11471  13.477  17.398   4.843 -0.0191  0.0709 -0.0908
  777POPS   PO411472  13.319  17.623   5.156  0.1021  0.1668 -0.1320
  777POPS   GL111473  13.428  17.568   5.591 -0.1878  0.0061 -0.2792
  777POPS   GL211474  13.264  17.746   5.887  0.1154 -0.1249  0.0981
  777POPS   C1A11475  13.660  17.410   5.938  0.2214  0.2206  0.0553
  777POPS   D2A11476  13.756  17.139   6.143 -0.0637  0.0485 -0.2340
  777POPS   C3A11477  13.710  17.226   6.623  0.0507 -0.1174  0.0853
  777POPS   C4A11478  14.079  17.144   6.776 -0.1626 -0.2310 -0.0153
  777POPS   C1B11479  13.295  17.562   6.251  0.1840 -0.0741 -0.2906
  777POPS   C2B11480  13.373  17.576   6.804  0.3013  0.1966  0.4150
  777POPS   C3B11481  13.637  17.353   7.109 -0.3502 -0.3754 -0.0390
  777POPS   C4B11482  13.730  17.023   7.128 -0.2436 -0.3551  0.0573
  778POPS   CNO11483   2.403   4.840   4.866 -0.0914 -0.1617 -0.3111
  778POPS   PO411484   1.978   5.047   4.970 -0.0564  0.0284 -0.4345
  778POPS   GL111485   1.997   5.123   5.476 -0.0369  0.0399  0.0063
  778POPS   GL211486   1.819   4.979   5.726 -0.0972  0.1593  0.1043
  778POPS   C1A11487   2.368   5.040   5.813 -0.1485 -0.2693  0.0214
  778POPS   D2A11488   2.630   5.094   6.108 -0.1658  0.0387 -0.1261
  778POPS   C3A11489   2.710   4.821   6.425 -0.0050 -0.0245 -0.4591
  778POPS   C4A11490   2.721   4.718   6.870 -0.1999 -0.0825 -0.1071
  778POPS   C1B11491   1.647   4.770   6.104 -0.0661 -0.0858  0.0595
  778POPS   C2B11492   1.747   4.806   6.507  0.1816  0.1817  0.1047
  778POPS   C3B11493   1.509   4.924   6.889  0.3196  0.0960 -0.0713
  778POPS   C4B11494   1.154   4.889   7.097  0.2095 -0.0571  0.1507
  779POPS   CNO11495   7.072  17.457   5.233 -0.1687 -0.3291  0.0418
  779POPS   PO411496   7.011  17.023   5.430  0.3444 -0.0882  0.3486
  779POPS   GL111497   7.028  17.087   5.838  0.0303 -0.0276 -0.3202
  779POPS   GL211498   7.009  16.842   5.963  0.2687 -0.3926 -0.3649
  779POPS   C1A11499   7.012  17.483   6.221  0.1289  0.1989 -0.2477
  779POPS   D2A11500   6.815  17.508   6.692  0.0056  0.0271  0.0188
  779POPS   C3A11501   6.949  17.072   6.775  0.0931  0.2940  0.1041
  779POPS   C4A11502   6.944  16.933   7.197  0.0137 -0.1691 -0.2392
  779POPS   C1B11503   7.173  16.756   6.439  0.0386 -0.1681  0.0329
  779POPS   C2B11504   7.433  16.829   6.828 -0.0202  0.0773  0.0026
  779POPS   C3B11505   7.571  16.499   7.069  0.1257  0.0185 -0.0180
  779POPS   C4B11506   7.564  16.084   7.368 -0.3440 -0.1927  0.2413
  780POPS   CNO11507   7.280   7.543   5.404  0.2186  0.1716 -0.0568
  780POPS   PO411508   6.955   7.494   5.740  0.1795 -0.1170  0.1253
  780POPS   GL111509   7.116   7.432   6.118 -0.0192  0.2878 -0.1059
  780POPS   GL211510   7.352   7.545   6.114  0.0183 -0.1067 -0.0870
  780POPS   C1A11511   7.065   7.469   6.542 -0.4305 -0.2580  0.0263
  780POPS   D2A11512   7.107   7.688   6.837 -0.2109 -0.0035  0.1246
  780POPS   C3A11513   6.840   7.842   7.108 -0.1508 -0.1777  0.1392
  780POPS   C4A11514   6.496   7.948   7.409  0.0318 -0.2847 -0.1987
  780POPS   C1B11515   7.405   7.870   6.450 -0.0255  0.1441 -0.0594
  780POPS   C2B11516   7.552   8.177   6.711 -0.1196  0.3492 -0.1614
  780POPS   C3B11517   7.818   8.220   7.018 -0.2434 -0.0866  0.1935
  780POPS   C4B11518   8.128   8.117   7.343 -0.1233 -0.2472 -0.0958
  781POPS   CNO11519  13.989   5.605   5.175 -0.2338  0.1344  0.2330
  781POPS   PO411520  14.219   5.163   5.222 -0.0396 -0.1121  0.1200
  781POPS   GL111521  14.271   5.343   5.590 -0.0962 -0.1502  0.0570
  781POPS   GL211522  14.147   5.720   5.676 -0.2797 -0.2091  0.0814
  781POPS   C1A11523  14.178   5.405   6.056  0.1396 -0.0707  0.1239
  781POPS   D2A11524  13.784   5.437   6.303  0.1182 -0.0623  0.0779
  781POPS   C3A11525  13.561   5.889   6.161 -0.1030 -0.4424  0.3997
  781POPS   C4A11526  13.279   6.037   5.929 -0.1336 -0.0615  0.1481
  781POPS   C1B11527  14.045   5.881   6.029 -0.0387  0.0570 -0.2811
  781POPS   C2B11528  14.475   6.054   6.435 -0.2439 -0.0456  0.2007
  781POPS   C3B11529  14.725   5.992   6.765  0.1273  0.1419  0.1262
  781POPS   C4B11530  15.095   6.002   6.989  0.1279  0.1083  0.1091
  782POPS   CNO11531   2.135  14.224   5.025 -0.3731  0.3164 -0.3548
  782POPS   PO411532   2.304  14.617   5.136  0.0954 -0.3317 -0.0054
  782POPS   GL111533   2.604  14.721   5.487  0.0084  0.3155  0.4226
  782POPS   GL211534   2.830  14.441   5.619 -0.2257  0.0368 -0.2350
  782POPS   C1A11535   2.381  15.014   5.730 -0.5487  0.3152 -0.0807
  782POPS   D2A11536   2.587  15.296   5.968 -0.0410 -0.1971  0.1118
  782POPS   C3A11537   2.563  15.208   6.271  0.2619  0.1126 -0.0652
  782POPS   C4A11538   2.310  14.965   6.516 -0.0451 -0.2722  0.0595
  782POPS   C1B11539   2.935  14.279   6.075 -0.1258 -0.4083  0.3415
  782POPS   C2B11540   2.872  14.308   6.583 -0.2556 -0.0478  0.0593
  782POPS   C3B11541   2.644  14.320   6.968 -0.0448  0.1247  0.1264
  782POPS   C4B11542   2.680  14.373   7.370 -0.2530 -0.2354 -0.1990
  783POPS   CNO11543   9.610  15.081   5.397 -0.1132 -0.1166 -0.0290
  783POPS   PO411544   9.613  15.493   5.452 -0.4067  0.0003 -0.1251
  783POPS   GL111545   9.513  15.518   5.852  0.2022  0.2291 -0.2861
  783POPS   GL211546   9.294  15.735   5.830 -0.0315 -0.1361  0.5782
  783POPS   C1A11547   9.495  15.652   6.296 -0.2613  0.3414  0.0388
  783POPS   D2A11548   9.312  15.661   6.644  0.3552 -0.0514 -0.1338
  783POPS   C3A11549   9.430  15.923   7.008 -0.0537  0.0623  0.2280
  783POPS   C4A11550   9.530  15.772   7.409 -0.0357  0.0409  0.2579
  783POPS   C1B11551   8.822  15.918   6.036 -0.0697 -0.1624  0.2910
  783POPS   C2B11552   8.517  15.990   6.339  0.3487 -0.3366 -0.0758
  783POPS   C3B11553   8.358  16.405   6.143 -0.3538 -0.0454 -0.1859
  783POPS   C4B11554   8.047  16.719   6.186 -0.0405  0.0326 -0.1329
  784POPS   CNO11555   2.416  11.431   5.414  0.0444  0.2270 -0.0403
  784POPS   PO411556   2.800  11.470   5.391 -0.0222  0.1292 -0.0323
  784POPS   GL111557   2.863  11.156   5.723 -0.1501 -0.1137  0.0907
  784POPS   GL211558   2.632  11.268   5.939 -0.2035  0.0884  0.2817
  784POPS   C1A11559   3.014  10.836   6.076 -0.1446  0.0851  0.0532
  784POPS   D2A11560   3.147  10.906   6.647 -0.0965  0.2389 -0.2091
  784POPS   C3A11561   3.254  10.519   6.881  0.1332  0.1201  0.1457
  784POPS   C4A11562   3.364  10.281   7.221 -0.0229  0.2926  0.2447
  784POPS   C1B11563   2.885  11.304   6.284  0.0069  0.0294  0.1459
  784POPS   C2B11564   2.889  11.331   6.726  0.3148  0.0060  0.2017
  784POPS   C3B11565   2.996  11.186   7.102 -0.1886 -0.2209 -0.3362
  784POPS   C4B11566   3.296  10.851   7.247 -0.0353  0.0618  0.0160
  785POPS   CNO11567  13.344  10.441   4.783 -0.0683  0.0798 -0.1930
  785POPS   PO411568  13.456  10.701   5.122  0.1021 -0.2676  0.0844
  785POPS   GL111569  13.408  10.461   5.490 -0.2730 -0.1481  0.2688
  785POPS   GL211570  13.373  10.174   5.326 -0.0456 -0.1370 -0.2252
  785POPS   C1A11571  13.035  10.447   5.724 -0.2243  0.5403 -0.1762
  785POPS   D2A11572  12.780  10.727   5.922  0.3250 -0.0392 -0.2817
  785POPS   C3A11573  12.297  10.707   5.830  0.0916  0.0132 -0.0056
  785POPS   C4A11574  12.073  10.538   5.999  0.0499 -0.2345 -0.2702
  785POPS   C1B11575  13.316  10.056   5.826  0.0903  0.0768 -0.0920
  785POPS   C2B11576  13.301   9.761   6.227  0.1610  0.1458 -0.1501
  785POPS   C3B11577  13.197   9.735   6.614 -0.0683  0.0854 -0.0696
  785POPS   C4B11578  13.296   9.837   6.892 -0.1939  0.1857  0.0917
  786POPS   CNO11579  13.931   0.490   5.285 -0.0695 -0.1952 -0.2040
  786POPS   PO411580  14.203   0.803   5.283 -0.3881  0.1018 -0.0781
  786POPS   GL111581  14.240   0.945   5.658  0.0799 -0.0011  0.1525
  786POPS   GL211582  14.266   1.301   5.694  0.2281  0.1919 -0.3286
  786POPS   C1A11583  14.205   0.789   6.069 -0.0161 -0.0488  0.2368
  786POPS   D2A11584  13.989   1.034   6.257 -0.2352 -0.0080  0.2875
  786POPS   C3A11585  13.654   1.028   6.613  0.1163  0.3101 -0.2913
  786POPS   C4A11586  13.411   1.378   6.812  0.2845 -0.4280  0.0133
  786POPS   C1B11587  14.566   1.450   5.986 -0.1847 -0.6105 -0.1775
  786POPS   C2B11588  14.494   1.242   6.333  0.2877 -0.2161  0.2587
  786POPS   C3B11589  14.423   0.949   6.542 -0.2521 -0.0172  0.1336
  786POPS   C4B11590  14.255   0.774   6.870  0.0892  0.3014 -0.1192
  787POPS   CNO11591  10.901  16.163   5.138 -0.1689  0.1038 -0.0532
  787POPS   PO411592  10.686  15.753   5.250  0.1046 -0.0460  0.1128
  787POPS   GL111593  10.419  15.650   5.678 -0.2372  0.0608  0.1186
  787POPS   GL211594  10.158  15.574   5.560  0.1679  0.1151  0.0982
  787POPS   C1A11595  10.499  15.542   6.054  0.2683  0.3127  0.3502
  787POPS   D2A11596  10.476  15.341   6.529 -0.0384  0.0129  0.0804
  787POPS   C3A11597  10.685  15.477   6.908 -0.0231 -0.2219 -0.1486
  787POPS   C4A11598  10.815  15.821   7.125 -0.0377  0.0158 -0.1537
  787POPS   C1B11599   9.969  15.397   5.941  0.0458  0.0939  0.0098
  787POPS   C2B11600   9.992  15.476   6.382 -0.0428  0.0661  0.0554
  787POPS   C3B11601   9.812  15.490   6.690  0.0143 -0.1758  0.0497
  787POPS   C4B11602   9.600  15.385   7.117  0.1323 -0.0158  0.0939
  788POPS   CNO11603   6.678   2.736   5.432  0.3010  0.0928  0.0008
  788POPS   PO411604   7.074   2.889   5.195  0.2469  0.0414 -0.2915
  788POPS   GL111605   7.097   3.047   5.685 -0.0261 -0.2397  0.0218
  788POPS   GL211606   6.820   2.886   5.907  0.2618 -0.0121  0.1430
  788POPS   C1A11607   7.276   3.233   6.119  0.0377 -0.0748 -0.1265
  788POPS   D2A11608   7.246   3.261   6.545 -0.1262 -0.0742 -0.0145
  788POPS   C3A11609   7.525   3.135   6.771 -0.4329 -0.1052 -0.0495
  788POPS   C4A11610   7.724   3.217   7.160 -0.0077  0.1181  0.2715
  788POPS   C1B11611   6.885   2.789   6.251 -0.0475  0.2165  0.1270
  788POPS   C2B11612   6.944   2.811   6.686  0.4009 -0.4875  0.2581
  788POPS   C3B11613   6.922   2.606   6.955  0.1956 -0.0129  0.1695
  788POPS   C4B11614   6.968   2.433   7.312  0.0663 -0.0215  0.1965
  789POPS   CNO11615   9.807   1.526   5.942  0.2054  0.5796 -0.2942
  789POPS   PO411616  10.114   1.859   5.890  0.0891 -0.1908 -0.1917
  789POPS   GL111617  10.287   1.712   6.254 -0.3036 -0.0061  0.0316
  789POPS   GL211618  10.074   1.514   6.359  0.2190 -0.0486  0.0230
  789POPS   C1A11619  10.207   1.969   6.719 -0.1451  0.0677 -0.0680
  789POPS   D2A11620  10.230   2.150   7.113 -0.1504  0.1036  0.0403
  789POPS   C3A11621   9.978   1.882   7.545 -0.0098 -0.3489 -0.1702
  789POPS   C4A11622   9.707   1.804   7.903  0.4784  0.1514 -0.1978
  789POPS   C1B11623   9.757   1.433   6.711  0.3604  0.2861 -0.0347
  789POPS   C2B11624   9.525   1.437   6.974 -0.0650  0.2839  0.1002
  789POPS   C3B11625   9.361   1.112   7.279  0.1715  0.3208 -0.0305
  789POPS   C4B11626   9.530   0.703   7.188  0.0994  0.2940  0.0462
  790POPS   CNO11627   3.685  15.192   5.182  0.2911 -0.0026  0.0501
  790POPS   PO411628   3.937  15.556   5.323 -0.3427  0.3220 -0.2858
  790POPS   GL111629   3.740  15.636   5.666  0.0415 -0.0149  0.0669
  790POPS   GL211630   3.490  15.885   5.877  0.1447  0.0796 -0.0921
  790POPS   C1A11631   3.746  15.570   6.175 -0.1920  0.0888 -0.1765
  790POPS   D2A11632   3.686  15.318   6.553 -0.2979 -0.0703 -0.3418
  790POPS   C3A11633   3.382  14.929   6.555  0.0828  0.0251 -0.5123
  790POPS   C4A11634   3.225  14.617   6.389  0.4553 -0.0851  0.1191
  790POPS   C1B11635   3.337  15.833   6.361 -0.1918  0.1284 -0.2309
  790POPS   C2B11636   3.359  15.553   6.784 -0.0189  0.0494  0.0443
  790POPS   C3B11637   3.590  15.177   6.991 -0.0982 -0.0098  0.2451
  790POPS   C4B11638   3.358  14.871   7.140  0.1790  0.3798 -0.3596
  791POPS   CNO11639   0.598  17.315   4.656 -0.3721  0.0124  0.0306
  791POPS   PO411640   0.615  17.732   4.946  0.1595  0.1257  0.1194
  791POPS   GL111641   0.645  17.462   5.144  0.0082 -0.0079  0.0457
  791POPS   GL211642   0.517  17.410   5.462  0.1509  0.1927  0.1924
  791POPS   C1A11643   0.807  17.031   5.418  0.0205  0.0114 -0.1292
  791POPS   D2A11644   0.800  16.898   5.744  0.0167  0.2056 -0.0528
  791POPS   C3A11645   0.382  16.880   5.742 -0.1745  0.0989  0.0837
  791POPS   C4A11646   0.146  16.828   6.055 -0.2811  0.1235  0.0168
  791POPS   C1B11647   0.871  17.423   5.716 -0.1127  0.0371  0.0108
  791POPS   C2B11648   1.015  17.304   6.225 -0.0322  0.0524 -0.0899
  791POPS   C3B11649   0.944  16.919   6.462 -0.1934 -0.0680 -0.1705
  791POPS   C4B11650   1.266  16.601   6.573 -0.0462 -0.1493 -0.2440
  792POPS   CNO11651  13.711   2.599   5.458 -0.1271  0.0259 -0.2291
  792POPS   PO411652  13.325   2.640   5.467 -0.0679  0.0008  0.2420
  792POPS   GL111653  13.304   2.523   5.855 -0.0534 -0.0592  0.1997
  792POPS   GL211654  13.651   2.539   5.973  0.2812 -0.0002  0.2675
  792POPS   C1A11655  13.118   2.218   6.173 -0.1765  0.1810  0.1163
  792POPS   D2A11656  13.264   1.792   6.239  0.1479  0.0567  0.0280
  792POPS   C3A11657  13.436   1.840   6.676 -0.0730 -0.1089  0.1467
  792POPS   C4A11658  13.771   1.665   7.006  0.0709 -0.1353  0.0650
  792POPS   C1B11659  13.518   2.551   6.378 -0.0292  0.1181 -0.1655
  792POPS   C2B11660  13.155   2.315   6.665  0.2330  0.1046 -0.3733
  792POPS   C3B11661  12.857   2.234   7.005 -0.2149  0.0241 -0.0669
  792POPS   C4B11662  12.869   2.157   7.357  0.1746  0.3073 -0.0421
  793POPS   CNO11663  10.057   8.881   5.049  0.0800 -0.2729 -0.3812
  793POPS   PO411664  10.364   8.779   5.279  0.1121  0.0857  0.0576
  793POPS   GL111665  10.316   8.815   5.659  0.3311  0.1720  0.0682
  793POPS   GL211666   9.993   8.669   5.724 -0.1253  0.1369  0.1266
  793POPS   C1A11667  10.296   8.895   6.118  0.1693 -0.2786 -0.1285
  793POPS   D2A11668  10.490   9.244   6.436 -0.1154 -0.1563 -0.1777
  793POPS   C3A11669  10.776   9.202   6.801 -0.1279  0.0371  0.1379
  793POPS   C4A11670  11.152   9.260   6.895 -0.0609 -0.4066  0.0310
  793POPS   C1B11671   9.951   8.574   6.171  0.0761  0.3213 -0.2284
  793POPS   C2B11672  10.178   8.540   6.551  0.1929 -0.2208 -0.2779
  793POPS   C3B11673  10.058   8.362   6.962  0.2065  0.0080  0.0489
  793POPS   C4B11674   9.720   8.285   7.357  0.2779  0.5976  0.0038
  794POPS   CNO11675   9.514  13.693   4.926  0.2823 -0.0245 -0.0202
  794POPS   PO411676   9.816  13.548   5.328  0.2226  0.1917  0.0702
  794POPS   GL111677  10.082  13.230   5.582 -0.2489 -0.3584 -0.1050
  794POPS   GL211678  10.002  13.160   5.834  0.0427 -0.1622 -0.2637
  794POPS   C1A11679  10.424  13.396   5.723 -0.4460 -0.1143  0.0168
  794POPS   D2A11680  10.717  13.509   6.055 -0.1486  0.0373 -0.2397
  794POPS   C3A11681  11.153  13.295   6.377 -0.0979 -0.0368 -0.2576
  794POPS   C4A11682  11.207  12.949   6.634 -0.1749 -0.1135 -0.1000
  794POPS   C1B11683   9.923  13.067   6.188  0.0178  0.1314  0.4048
  794POPS   C2B11684  10.178  12.909   6.369  0.0059 -0.2531  0.0176
  794POPS   C3B11685  10.398  12.691   6.874 -0.1757  0.2188 -0.2080
  794POPS   C4B11686  10.743  12.843   7.061 -0.1001 -0.3279  0.0219
  795POPS   CNO11687   6.770  15.034   5.506 -0.0289  0.0493 -0.2170
  795POPS   PO411688   6.455  15.163   5.375 -0.3149 -0.2174 -0.0776
  795POPS   GL111689   6.271  15.160   5.775 -0.3005  0.2774  0.1087
  795POPS   GL211690   6.397  15.314   5.938 -0.6107 -0.1221 -0.0509
  795POPS   C1A11691   6.156  14.807   6.076 -0.1052  0.0415  0.0298
  795POPS   D2A11692   6.092  14.365   6.434  0.0842 -0.1337  0.1946
  795POPS   C3A11693   5.806  14.431   6.763  0.1186  0.4241 -0.3044
  795POPS   C4A11694   5.743  14.618   7.146 -0.1299  0.1663  0.0385
  795POPS   C1B11695   6.677  15.433   6.270 -0.3398 -0.0118  0.3064
  795POPS   C2B11696   6.522  15.379   6.719 -0.1758 -0.0791  0.0663
  795POPS   C3B11697   6.457  15.081   7.066  0.0094 -0.1573  0.1710
  795POPS   C4B11698   6.605  14.847   7.519  0.1536  0.4678 -0.1977
  796POPS   CNO11699  14.659   7.236   4.769  0.0745 -0.3631 -0.0563
  796POPS   PO411700  14.921   7.215   5.048 -0.1747 -0.3034  0.0377
  796POPS   GL111701  14.965   7.294   5.462 -0.3370 -0.4460 -0.3180
  796POPS   GL211702  14.751   7.552   5.595 -0.0087 -0.0554 -0.2222
  796POPS   C1A11703  14.960   7.063   5.852 -0.1621 -0.2330  0.0676
  796POPS   D2A11704  15.212   7.166   6.342 -0.0913 -0.2044  0.1944
  796POPS   C3A11705  15.163   7.594   6.531 -0.0078 -0.0025 -0.0130
  796POPS   C4A11706  15.147   8.021   6.392  0.0824  0.0538  0.2256
  796POPS   C1B11707  14.559   7.336   5.951  0.1610 -0.2389  0.0774
  796POPS   C2B11708  14.682   7.614   6.346 -0.0038  0.2130 -0.0099
  796POPS   C3B11709  14.779   7.464   6.796  0.1106 -0.1962  0.0197
  796POPS   C4B11710  15.159   7.491   7.029  0.2606 -0.0793  0.0931
  797POPS   CNO11711  19.230  14.007   4.814 -0.2653  0.1538  0.0214
  797POPS   PO411712  18.864  14.187   5.138 -0.1960  0.0238 -0.0783
  797POPS   GL111713  19.055  14.182   5.525  0.0063  0.2192 -0.1902
  797POPS   GL211714  18.825  14.443   5.683 -0.2129 -0.3408 -0.2867
  797POPS   C1A11715  19.258  14.333   5.928  0.2387 -0.3733  0.0316
  797POPS   D2A11716  19.133  14.332   6.343  0.1508  0.4123 -0.1637
  797POPS   C3A11717  19.144  13.940   6.662  0.1556  0.2997  0.1012
  797POPS   C4A11718  19.122  13.601   6.884  0.0043 -0.1938 -0.3846
  797POPS   C1B11719  18.710  14.706   6.074 -0.2949  0.0642  0.0608
  797POPS   C2B11720  18.662  14.569   6.501  0.4488  0.1659 -0.1962
  797POPS   C3B11721  18.247  14.338   6.634  0.0666  0.0719  0.3222
  797POPS   C4B11722  18.061  13.950   6.520 -0.0137  0.2783  0.2299
  798POPS   CNO11723   0.755  10.628   5.363  0.1014 -0.1199  0.0617
  798POPS   PO411724   0.344  10.578   5.559  0.0262  0.0954  0.2448
  798POPS   GL111725   0.696  10.579   5.861 -0.1170 -0.2681 -0.0181
  798POPS   GL211726   0.841  10.431   6.186 -0.2659  0.1211  0.4266
  798POPS   C1A11727   0.728  10.880   6.171  0.1719 -0.3630 -0.0324
  798POPS   D2A11728   0.422  10.878   6.433 -0.0530 -0.2473  0.3526
  798POPS   C3A11729   0.327  11.165   6.775  0.2757 -0.0762  0.1103
  798POPS   C4A11730   0.111  11.522   6.927  0.2446  0.0812  0.0491
  798POPS   C1B11731   0.880  10.187   6.513 -0.0711  0.2172  0.1147
  798POPS   C2B11732   0.751   9.899   6.864 -0.1743  0.1302  0.2690
  798POPS   C3B11733   0.811   9.546   7.171 -0.0439  0.1677 -0.0364
  798POPS   C4B11734   0.850   9.330   7.541  0.0036 -0.2290  0.1869
  799POPS   CNO11735   2.713  17.390   5.254 -0.3576  0.4692 -0.0697
  799POPS   PO411736   2.451  17.757   5.306  0.2676 -0.0308 -0.2911
  799POPS   GL111737   2.477  17.491   5.711  0.1289  0.2194  0.0960
  799POPS   GL211738   2.788  17.406   5.752 -0.0557  0.0564  0.0728
  799POPS   C1A11739   2.332  17.265   5.978  0.1704  0.2840  0.2175
  799POPS   D2A11740   2.285  17.192   6.412  0.0399  0.1331 -0.2106
  799POPS   C3A11741   2.613  17.316   6.787  0.2240 -0.1216 -0.0205
  799POPS   C4A11742   2.588  17.332   7.238 -0.2051  0.0660 -0.0807
  799POPS   C1B11743   2.938  17.700   6.170  0.2427 -0.1532 -0.0825
  799POPS   C2B11744   3.131  17.587   6.525  0.0959  0.1725 -0.2264
  799POPS   C3B11745   3.445  17.346   6.633 -0.0056 -0.2852  0.0925
  799POPS   C4B11746   3.702  17.369   7.083 -0.0380  0.0968  0.2945
  800POPS   CNO11747  10.745  18.185   5.300 -0.2264  0.3893 -0.0041
  800POPS   PO411748  10.454  18.492   5.422 -0.0400  0.0866 -0.2000
  800POPS   GL111749  10.297  18.675   5.863  0.1023  0.0451 -0.0156
  800POPS   GL211750  10.534  18.818   6.031  0.0204  0.0132 -0.0664
  800POPS   C1A11751  10.119  18.516   6.266 -0.0363  0.0696 -0.3963
  800POPS   D2A11752   9.942  18.503   6.591  0.1436  0.2287 -0.2831
  800POPS   C3A11753   9.937  18.275   7.049 -0.1003  0.0908 -0.0920
  800POPS   C4A11754   9.725  17.899   7.133  0.1448 -0.1189  0.2207
  800POPS   C1B11755  10.644  18.721   6.523  0.0523 -0.0289  0.0755
  800POPS   C2B11756  11.000  18.501   6.726  0.2578 -0.0171 -0.2636
  800POPS   C3B11757  11.046  18.133   6.808 -0.3261 -0.1529  0.1797
  800POPS   C4B11758  11.187  17.913   7.174 -0.3625  0.0700  0.2565
  801POPS   CNO11759  16.502  10.297   5.000  0.0553 -0.1683 -0.3069
  801POPS   PO411760  16.826  10.222   5.326 -0.0845 -0.0794  0.2559
  801POPS   GL111761  16.726  10.327   5.705  0.1625 -0.2371 -0.1533
  801POPS   GL211762  16.551  10.566   5.921 -0.3810  0.4413  0.0453
  801POPS   C1A11763  16.795  10.227   6.258  0.1152 -0.4251  0.1074
  801POPS   D2A11764  17.032  10.074   6.497 -0.0734  0.1313 -0.0014
  801POPS   C3A11765  16.997   9.985   6.989  0.2147  0.1744 -0.0491
  801POPS   C4A11766  17.040   9.744   7.365 -0.1339  0.1458  0.0303
  801POPS   C1B11767  16.435  10.595   6.389  0.4013 -0.0489 -0.3092
  801POPS   C2B11768  16.272  10.435   6.787  0.0023 -0.0231  0.1719
  801POPS   C3B11769  16.087  10.227   7.066 -0.0068 -0.1597 -0.0390
  801POPS   C4B11770  15.725  10.087   7.288 -0.0611 -0.2112  0.1562
  802POPS   CNO11771   5.948  15.426   5.413 -0.2321  0.1603  0.2688
  802POPS   PO411772   5.579  15.285   5.610  0.0597 -0.0439 -0.0464
  802POPS   GL111773   5.726  15.136   5.983  0.1270 -0.1572 -0.0073
  802POPS   GL211774   5.444  15.272   6.138  0.2445 -0.1485  0.0289
  802POPS   C1A11775   6.016  15.257   6.278  0.1117 -0.3266 -0.2292
  802POPS   D2A11776   5.976  15.545   6.553 -0.0591  0.0332 -0.2449
  802POPS   C3A11777   6.005  15.383   6.898  0.0631  0.0006  0.1534
  802POPS   C4A11778   5.919  15.565   7.322 -0.0493  0.0003  0.3651
  802POPS   C1B11779   5.527  15.628   6.392  0.1750  0.0612 -0.2328
  802POPS   C2B11780   5.220  15.941   6.673 -0.1763 -0.0992 -0.0827
  802POPS   C3B11781   4.895  16.172   6.669  0.3603 -0.2518  0.0682
  802POPS   C4B11782   4.699  16.605   6.716 -0.0061 -0.0448 -0.1749
  803POPS   CNO11783  10.973  18.949   5.926  0.3630 -0.1094 -0.1444
  803POPS   PO411784  10.820  19.321   6.049 -0.3867 -0.1083 -0.1756
  803POPS   GL111785  10.694  19.210   6.442  0.0821  0.2216 -0.1258
  803POPS   GL211786  10.595  19.542   6.664 -0.5224 -0.1602 -0.1592
  803POPS   C1A11787  10.692  19.013   6.906 -0.1798  0.3320 -0.1928
  803POPS   D2A11788  10.670  18.653   7.059  0.0754  0.0861  0.1595
  803POPS   C3A11789  10.502  18.235   6.619  0.4344 -0.1714 -0.0515
  803POPS   C4A11790  10.682  18.348   6.190  0.1313  0.0754  0.1651
  803POPS   C1B11791  10.360  19.446   7.070 -0.3440 -0.2047 -0.0128
  803POPS   C2B11792  10.544  19.224   7.352 -0.0206  0.1285 -0.1505
  803POPS   C3B11793  10.605  19.145   7.769 -0.0019  0.2703 -0.2941
  803POPS   C4B11794  10.664  19.123   8.219  0.0580  0.1936 -0.0017
  804POPS   CNO11795  14.256   4.458   4.710  0.0505  0.0130  0.2037
  804POPS   PO411796  14.139   4.213   5.059  0.1063  0.2129  0.0389
  804POPS   GL111797  13.956   4.333   5.447  0.0687 -0.0832  0.0554
  804POPS   GL211798  13.748   4.144   5.680  0.2009 -0.4121 -0.1238
  804POPS   C1A11799  14.118   4.345   5.949  0.0121  0.1413  0.1618
  804POPS   D2A11800  14.169   4.385   6.460 -0.0904 -0.0044 -0.0552
  804POPS   C3A11801  14.256   4.139   6.842  0.0192  0.0916 -0.3740
  804POPS   C4A11802  14.194   3.924   7.222  0.1313  0.1013  0.2587
  804POPS   C1B11803  13.651   4.074   6.090 -0.0446 -0.1704 -0.0989
  804POPS   C2B11804  13.357   3.964   6.377 -0.1170  0.0041 -0.4992
  804POPS   C3B11805  13.458   3.572   6.599 -0.1706  0.0123  0.0378
  804POPS   C4B11806  13.736   3.377   6.748 -0.0481 -0.3713  0.0131
  805POPS   CNO11807   1.125  18.642   4.823  0.0278  0.0779  0.1600
  805POPS   PO411808   1.012  18.937   5.206  0.1746  0.0051 -0.0500
  805POPS   GL111809   1.278  18.914   5.506  0.0359  0.0839 -0.2753
  805POPS   GL211810   1.609  18.752   5.630  0.2534  0.0529 -0.1690
  805POPS   C1A11811   1.391  19.184   5.902  0.1643 -0.0375 -0.0096
  805POPS   D2A11812   1.591  19.079   6.344  0.0584  0.1689 -0.0785
  805POPS   C3A11813   1.470  19.264   6.697  0.1723 -0.1175 -0.0728
  805POPS   C4A11814   1.234  19.459   6.842  0.0124  0.0633 -0.0016
  805POPS   C1B11815   1.259  18.712   6.029 -0.2524  0.2250 -0.3365
  805POPS   C2B11816   1.278  18.675   6.426 -0.0486  0.1178 -0.1080
  805POPS   C3B11817   1.245  18.761   6.913  0.1505 -0.1509  0.0821
  805POPS   C4B11818   1.281  19.137   7.217  0.0276  0.2018 -0.3444
  806POPS   CNO11819   0.502   8.478   4.951 -0.0434 -0.3139  0.0006
  806POPS   PO411820   0.596   8.208   5.203  0.1533 -0.2291  0.1714
  806POPS   GL111821   0.613   8.354   5.702 -0.3220 -0.3261  0.1357
  806POPS   GL211822   0.266   8.184   5.869  0.3656  0.1569  0.2626
  806POPS   C1A11823   0.800   8.519   6.048 -0.0932  0.0972  0.1165
  806POPS   D2A11824   1.164   8.317   6.129 -0.1557  0.1849  0.0387
  806POPS   C3A11825   1.317   8.167   6.470  0.0851 -0.1211 -0.3872
  806POPS   C4A11826   1.207   8.219   6.905  0.0416  0.3273  0.0952
  806POPS   C1B11827  -0.111   8.424   6.006  0.0920 -0.0086 -0.0176
  806POPS   C2B11828  -0.532   8.414   6.245  0.1559 -0.1582 -0.0035
  806POPS   C3B11829  -0.476   8.296   6.741 -0.0981  0.3041 -0.1910
  806POPS   C4B11830  -0.231   8.319   6.919 -0.0472 -0.0797 -0.0221
  807POPS   CNO11831   4.707   1.229   4.815 -0.0384 -0.1278  0.1862
  807POPS   PO411832   4.712   1.686   4.738 -0.1459 -0.3092 -0.2739
  807POPS   GL111833   4.779   1.584   5.181  0.3248 -0.1743  0.2855
  807POPS   GL211834   4.471   1.358   5.346  0.1718  0.2868 -0.0300
  807POPS   C1A11835   4.795   1.575   5.664 -0.0761  0.0599  0.1282
  807POPS   D2A11836   4.935   1.841   6.070  0.0097  0.2845 -0.0769
  807POPS   C3A11837   4.754   1.757   6.424  0.0725 -0.0552  0.0023
  807POPS   C4A11838   4.877   1.437   6.811  0.0692 -0.1416  0.2048
  807POPS   C1B11839   4.393   1.316   5.850 -0.1346 -0.0145  0.0057
  807POPS   C2B11840   4.385   1.452   6.242 -0.2274  0.0688  0.0388
  807POPS   C3B11841   4.398   1.281   6.667  0.1374  0.1854  0.0977
  807POPS   C4B11842   4.244   1.215   7.093  0.1339  0.1622 -0.2319
  808POPS   CNO11843  16.182   4.965   4.990  0.0533  0.0468  0.0402
  808POPS   PO411844  16.222   5.404   5.039 -0.1580 -0.2605  0.1307
  808POPS   GL111845  16.362   5.468   5.469 -0.0688 -0.1426  0.0373
  808POPS   GL211846  16.576   5.714   5.510  0.3077 -0.1657  0.4304
  808POPS   C1A11847  16.534   5.296   5.775  0.0221  0.0764  0.1294
  808POPS   D2A11848  16.543   5.317   6.190 -0.0848 -0.0693 -0.0543
  808POPS   C3A11849  16.311   5.125   6.440 -0.1370 -0.4456  0.2074
  808POPS   C4A11850  15.919   4.886   6.496  0.1342 -0.2539 -0.1002
  808POPS   C1B11851  16.647   5.806   5.938 -0.1840 -0.0399  0.0983
  808POPS   C2B11852  16.542   5.814   6.322  0.2889 -0.2207 -0.1220
  808POPS   C3B11853  16.459   6.019   6.702 -0.0697 -0.0652 -0.1287
  808POPS   C4B11854  16.424   6.121   7.051  0.1044  0.0400 -0.1103
  809POPS   CNO11855  11.597  10.849   4.447  0.1268  0.3717 -0.3057
  809POPS   PO411856  11.375  10.806   4.794 -0.2031  0.0229  0.0129
  809POPS   GL111857  11.648  10.755   5.149  0.1257 -0.1710  0.3235
  809POPS   GL211858  11.674  10.937   5.402 -0.1220  0.1037  0.0314
  809POPS   C1A11859  11.547  10.484   5.575 -0.1916  0.1724  0.1068
  809POPS   D2A11860  11.628  10.292   5.919 -0.1540 -0.0097 -0.1684
  809POPS   C3A11861  11.766  10.390   6.405  0.2451  0.2018  0.1140
  809POPS   C4A11862  11.646  10.754   6.681 -0.5644 -0.0610  0.0866
  809POPS   C1B11863  11.863  10.996   5.814 -0.0650  0.1434 -0.2298
  809POPS   C2B11864  11.885  10.887   6.252 -0.0371 -0.0923  0.0743
  809POPS   C3B11865  12.136  10.965   6.574  0.1710  0.0650  0.3168
  809POPS   C4B11866  12.370  11.231   6.679 -0.0235  0.0325  0.0512
  810POPS   CNO11867  18.052   5.449   4.622  0.0950  0.0756 -0.0670
  810POPS   PO411868  18.028   5.157   4.982 -0.5053  0.0133  0.1968
  810POPS   GL111869  18.123   5.038   5.378 -0.0695  0.1294 -0.2635
  810POPS   GL211870  17.892   4.759   5.503 -0.2069 -0.0535 -0.1904
  810POPS   C1A11871  18.433   4.802   5.671 -0.0117  0.3799  0.1133
  810POPS   D2A11872  18.427   4.553   6.005  0.0890 -0.0642  0.0299
  810POPS   C3A11873  18.661   4.675   6.397 -0.0729  0.0564 -0.0402
  810POPS   C4A11874  18.839   5.067   6.613  0.2529  0.2017  0.1312
  810POPS   C1B11875  18.016   4.853   5.938  0.1111  0.1420  0.0460
  810POPS   C2B11876  18.037   4.740   6.335 -0.3809  0.4136 -0.2615
  810POPS   C3B11877  18.319   5.085   6.676 -0.1727  0.0601  0.0769
  810POPS   C4B11878  18.358   4.979   7.120  0.2308 -0.0302  0.2611
  811YOPS   CNO11879   6.048  13.006   5.579 -0.0919  0.0053 -0.0656
  811YOPS   PO411880   6.402  12.816   5.608 -0.0416  0.0648 -0.1746
  811YOPS   GL111881   6.216  12.638   5.918 -0.1150  0.3751 -0.2541
  811YOPS   GL211882   6.190  12.866   6.056  0.0356 -0.0287  0.1837
  811YOPS   C1A11883   6.444  12.289   6.301 -0.2868 -0.1621  0.3311
  811YOPS   D2A11884   6.847  12.209   6.553  0.2213  0.2810 -0.2905
  811YOPS   C3A11885   6.875  11.782   6.216 -0.1212  0.0762  0.3999
  811YOPS   C4A11886   6.538  11.689   6.190 -0.1564  0.3268  0.2165
  811YOPS   C1B11887   6.172  12.833   6.530 -0.0176  0.0778 -0.3147
  811YOPS   C2B11888   6.275  12.938   6.945  0.5061  0.2001  0.3478
  811YOPS   D3B11889   6.534  12.754   7.300  0.0025 -0.0878 -0.0460
  811YOPS   C4B11890   6.904  12.674   7.179 -0.0436 -0.0633 -0.0032
  812YOPS   CNO11891  18.391  15.985   4.706  0.2669  0.2439  0.0064
  812YOPS   PO411892  18.172  16.123   5.138  0.1937 -0.1169  0.0114
  812YOPS   GL111893  18.249  16.195   5.562 -0.0771  0.0408  0.0521
  812YOPS   GL211894  18.474  16.346   5.690  0.0165  0.3744 -0.3343
  812YOPS   C1A11895  18.156  16.046   6.010  0.0911  0.1039 -0.1966
  812YOPS   D2A11896  17.951  16.198   6.325 -0.0203 -0.0271 -0.5189
  812YOPS   C3A11897  17.609  16.329   6.529  0.3498  0.0985 -0.0335
  812YOPS   C4A11898  17.397  15.988   6.556 -0.0213 -0.2847  0.0891
  812YOPS   C1B11899  18.615  16.354   6.127 -0.1359  0.0946 -0.2876
  812YOPS   C2B11900  18.448  16.180   6.419  0.0356 -0.3877 -0.1626
  812YOPS   D3B11901  18.352  15.856   6.607  0.1249 -0.1851 -0.3348
  812YOPS   C4B11902  18.154  15.590   6.228 -0.2462  0.1594 -0.0910
  813YOPS   CNO11903   1.871  16.349   4.406  0.0633 -0.0117 -0.2490
  813YOPS   PO411904   2.173  16.386   4.818 -0.2748  0.0206 -0.1393
  813YOPS   GL111905   2.265  16.131   5.205  0.0620  0.0529 -0.1681
  813YOPS   GL211906   2.063  15.972   5.482  0.1993  0.0111  0.0469
  813YOPS   C1A11907   2.083  16.405   5.675  0.0090  0.0170  0.2692
  813YOPS   D2A11908   2.095  16.127   6.035  0.1459  0.0082 -0.1945
  813YOPS   C3A11909   1.946  16.085   6.331  0.3469  0.2557 -0.1490
  813YOPS   C4A11910   1.957  15.910   6.711  0.0380  0.1235 -0.4163
  813YOPS   C1B11911   1.658  16.114   5.663  0.3830 -0.0461 -0.0035
  813YOPS   C2B11912   1.413  15.976   5.930 -0.0101 -0.1032 -0.0437
  813YOPS   D3B11913   1.135  15.799   6.047 -0.1371 -0.0672  0.0733
  813YOPS   C4B11914   0.854  15.969   6.324 -0.0576 -0.5381  0.0978
  814YOPS   CNO11915  11.392   9.743   5.094  0.0392  0.1051 -0.0742
  814YOPS   PO411916  11.750   9.776   5.060  0.1215  0.0044 -0.0632
  814YOPS   GL111917  11.929   9.654   5.390  0.0655  0.0654 -0.1280
  814YOPS   GL211918  12.128   9.878   5.356  0.0175  0.0086  0.0626
  814YOPS   C1A11919  11.688   9.746   5.869  0.0728 -0.1000  0.0617
  814YOPS   D2A11920  11.610   9.832   6.351  0.0337  0.0462 -0.2885
  814YOPS   C3A11921  11.946   9.725   6.722  0.2956 -0.2682  0.1505
  814YOPS   C4A11922  12.292   9.533   6.837  0.2932  0.2200 -0.0522
  814YOPS   C1B11923  12.351   9.716   5.756  0.0724  0.0743  0.2911
  814YOPS   C2B11924  12.471   9.607   6.183 -0.0291 -0.0570 -0.1299
  814YOPS   D3B11925  12.810   9.596   6.363 -0.1269 -0.0723  0.0418
  814YOPS   C4B11926  12.758   9.388   6.800  0.2128  0.0797  0.0025
  815YOPS   CNO11927   8.852   9.410   5.155  0.0782  0.0791 -0.0942
  815YOPS   PO411928   8.616   9.045   5.135  0.0784 -0.3716 -0.2874
  815YOPS   GL111929   8.813   9.021   5.507  0.0341 -0.0830  0.0035
  815YOPS   GL211930   9.181   9.065   5.596  0.0830 -0.1529  0.1490
  815YOPS   C1A11931   8.634   9.116   5.903  0.0818  0.0227 -0.0472
  815YOPS   D2A11932   8.307   9.256   6.256 -0.1347 -0.0606 -0.0496
  815YOPS   C3A11933   8.144   9.115   6.756 -0.1663 -0.0403 -0.0817
  815YOPS   C4A11934   7.943   9.482   6.918 -0.0959  0.1914 -0.3284
  815YOPS   C1B11935   9.088   9.009   6.076 -0.0572  0.1926 -0.0890
  815YOPS   C2B11936   9.061   8.926   6.490 -0.3278 -0.0511 -0.3788
  815YOPS   D3B11937   9.001   8.824   6.915 -0.0460 -0.0483 -0.2791
  815YOPS   C4B11938   9.281   8.605   7.122 -0.1202 -0.2613  0.2323
  816YOPS   CNO11939  15.771   5.666   4.889 -0.2606  0.0154 -0.1585
  816YOPS   PO411940  15.516   5.368   4.945  0.0371 -0.2850 -0.0984
  816YOPS   GL111941  15.348   5.595   5.292 -0.0154  0.2105 -0.0313
  816YOPS   GL211942  15.417   6.004   5.269  0.0511 -0.0612  0.2190
  816YOPS   C1A11943  15.169   5.673   5.633  0.1604 -0.1595  0.0814
  816YOPS   D2A11944  15.129   5.851   6.043  0.0305  0.4106 -0.0752
  816YOPS   C3A11945  14.956   6.009   6.331  0.2463 -0.1592  0.1246
  816YOPS   C4A11946  15.011   6.351   6.481  0.0237  0.0115  0.1893
  816YOPS   C1B11947  15.613   5.911   5.696 -0.0044 -0.3553 -0.1120
  816YOPS   C2B11948  15.695   5.906   6.097  0.1174 -0.3439  0.2389
  816YOPS   D3B11949  15.396   5.936   6.466 -0.1767  0.0382 -0.3346
  816YOPS   C4B11950  15.541   6.054   6.814 -0.0069  0.3658 -0.3337
  817YOPS   CNO11951  12.117   1.604   5.472  0.1848 -0.1808  0.0017
  817YOPS   PO411952  12.026   2.051   5.361 -0.0388 -0.0687  0.1212
  817YOPS   GL111953  12.122   2.074   5.761 -0.1950 -0.2370  0.0188
  817YOPS   GL211954  12.278   1.818   5.937 -0.1792 -0.0072 -0.0736
  817YOPS   C1A11955  12.161   2.189   6.247 -0.0197 -0.2392 -0.0300
  817YOPS   D2A11956  12.219   2.359   6.624  0.4830  0.1260  0.0107
  817YOPS   C3A11957  12.423   2.446   7.025 -0.0671  0.2660 -0.1198
  817YOPS   C4A11958  12.230   2.331   7.337 -0.3378  0.2315 -0.2970
  817YOPS   C1B11959  12.639   1.718   6.153 -0.3373  0.1862  0.0150
  817YOPS   C2B11960  12.886   1.738   6.517 -0.0005  0.2794 -0.1648
  817YOPS   D3B11961  12.996   1.757   6.931 -0.2412 -0.0359 -0.1043
  817YOPS   C4B11962  13.290   1.859   7.168 -0.1068 -0.4819  0.0829
  818YOPS   CNO11963   4.165   7.293   4.814  0.2416 -0.2073 -0.2177
  818YOPS   PO411964   4.416   7.162   5.178 -0.2138  0.1429 -0.0998
  818YOPS   GL111965   4.356   7.081   5.582  0.4430 -0.0090  0.0248
  818YOPS   GL211966   4.049   7.295   5.615 -0.1235  0.0624  0.0436
  818YOPS   C1A11967   4.440   6.986   6.021  0.1166  0.0518  0.1856
  818YOPS   D2A11968   4.155   6.898   6.363  0.2677  0.4618  0.1535
  818YOPS   C3A11969   4.063   6.954   6.852  0.0223 -0.0097  0.2167
  818YOPS   C4A11970   4.286   6.805   7.217  0.2086  0.2611  0.2564
  818YOPS   C1B11971   4.035   7.299   6.116 -0.0799  0.0872  0.2794
  818YOPS   C2B11972   4.046   7.365   6.483 -0.0096 -0.1388  0.1820
  818YOPS   D3B11973   3.825   7.546   6.897  0.0871 -0.2737 -0.0450
  818YOPS   C4B11974   3.394   7.538   7.019 -0.1297 -0.1691  0.0270
  819YOPS   CNO11975  16.995  14.739   4.985 -0.2015  0.3073  0.1339
  819YOPS   PO411976  16.841  15.142   5.014  0.0375  0.1656 -0.1328
  819YOPS   GL111977  16.720  15.376   5.372  0.2762 -0.3261 -0.0015
  819YOPS   GL211978  16.976  15.512   5.395  0.3118 -0.1556  0.0826
  819YOPS   C1A11979  16.876  15.657   5.814  0.0767  0.2690 -0.0959
  819YOPS   D2A11980  17.110  15.886   6.135  0.0751 -0.0596 -0.0084
  819YOPS   C3A11981  17.188  16.205   6.151 -0.1402 -0.1203  0.0272
  819YOPS   C4A11982  17.147  16.374   6.647  0.3394 -0.1472  0.0216
  819YOPS   C1B11983  17.120  15.275   5.798 -0.1987  0.4066  0.0729
  819YOPS   C2B11984  17.210  15.050   6.015 -0.0020 -0.2031  0.0079
  819YOPS   D3B11985  17.532  15.079   6.292 -0.0470 -0.0589 -0.1662
  819YOPS   C4B11986  17.894  15.135   6.306  0.0355 -0.1681 -0.0320
  820YOPS   CNO11987   5.226  18.353   5.138  0.4218  0.1478  0.0550
  820YOPS   PO411988   5.673  18.400   5.307  0.2716 -0.2688 -0.1184
  820YOPS   GL111989   5.534  18.532   5.680 -0.0939  0.1613  0.0440
  820YOPS   GL211990   5.612  18.852   5.706 -0.0301  0.0108  0.1913
  820YOPS   C1A11991   5.519  18.674   6.158 -0.2342 -0.1251 -0.0000
  820YOPS   D2A11992   5.387  18.488   6.581 -0.1770  0.1129 -0.2281
  820YOPS   C3A11993   5.259  18.453   6.930 -0.3555 -0.4726 -0.1718
  820YOPS   C4A11994   4.842  18.445   7.095  0.2275 -0.1503  0.0282
  820YOPS   C1B11995   5.938  18.880   6.029  0.2495 -0.1402  0.2003
  820YOPS   C2B11996   6.091  18.846   6.475  0.6011  0.2187 -0.2938
  820YOPS   D3B11997   5.895  18.807   6.887  0.1575  0.0406  0.1889
  820YOPS   C4B11998   5.682  19.118   7.009  0.0638  0.0892  0.1484
  821YOPS   CNO11999   8.875   0.326   5.499  0.3361 -0.0221 -0.2112
  821YOPS   PO412000   8.615  -0.087   5.573 -0.3049  0.5321 -0.1350
  821YOPS   GL112001   8.628   0.061   6.007  0.1254  0.0268 -0.1667
  821YOPS   GL212002   8.716   0.181   6.416  0.0934  0.2105  0.2097
  821YOPS   C1A12003   8.323  -0.051   6.254 -0.2493  0.1426 -0.2976
  821YOPS   D2A12004   7.904  -0.136   6.317 -0.2024  0.1015 -0.2779
  821YOPS   C3A12005   7.603  -0.437   6.336  0.0068  0.2425  0.0887
  821YOPS   C4A12006   7.369  -0.668   6.612 -0.0117 -0.1188 -0.0042
  821YOPS   C1B12007   8.737   0.050   6.957  0.0296 -0.1842  0.1891
  821YOPS   C2B12008   8.725   0.237   7.369  0.1591 -0.2815 -0.3539
  821YOPS   D3B12009   8.544   0.630   7.415 -0.3097  0.2100  0.0359
  821YOPS   C4B12010   8.841   0.932   7.509 -0.0380 -0.1408 -0.3968
  822YOPS   CNO12011  10.151  14.589   5.493  0.1434 -0.1860 -0.1894
  822YOPS   PO412012   9.696  14.556   5.515 -0.0103 -0.2418 -0.1509
  822YOPS   GL112013   9.835  14.552   5.913 -0.3274  0.0141  0.2255
  822YOPS   GL212014   9.790  14.909   5.876  0.0653 -0.1234  0.0207
  822YOPS   C1A12015   9.990  14.330   6.190 -0.0326 -0.2771  0.0142
  822YOPS   D2A12016  10.232  14.029   6.387 -0.0278 -0.1805 -0.4324
  822YOPS   C3A12017  10.074  13.624   6.671  0.0054 -0.0768 -0.1109
  822YOPS   C4A12018   9.831  13.423   6.456 -0.0666 -0.1933 -0.1214
  822YOPS   C1B12019   9.644  15.141   6.223 -0.1194 -0.1291  0.1758
  822YOPS   C2B12020   9.424  15.098   6.619  0.0977  0.2117  0.0459
  822YOPS   D3B12021   9.367  14.893   6.942 -0.1081  0.2996 -0.0451
  822YOPS   C4B12022   9.164  14.552   6.959 -0.0833  0.0754  0.1431
  823YOPS   CNO12023  16.281  11.224   5.092 -0.2508  0.4638  0.4509
  823YOPS   PO412024  16.244  11.584   5.302  0.2887 -0.1090  0.2453
  823YOPS   GL112025  16.266  11.494   5.689 -0.1195 -0.2122  0.1753
  823YOPS   GL212026  16.439  11.764   5.818  0.1867  0.3400 -0.1866
  823YOPS   C1A12027  16.495  11.326   6.049 -0.0072 -0.0088  0.3401
  823YOPS   D2A12028  16.507  11.149   6.425 -0.0833  0.1684 -0.0947
  823YOPS   C3A12029  16.490  10.888   6.772 -0.0961 -0.0527 -0.0929
  823YOPS   C4A12030  16.417  11.022   7.180 -0.3173 -0.0084 -0.3788
  823YOPS   C1B12031  16.419  11.753   6.206  0.1368  0.1800  0.2922
  823YOPS   C2B12032  16.548  11.814   6.532  0.3784  0.2130  0.3330
  823YOPS   D3B12033  16.555  11.669   6.796 -0.0380 -0.0294 -0.0789
  823YOPS   C4B12034  16.290  11.348   6.826 -0.2109 -0.2983  0.0823
  824YOPS   CNO12035  17.111   8.428   5.684  0.0377  0.4324  0.1241
  824YOPS   PO412036  17.379   8.700   5.519  0.0551 -0.2752  0.1432
  824YOPS   GL112037  17.738   8.628   5.852  0.1396  0.1554  0.0608
  824YOPS   GL212038  17.896   8.942   5.791 -0.1503  0.1992 -0.0384
  824YOPS   C1A12039  17.929   8.602   6.266 -0.1855  0.1092 -0.3577
  824YOPS   D2A12040  17.921   8.613   6.667 -0.2378 -0.3222 -0.2911
  824YOPS   C3A12041  18.337   8.369   6.774 -0.0071 -0.0620  0.0018
  824YOPS   C4A12042  18.313   8.148   7.268  0.2003 -0.2524 -0.2192
  824YOPS   C1B12043  17.958   9.154   6.110  0.2512 -0.1189 -0.3206
  824YOPS   C2B12044  17.742   9.024   6.530  0.2316  0.2015  0.0112
  824YOPS   D3B12045  17.384   9.139   6.815  0.1561  0.1045 -0.1756
  824YOPS   C4B12046  17.011   8.972   6.990 -0.1930 -0.1353 -0.2177
  825YOPS   CNO12047   0.734  13.636   5.398 -0.2843  0.3519 -0.2430
  825YOPS   PO412048   0.861  13.986   5.246 -0.2069 -0.2159 -0.0947
  825YOPS   GL112049   1.059  13.833   5.693 -0.2264  0.0409  0.0780
  825YOPS   GL212050   1.313  13.658   5.756 -0.2113  0.3904  0.0960
  825YOPS   C1A12051   0.994  13.816   6.163  0.0811  0.7456 -0.0791
  825YOPS   D2A12052   0.933  13.457   6.374  0.2125 -0.0449 -0.1589
  825YOPS   C3A12053   1.093  13.065   6.431 -0.3039  0.0608  0.1171
  825YOPS   C4A12054   1.335  12.964   6.835 -0.0672 -0.0812  0.2418
  825YOPS   C1B12055   1.584  13.890   5.937  0.1347  0.0399 -0.2356
  825YOPS   C2B12056   1.444  14.090   6.327 -0.3309 -0.0059  0.1226
  825YOPS   D3B12057   1.276  14.307   6.684 -0.2787  0.0071  0.0365
  825YOPS   C4B12058   1.408  14.747   6.807 -0.1119  0.2973  0.2380
  826YOPS   CNO12059   0.321  12.460   5.414 -0.1539 -0.0665  0.4132
  826YOPS   PO412060   0.687  12.133   5.373 -0.2532  0.0594  0.0594
  826YOPS   GL112061   0.561  12.113   5.761  0.0421  0.0001  0.3585
  826YOPS   GL212062   0.783  12.098   5.961  0.0253  0.2202  0.1750
  826YOPS   C1A12063   0.329  12.118   6.116 -0.3928  0.1180  0.3473
  826YOPS   D2A12064   0.132  12.380   6.554 -0.0948  0.0294 -0.3036
  826YOPS   C3A12065   0.236  12.725   6.779  0.1836  0.1631 -0.0589
  826YOPS   C4A12066   0.154  12.742   7.190  0.0227 -0.2531  0.1628
  826YOPS   C1B12067   0.563  12.549   6.017 -0.0404  0.3202  0.3733
  826YOPS   C2B12068   0.446  12.932   5.787 -0.1649  0.1151  0.0923
  826YOPS   D3B12069   0.067  13.090   5.900 -0.1718  0.1247  0.4243
  826YOPS   C4B12070  -0.202  13.400   5.977 -0.0096 -0.1140  0.0688
  827YOPS   CNO12071  11.030  16.898   5.681 -0.4086  0.0052  0.0260
  827YOPS   PO412072  11.315  16.501   5.511  0.3168  0.1439  0.0289
  827YOPS   GL112073  11.329  16.433   5.968 -0.1879 -0.2777  0.3429
  827YOPS   GL212074  11.500  16.797   5.992  0.1068  0.1716 -0.1487
  827YOPS   C1A12075  11.577  16.381   6.345 -0.0144 -0.0698 -0.0256
  827YOPS   D2A12076  11.446  16.378   6.812  0.0482  0.0780  0.1297
  827YOPS   C3A12077  11.253  16.692   7.137  0.1941 -0.1008  0.0831
  827YOPS   C4A12078  11.032  17.095   6.976 -0.1053  0.1823  0.3548
  827YOPS   C1B12079  11.186  16.942   6.172  0.0668  0.1219 -0.3160
  827YOPS   C2B12080  11.055  17.326   6.038  0.1338 -0.1725 -0.3686
  827YOPS   D3B12081  10.635  17.341   6.041 -0.0020  0.1740 -0.0777
  827YOPS   C4B12082  10.317  17.696   5.822  0.3244  0.1351  0.2361
  828YOPS   CNO12083  12.995  18.522   5.465 -0.2391 -0.0273  0.1543
  828YOPS   PO412084  13.232  18.856   5.570  0.0817  0.0986  0.2302
  828YOPS   GL112085  13.186  19.070   5.942  0.2961 -0.0082  0.2600
  828YOPS   GL212086  12.919  19.250   6.001 -0.2787  0.1379  0.2359
  828YOPS   C1A12087  13.111  19.179   6.436 -0.0115  0.2480 -0.0412
  828YOPS   D2A12088  13.276  19.027   6.773 -0.2511 -0.3389  0.2320
  828YOPS   C3A12089  13.151  19.012   7.254 -0.1696  0.1410  0.0801
  828YOPS   C4A12090  12.780  18.991   7.378  0.2462  0.0796  0.0615
  828YOPS   C1B12091  12.671  19.317   6.390 -0.0094  0.0893 -0.3490
  828YOPS   C2B12092  12.460  19.517   6.750  0.1658  0.3025  0.1242
  828YOPS   D3B12093  12.188  19.785   7.009 -0.0198 -0.0644  0.0886
  828YOPS   C4B12094  11.944  19.533   7.342  0.2872 -0.0440 -0.0990
  829YOPS   CNO12095  12.888  11.011   4.858 -0.1803 -0.2808 -0.0669
  829YOPS   PO412096  12.505  10.763   4.948  0.1218  0.1610  0.4060
  829YOPS   GL112097  12.343  10.592   5.237 -0.5645 -0.0961  0.1917
  829YOPS   GL212098  12.133  10.733   5.309  0.0574 -0.2268  0.0939
  829YOPS   C1A12099  12.560  10.305   5.534 -0.1105 -0.2962  0.1711
  829YOPS   D2A12100  12.516  10.203   5.956  0.1646  0.0156 -0.1767
  829YOPS   C3A12101  12.932  10.111   6.157 -0.3036 -0.4161 -0.1053
  829YOPS   C4A12102  13.063  10.263   6.479  0.0343  0.1058 -0.1290
  829YOPS   C1B12103  12.032  10.316   5.556 -0.1995 -0.2209 -0.0470
  829YOPS   C2B12104  12.045  10.043   5.973  0.2006 -0.0920 -0.0242
  829YOPS   D3B12105  12.134  10.056   6.351 -0.2370  0.0288 -0.0314
  829YOPS   C4B12106  12.546  10.176   6.538 -0.1342 -0.1287  0.2469
  830YOPS   CNO12107  12.461   6.334   5.181  0.2433 -0.1218 -0.2971
  830YOPS   PO412108  12.827   6.600   5.203 -0.1908  0.3742 -0.0500
  830YOPS   GL112109  12.990   6.731   5.684 -0.2220 -0.4170  0.0295
  830YOPS   GL212110  13.216   6.465   5.762  0.2026 -0.5006  0.1847
  830YOPS   C1A12111  13.000   6.944   6.046  0.0021  0.4681  0.2664
  830YOPS   D2A12112  13.095   7.070   6.420  0.2033 -0.0736  0.0776
  830YOPS   C3A12113  13.333   7.174   6.718  0.1230  0.1113  0.0215
  830YOPS   C4A12114  13.204   7.318   7.020  0.0997 -0.2279  0.0212
  830YOPS   C1B12115  12.906   6.369   6.084 -0.2105  0.2231  0.0350
  830YOPS   C2B12116  12.795   6.605   6.415  0.1001  0.1831 -0.1871
  830YOPS   D3B12117  12.607   6.868   6.571 -0.0055 -0.0358 -0.1565
  830YOPS   C4B12118  12.854   7.069   6.847 -0.1094 -0.2161  0.3670
  831YOPS   CNO12119   0.430  18.576   5.451  0.2794  0.5305 -0.1919
  831YOPS   PO412120   0.161  18.130   5.399 -0.1167 -0.0093  0.1917
  831YOPS   GL112121   0.229  18.127   5.770  0.3330  0.1903 -0.0462
  831YOPS   GL212122   0.502  18.169   5.816 -0.0632 -0.0075 -0.3044
  831YOPS   C1A12123   0.089  18.002   6.178 -0.1238 -0.2242  0.5784
  831YOPS   D2A12124  -0.040  17.859   6.515 -0.0859 -0.1902 -0.3083
  831YOPS   C3A12125   0.208  17.556   6.745  0.1937 -0.0443  0.1784
  831YOPS   C4A12126   0.544  17.544   7.104  0.1382 -0.1436  0.0958
  831YOPS   C1B12127   0.554  18.173   6.337 -0.2704 -0.0876  0.1444
  831YOPS   C2B12128   0.900  18.201   6.563 -0.4935  0.2459  0.1306
  831YOPS   D3B12129   1.243  18.247   6.769 -0.3945 -0.2116  0.1265
  831YOPS   C4B12130   1.529  18.169   7.152  0.1954  0.1566 -0.2317
  832YOPS   CNO12131  17.161  18.784   4.434  0.0984 -0.2407 -0.0551
  832YOPS   PO412132  16.838  18.807   4.798  0.1388 -0.1188 -0.1850
  832YOPS   GL112133  16.886  18.851   5.249  0.1481  0.2973 -0.0273
  832YOPS   GL212134  17.083  19.054   5.356 -0.0105  0.0052  0.2162
  832YOPS   C1A12135  16.619  19.121   5.524  0.1751  0.0471  0.0029
  832YOPS   D2A12136  16.501  19.490   5.820  0.3674  0.5807  0.0082
  832YOPS   C3A12137  16.303  19.666   6.175 -0.1102  0.2736  0.0509
  832YOPS   C4A12138  16.009  19.417   6.419 -0.5937 -0.1364 -0.1938
  832YOPS   C1B12139  17.226  18.875   5.764 -0.2761  0.1667  0.3905
  832YOPS   C2B12140  17.078  18.707   6.098 -0.1711  0.1356 -0.2598
  832YOPS   D3B12141  17.284  18.672   6.469  0.0127  0.0866  0.2325
  832YOPS   C4B12142  17.485  19.001   6.745 -0.0463 -0.1520  0.0534
  833YOPS   CNO12143  16.477  15.378   4.792 -0.1560  0.1862 -0.3149
  833YOPS   PO412144  16.205  15.678   4.902  0.0889 -0.1705  0.0175
  833YOPS   GL112145  16.244  15.755   5.296  0.0743  0.0963 -0.1961
  833YOPS   GL212146  16.478  15.904   5.445  0.0082  0.0388 -0.2135
  833YOPS   C1A12147  16.247  15.391   5.614  0.3051  0.0640  0.7327
  833YOPS   D2A12148  16.072  15.125   5.891  0.1242 -0.1717 -0.4118
  833YOPS   C3A12149  16.189  14.678   6.121  0.3265  0.0974  0.1075
  833YOPS   C4A12150  15.915  14.576   6.537 -0.2865  0.1609  0.3221
  833YOPS   C1B12151  16.379  15.779   5.896 -0.0585  0.0353 -0.4482
  833YOPS   C2B12152  16.301  15.505   6.152  0.0229  0.2774  0.2510
  833YOPS   D3B12153  16.229  15.130   6.385 -0.0626  0.0328 -0.4245
  833YOPS   C4B12154  16.508  14.794   6.489  0.1709 -0.2626  0.0546
  834YOPS   CNO12155   9.846   2.772   5.694  0.1665 -0.0259 -0.1978
  834YOPS   PO412156   9.874   2.746   6.059  0.1526 -0.0490 -0.0642
  834YOPS   GL112157   9.766   2.615   6.404 -0.1047 -0.1061 -0.1297
  834YOPS   GL212158   9.555   2.328   6.413  0.0050 -0.1489  0.0229
  834YOPS   C1A12159  10.100   2.562   6.764 -0.2002  0.2132 -0.0845
  834YOPS   D2A12160  10.165   2.667   7.085  0.0757 -0.0304 -0.0305
  834YOPS   C3A12161  10.054   2.553   7.419  0.0938  0.1236  0.1973
  834YOPS   C4A12162  10.313   2.233   7.641 -0.1414 -0.0756  0.2145
  834YOPS   C1B12163   9.698   2.229   6.789  0.0515 -0.3635 -0.2205
  834YOPS   C2B12164   9.810   1.935   7.040  0.1053 -0.1667 -0.2724
  834YOPS   D3B12165  10.084   1.590   7.101  0.0742  0.1582 -0.1957
  834YOPS   C4B12166   9.881   1.152   7.089 -0.0135 -0.1425 -0.2751
  835YOPS   CNO12167   2.301   7.429   5.001 -0.1025  0.1884 -0.2342
  835YOPS   PO412168   2.431   7.052   5.071 -0.0998 -0.2443  0.0760
  835YOPS   GL112169   2.279   7.008   5.486 -0.2922  0.0658 -0.1099
  835YOPS   GL212170   2.126   7.296   5.542  0.3641 -0.3253  0.0401
  835YOPS   C1A12171   2.180   7.022   5.994 -0.0772 -0.1594  0.3337
  835YOPS   D2A12172   2.216   7.173   6.390 -0.1180  0.1390 -0.3914
  835YOPS   C3A12173   2.184   6.980   6.756  0.0138  0.1045 -0.0684
  835YOPS   C4A12174   1.835   6.996   6.857 -0.3072  0.2382 -0.1558
  835YOPS   C1B12175   2.148   7.573   5.806  0.0596  0.2379 -0.2792
  835YOPS   C2B12176   2.133   7.850   6.096 -0.1604  0.0594  0.2917
  835YOPS   D3B12177   1.993   7.755   6.504 -0.0429 -0.2913  0.2404
  835YOPS   C4B12178   2.085   7.428   6.896 -0.0694 -0.0168  0.0314
  836YOPS   CNO12179   5.589  15.985   5.448  0.1467 -0.1555  0.3198
  836YOPS   PO412180   6.026  15.952   5.486  0.1812  0.2425 -0.1555
  836YOPS   GL112181   6.169  16.048   5.871 -0.0180  0.0256 -0.1048
  836YOPS   GL212182   6.401  15.816   6.062 -0.0673 -0.0080  0.0028
  836YOPS   C1A12183   5.986  16.126   6.300  0.2818  0.2304 -0.0391
  836YOPS   D2A12184   5.617  16.221   6.474  0.2578 -0.1231  0.1393
  836YOPS   C3A12185   5.201  16.085   6.238 -0.4495  0.0264  0.1606
  836YOPS   C4A12186   4.932  15.732   6.238 -0.2061  0.0135 -0.0494
  836YOPS   C1B12187   6.340  15.899   6.503 -0.0547  0.1203  0.2034
  836YOPS   C2B12188   6.301  15.834   6.919  0.3758 -0.2859  0.2934
  836YOPS   D3B12189   6.437  15.551   7.243 -0.0826  0.0174 -0.0639
  836YOPS   C4B12190   6.705  15.686   7.581  0.0940  0.1092  0.0491
  837YOPS   CNO12191  14.719  13.308   5.646  0.0851  0.2161 -0.1835
  837YOPS   PO412192  14.515  13.753   5.530  0.0249 -0.1428 -0.1625
  837YOPS   GL112193  14.416  13.671   5.960 -0.0947 -0.0277  0.0706
  837YOPS   GL212194  14.779  13.670   6.013  0.0364 -0.0810 -0.0471
  837YOPS   C1A12195  14.204  13.820   6.203 -0.0470 -0.0302 -0.0591
  837YOPS   D2A12196  14.328  14.065   6.530  0.2680  0.0244  0.2104
  837YOPS   C3A12197  14.215  14.023   6.992  0.0065 -0.2145 -0.1684
  837YOPS   C4A12198  13.793  13.881   7.055 -0.0239 -0.0307 -0.1180
  837YOPS   C1B12199  14.780  14.070   6.191 -0.0424 -0.3297  0.3500
  837YOPS   C2B12200  14.910  14.465   6.212 -0.1125 -0.0796  0.3899
  837YOPS   D3B12201  15.238  14.669   6.439  0.2127 -0.0894  0.2691
  837YOPS   C4B12202  15.544  14.409   6.267  0.0638  0.2628  0.0628
  838YOPS   CNO12203   0.197  17.645   5.202  0.2057 -0.0233 -0.3991
  838YOPS   PO412204  -0.208  17.702   5.184  0.3513 -0.2045 -0.2480
  838YOPS   GL112205  -0.197  17.492   5.574  0.0032 -0.2170 -0.0806
  838YOPS   GL212206   0.087  17.602   5.761  0.1538  0.0661 -0.0544
  838YOPS   C1A12207  -0.675  17.375   5.701  0.2344 -0.2404  0.0836
  838YOPS   D2A12208  -0.813  17.279   6.112 -0.1200  0.0378 -0.1168
  838YOPS   C3A12209  -0.869  17.118   6.529  0.0972  0.2395 -0.2176
  838YOPS   C4A12210  -0.768  16.869   6.874 -0.3278 -0.0803 -0.2175
  838YOPS   C1B12211   0.341  17.337   5.925 -0.2612  0.1605 -0.0410
  838YOPS   C2B12212   0.538  17.201   6.205  0.0831  0.1068  0.1733
  838YOPS   D3B12213   0.687  17.425   6.605  0.3260  0.2308 -0.1331
  838YOPS   C4B12214   0.592  17.871   6.761 -0.0276 -0.0378 -0.3405
  839YOPS   CNO12215  10.607   6.143   5.459  0.1195  0.1709  0.2427
  839YOPS   PO412216  10.816   6.029   5.727 -0.1239  0.0606  0.0855
  839YOPS   GL112217  10.955   6.132   6.081 -0.0954 -0.1827 -0.1945
  839YOPS   GL212218  10.841   5.853   6.184 -0.1270 -0.0720  0.1256
  839YOPS   C1A12219  10.744   6.225   6.562 -0.2056 -0.2587  0.2117
  839YOPS   D2A12220  10.815   6.318   6.963  0.1288  0.1547  0.2804
  839YOPS   C3A12221  10.956   6.739   7.229  0.1141  0.1234 -0.0002
  839YOPS   C4A12222  10.704   6.874   7.571 -0.3894 -0.0810  0.0348
  839YOPS   C1B12223  11.182   6.029   6.631  0.1605  0.2060 -0.2739
  839YOPS   C2B12224  11.492   6.019   7.002 -0.0705  0.1673  0.2701
  839YOPS   D3B12225  11.817   5.676   7.033  0.4978  0.0013 -0.1567
  839YOPS   C4B12226  11.931   5.801   7.381 -0.2486  0.1026 -0.3235
  840YOPS   CNO12227   7.191  14.550   5.202  0.2061  0.0845 -0.0371
  840YOPS   PO412228   7.242  14.825   5.512 -0.2084  0.0481 -0.0551
  840YOPS   GL112229   6.958  14.670   5.947  0.1853  0.0364 -0.0361
  840YOPS   GL212230   7.052  14.469   6.181 -0.0182  0.1578  0.1745
  840YOPS   C1A12231   6.656  14.943   6.181  0.2009  0.2316 -0.1173
  840YOPS   D2A12232   6.321  14.993   6.510  0.0358  0.1414  0.1279
  840YOPS   C3A12233   6.090  14.834   6.765  0.1051 -0.0687 -0.1160
  840YOPS   C4A12234   5.989  15.020   7.165 -0.1358 -0.0939 -0.2218
  840YOPS   C1B12235   7.125  14.206   6.505 -0.0312 -0.2950 -0.1651
  840YOPS   C2B12236   7.496  14.069   6.800 -0.0166 -0.0359  0.2776
  840YOPS   D3B12237   7.488  13.900   7.164 -0.3212  0.3323  0.2537
  840YOPS   C4B12238   7.540  13.656   7.483 -0.0813  0.1585  0.1961
  841POPE   NH312239   9.558   6.183   5.610  0.3727 -0.5200 -0.0503
  841POPE   PO412240   9.247   5.973   5.888 -0.0348 -0.1842 -0.0379
  841POPE   GL112241   9.410   5.867   6.223  0.3063 -0.2958 -0.1942
  841POPE   GL212242   9.213   5.627   6.466  0.1558 -0.1369  0.0671
  841POPE   C1A12243   9.224   6.053   6.659  0.1102  0.3151 -0.0200
  841POPE   D2A12244   9.322   6.127   7.118  0.0097 -0.0232  0.3451
  841POPE   C3A12245   9.007   6.041   7.443 -0.1515  0.0034  0.0688
  841POPE   C4A12246   8.944   5.832   7.849  0.1318  0.0735 -0.1510
  841POPE   C1B12247   9.509   5.645   6.733  0.0582 -0.0985 -0.1073
  841POPE   C2B12248   9.799   5.904   7.014  0.3680 -0.1732 -0.0703
  841POPE   C3B12249  10.079   5.853   7.268  0.1779  0.2234 -0.1504
  841POPE   C4B12250  10.149   5.669   7.661 -0.0332  0.0166  0.2084
  842POPE   NH312251  19.329  11.084   5.568 -0.1169  0.0588  0.2693
  842POPE   PO412252  19.627  11.410   5.543  0.1162  0.0812  0.1130
  842POPE   GL112253  19.323  11.513   5.848  0.2338 -0.0068  0.0227
  842POPE   GL212254  19.413  11.730   5.990 -0.0214  0.3545 -0.3352
  842POPE   C1A12255  19.197  11.339   6.200 -0.2241 -0.1528 -0.1873
  842POPE   D2A12256  19.019  11.435   6.612 -0.2831  0.1298  0.0056
  842POPE   C3A12257  18.726  11.688   6.871  0.0465  0.0368 -0.0468
  842POPE   C4A12258  18.652  12.101   7.022  0.1227  0.0999  0.0416
  842POPE   C1B12259  19.284  11.834   6.506 -0.1549 -0.1969 -0.2062
  842POPE   C2B12260  18.950  12.024   6.638 -0.4944 -0.1573  0.0396
  842POPE   C3B12261  19.108  12.245   6.257  0.1459 -0.2315  0.0033
  842POPE   C4B12262  19.353  12.526   6.005 -0.2005 -0.3513 -0.2860
  843POPE   NH312263  10.020   4.833   5.615  0.0335 -0.0355 -0.0395
  843POPE   PO412264  10.133   4.383   5.776 -0.1677 -0.2736 -0.1039
  843POPE   GL112265  10.285   4.063   5.921 -0.2772 -0.1495 -0.0344
  843POPE   GL212266  10.557   4.131   6.044 -0.2275 -0.0090  0.1176
  843POPE   C1A12267  10.333   3.863   6.437 -0.0868  0.1840 -0.4143
  843POPE   D2A12268  10.375   4.026   6.830  0.3540  0.2014 -0.0258
  843POPE   C3A12269  10.086   4.058   7.200 -0.0809 -0.1440 -0.2279
  843POPE   C4A12270   9.977   4.134   7.694 -0.1371  0.0938 -0.0191
  843POPE   C1B12271  10.678   4.166   6.495 -0.0472 -0.0274  0.1587
  843POPE   C2B12272  10.898   4.173   6.980  0.0444 -0.0201  0.2866
  843POPE   C3B12273  10.818   4.402   7.337  0.2605  0.0091 -0.3228
  843POPE   C4B12274  10.981   4.193   7.790 -0.0686 -0.0519 -0.3874
  844POPE   NH312275   7.723  14.943   5.572 -0.0284 -0.2526  0.1214
  844POPE   PO412276   7.705  15.385   5.454 -0.0017 -0.0663 -0.1856
  844POPE   GL112277   7.794  15.391   5.930 -0.3568 -0.0333 -0.0583
  844POPE   GL212278   7.626  15.240   6.133 -0.1144  0.1328  0.0754
  844POPE   C1A12279   7.902  15.518   6.409 -0.0475  0.0824  0.2336
  844POPE   D2A12280   8.283  15.704   6.713  0.1454 -0.2190 -0.1938
  844POPE   C3A12281   8.270  15.713   7.160  0.1094  0.1108  0.0818
  844POPE   C4A12282   7.887  15.655   7.477 -0.0498 -0.1416 -0.1355
  844POPE   C1B12283   7.401  15.551   6.228  0.0174 -0.2662 -0.2266
  844POPE   C2B12284   7.136  15.712   6.520  0.3133  0.3696  0.2563
  844POPE   C3B12285   6.883  15.858   6.687  0.0912 -0.2485 -0.1702
  844POPE   C4B12286   6.734  15.999   7.055  0.2048 -0.1106 -0.2276
  845POPE   NH312287  14.371  18.515   5.150 -0.1902  0.2176  0.0529
  845POPE   PO412288  13.941  18.365   5.423  0.1072 -0.0220 -0.2814
  845POPE   GL112289  13.709  18.460   5.777 -0.0425  0.2469  0.1792
  845POPE   GL212290  13.401  18.421   5.909  0.3129  0.1337  0.1375
  845POPE   C1A12291  13.860  18.558   6.155  0.0739 -0.2000 -0.3019
  845POPE   D2A12292  13.954  18.684   6.590 -0.3143  0.7035 -0.1279
  845POPE   C3A12293  13.672  18.743   6.911 -0.1093  0.1064 -0.2287
  845POPE   C4A12294  13.293  18.507   7.030  0.0708  0.2068 -0.0772
  845POPE   C1B12295  13.409  18.197   6.316  0.1341  0.1621  0.1087
  845POPE   C2B12296  13.335  18.068   6.751  0.0459 -0.0348 -0.2959
  845POPE   C3B12297  13.632  17.910   7.020  0.3190 -0.0798 -0.0357
  845POPE   C4B12298  14.131  17.949   7.133  0.0307  0.0416 -0.1117
  846POPE   NH312299  12.534   5.779   5.387 -0.0083  0.1290 -0.0054
  846POPE   PO412300  12.834   5.415   5.543  0.0933 -0.0466 -0.2299
  846POPE   GL112301  12.886   5.714   5.867  0.0691 -0.0785  0.1335
  846POPE   GL212302  12.591   5.908   5.889 -0.1179 -0.0208  0.3077
  846POPE   C1A12303  12.999   5.891   6.306 -0.2137  0.4244 -0.2343
  846POPE   D2A12304  13.406   5.833   6.727 -0.2182 -0.1286  0.0949
  846POPE   C3A12305  13.828   5.660   6.720  0.1853 -0.0103  0.1592
  846POPE   C4A12306  14.182   5.669   6.589 -0.3080  0.0818 -0.3285
  846POPE   C1B12307  12.424   6.236   6.196 -0.3151 -0.0095  0.0349
  846POPE   C2B12308  12.447   6.302   6.665 -0.0252  0.0055 -0.1919
  846POPE   C3B12309  12.118   6.073   7.001 -0.0631  0.0613 -0.0436
  846POPE   C4B12310  11.901   6.271   7.357 -0.4021  0.0711  0.1841
  847POPE   NH312311  17.477   0.291   4.622  0.2372 -0.2512  0.0188
  847POPE   PO412312  17.005   0.302   4.753 -0.0047  0.3913 -0.1287
  847POPE   GL112313  17.099   0.184   5.140  0.1619 -0.1916  0.2809
  847POPE   GL212314  16.855   0.192   5.348 -0.2310  0.3102  0.1095
  847POPE   C1A12315  17.356   0.390   5.522 -0.0243 -0.0126  0.0372
  847POPE   D2A12316  17.276   0.702   5.870  0.1456 -0.1175 -0.1934
  847POPE   C3A12317  17.520   0.735   6.203 -0.3002 -0.1660  0.0815
  847POPE   C4A12318  17.939   1.020   6.391 -0.2544 -0.0806 -0.0499
  847POPE   C1B12319  17.014   0.022   5.710 -0.0512  0.0095  0.1894
  847POPE   C2B12320  16.903  -0.176   6.109  0.1607 -0.0329 -0.0120
  847POPE   C3B12321  16.897  -0.339   6.539 -0.0272 -0.2350  0.1818
  847POPE   C4B12322  16.525  -0.603   6.753  0.0208 -0.0403 -0.2629
  848POPE   NH312323   4.789  17.448   5.100 -0.1308  0.0436 -0.0424
  848POPE   PO412324   4.826  17.055   5.331 -0.1819 -0.4112  0.0430
  848POPE   GL112325   4.938  16.699   5.602  0.0009 -0.1897 -0.2515
  848POPE   GL212326   4.720  16.587   5.804  0.2769  0.0476 -0.0533
  848POPE   C1A12327   5.266  16.706   5.799 -0.2011  0.2171  0.1358
  848POPE   D2A12328   5.735  16.740   5.998  0.0632 -0.1014  0.1483
  848POPE   C3A12329   5.689  16.768   6.363  0.0094  0.0025 -0.0801
  848POPE   C4A12330   5.514  17.044   6.752  0.2351  0.2520  0.0544
  848POPE   C1B12331   4.854  16.548   6.230  0.1159  0.1729  0.2561
  848POPE   C2B12332   5.235  16.587   6.479  0.2699  0.0034  0.1888
  848POPE   C3B12333   5.497  16.513   6.832  0.1272  0.2098  0.0681
  848POPE   C4B12334   5.650  16.511   7.234 -0.1692 -0.0147 -0.0242
  849POPE   NH312335  11.806  16.604   5.599 -0.2930  0.3868 -0.1637
  849POPE   PO412336  11.985  16.241   5.862 -0.1445 -0.1634 -0.3454
  849POPE   GL112337  12.328  16.109   5.988 -0.0686 -0.2768 -0.0613
  849POPE   GL212338  12.612  16.150   5.792 -0.0812 -0.0691  0.2705
  849POPE   C1A12339  12.514  16.243   6.373 -0.1888 -0.2172  0.1215
  849POPE   D2A12340  12.387  16.543   6.800 -0.2729 -0.0189 -0.1795
  849POPE   C3A12341  12.325  16.354   7.175  0.0533 -0.1032 -0.1093
  849POPE   C4A12342  12.252  16.124   7.480  0.0435  0.0068  0.1553
  849POPE   C1B12343  12.694  15.825   6.207  0.4081 -0.0961 -0.3810
  849POPE   C2B12344  12.605  15.776   6.591 -0.0583 -0.1446 -0.2165
  849POPE   C3B12345  12.344  16.028   6.808  0.3870 -0.0642 -0.0506
  849POPE   C4B12346  11.883  15.981   7.009  0.0361  0.1639 -0.0663
  850POPE   NH312347   7.485  14.244   5.988 -0.0421  0.0892 -0.0182
  850POPE   PO412348   7.475  14.705   5.983 -0.1390  0.2768 -0.0472
  850POPE   GL112349   7.546  14.627   6.435 -0.1113  0.0100  0.0039
  850POPE   GL212350   7.593  14.454   6.556 -0.0147  0.0647  0.1059
  850POPE   C1A12351   7.231  14.590   6.830 -0.0481 -0.1276  0.0424
  850POPE   D2A12352   7.106  14.218   7.072  0.1779  0.0218  0.0434
  850POPE   C3A12353   6.799  14.106   6.867  0.0859  0.0558 -0.0542
  850POPE   C4A12354   6.359  14.362   6.862 -0.2228 -0.0770 -0.1792
  850POPE   C1B12355   7.692  14.404   7.119 -0.0555  0.3323  0.1549
  850POPE   C2B12356   7.700  14.216   7.544 -0.1044 -0.0921  0.0377
  850POPE   C3B12357   7.633  13.885   7.941 -0.1784 -0.0362  0.4610
  850POPE   C4B12358   7.566  13.971   8.423 -0.1047 -0.1162 -0.0070
  851POPE   NH312359  15.662   8.957   5.319 -0.1217 -0.0944  0.0404
  851POPE   PO412360  16.041   9.066   5.489  0.2195  0.1530 -0.0335
  851POPE   GL112361  16.100   8.908   5.956  0.2888 -0.0153 -0.2328
  851POPE   GL212362  16.462   8.825   6.039 -0.0277  0.3609 -0.3596
  851POPE   C1A12363  16.154   8.668   6.439 -0.0082 -0.1319  0.1689
  851POPE   D2A12364  15.987   8.442   6.858 -0.0320 -0.1591  0.4292
  851POPE   C3A12365  15.568   8.579   7.059  0.0859  0.0016 -0.0431
  851POPE   C4A12366  15.236   8.349   7.350  0.2131  0.4101 -0.1295
  851POPE   C1B12367  16.684   9.168   6.213  0.0552  0.1083  0.1307
  851POPE   C2B12368  17.013   9.275   6.486  0.1385  0.1951  0.3046
  851POPE   C3B12369  17.212   9.635   6.661 -0.2881  0.0185 -0.1043
  851POPE   C4B12370  17.639   9.752   6.738 -0.3187 -0.2199  0.0574
  852POPE   NH312371   9.550   0.573   5.922  0.1871 -0.0099 -0.0882
  852POPE   PO412372   9.144   0.697   5.731 -0.2605 -0.0859  0.0078
  852POPE   GL112373   9.093   0.907   6.055 -0.1806 -0.1931 -0.0642
  852POPE   GL212374   9.256   0.883   6.203  0.0776  0.1502 -0.0295
  852POPE   C1A12375   8.748   1.175   6.346  0.2128 -0.4475  0.0332
  852POPE   D2A12376   8.480   1.155   6.681  0.2714  0.1060  0.2247
  852POPE   C3A12377   8.055   1.328   6.867  0.0583 -0.0714  0.2645
  852POPE   C4A12378   7.938   1.485   7.180 -0.1213 -0.3455 -0.1873
  852POPE   C1B12379   8.818   0.707   6.441 -0.1248  0.0123 -0.3934
  852POPE   C2B12380   8.453   0.521   6.656 -0.1962  0.2744 -0.0027
  852POPE   C3B12381   8.237   0.108   6.691 -0.0583  0.0396 -0.0619
  852POPE   C4B12382   7.952  -0.191   6.861 -0.5613  0.1223 -0.2548
  853POPE   NH312383   6.041   9.879   5.078 -0.1743  0.0144  0.1559
  853POPE   PO412384   6.015  10.311   4.933 -0.1313  0.4896  0.2584
  853POPE   GL112385   6.086  10.224   5.466 -0.2649 -0.1917  0.0947
  853POPE   GL212386   5.872  10.010   5.566  0.1125  0.1100  0.0396
  853POPE   C1A12387   6.347  10.412   5.786  0.0140 -0.2521 -0.1381
  853POPE   D2A12388   6.330  10.709   6.194  0.0339  0.0094  0.1800
  853POPE   C3A12389   6.471  11.152   6.105 -0.3181  0.0272  0.1370
  853POPE   C4A12390   6.110  11.444   5.928 -0.1940 -0.2695  0.1565
  853POPE   C1B12391   5.821   9.979   5.934  0.0169 -0.1351  0.1705
  853POPE   C2B12392   5.822   9.620   6.168  0.3531  0.0362  0.1657
  853POPE   C3B12393   5.785   9.303   6.235  0.0984  0.3459 -0.2553
  853POPE   C4B12394   5.828   8.879   6.383  0.2497 -0.4570 -0.2887
  854POPE   NH312395   3.088   1.832   5.037 -0.2677 -0.1563 -0.0717
  854POPE   PO412396   2.688   1.405   5.156 -0.1867  0.1078 -0.1316
  854POPE   GL112397   2.337   1.428   5.388 -0.1678  0.0899 -0.0706
  854POPE   GL212398   2.444   1.105   5.456  0.0543  0.0878  0.1307
  854POPE   C1A12399   2.090   1.847   5.415 -0.0056 -0.3205  0.1798
  854POPE   D2A12400   2.013   2.167   5.603  0.1810  0.0588 -0.3164
  854POPE   C3A12401   2.222   2.433   5.927 -0.1410  0.2370  0.0148
  854POPE   C4A12402   2.433   2.495   6.351 -0.0929  0.2111  0.0485
  854POPE   C1B12403   2.329   1.032   5.938  0.0804  0.3978 -0.2486
  854POPE   C2B12404   2.213   1.163   6.327  0.2958 -0.2586 -0.0138
  854POPE   C3B12405   1.830   1.125   6.566 -0.2032 -0.0419  0.1611
  854POPE   C4B12406   1.505   0.999   6.759  0.5375  0.0142 -0.2137
  855POPE   NH312407  14.309   5.947   4.944 -0.1217 -0.3419 -0.2926
  855POPE   PO412408  14.550   6.376   4.946 -0.0588 -0.2407  0.1636
  855POPE   GL112409  14.363   6.605   5.369  0.2962  0.1081 -0.0660
  855POPE   GL212410  14.102   6.548   5.587 -0.3184 -0.4059 -0.0735
  855POPE   C1A12411  14.600   6.712   5.732  0.2347 -0.2609  0.1494
  855POPE   D2A12412  14.645   6.961   6.202  0.1243  0.2862 -0.2681
  855POPE   C3A12413  14.921   6.848   6.613 -0.0767  0.1939  0.3890
  855POPE   C4A12414  15.257   6.640   6.892 -0.3885  0.3105  0.2323
  855POPE   C1B12415  14.291   6.342   6.008  0.2831 -0.0891  0.2634
  855POPE   C2B12416  14.528   6.485   6.224  0.0656 -0.3265 -0.1324
  855POPE   C3B12417  14.591   6.482   6.706 -0.1032 -0.3806 -0.3340
  855POPE   C4B12418  14.230   6.654   6.967  0.0636 -0.0414 -0.3222
  856POPE   NH312419  18.651   3.116   4.690 -0.0934  0.0075 -0.1623
  856POPE   PO412420  18.569   3.260   5.100  0.0902  0.3315  0.5704
  856POPE   GL112421  18.537   3.358   5.545 -0.1994  0.1239 -0.0603
  856POPE   GL212422  18.738   3.616   5.450  0.1781  0.0021 -0.0275
  856POPE   C1A12423  18.278   3.377   5.886 -0.3145 -0.0256 -0.2277
  856POPE   D2A12424  18.274   3.077   6.251  0.0962 -0.2655 -0.4864
  856POPE   C3A12425  17.948   3.062   6.543  0.0238  0.2047  0.0245
  856POPE   C4A12426  17.685   3.124   6.911  0.0185  0.6774 -0.3855
  856POPE   C1B12427  19.027   3.856   5.749  0.0078  0.1185 -0.0136
  856POPE   C2B12428  19.051   4.274   5.740 -0.2633 -0.0398 -0.0883
  856POPE   C3B12429  18.958   4.701   5.958 -0.1203 -0.1019  0.0543
  856POPE   C4B12430  19.180   5.019   6.090  0.0413 -0.4229  0.1056
  857POPE   NH312431   2.111   5.725   5.436 -0.1396 -0.2064  0.1552
  857POPE   PO412432   1.777   6.035   5.496 -0.1759  0.0512 -0.2973
  857POPE   GL112433   1.861   5.785   5.891  0.0239 -0.0093  0.2077
  857POPE   GL212434   2.114   5.494   5.878  0.1022 -0.0818 -0.0291
  857POPE   C1A12435   2.010   5.659   6.340  0.0718  0.3943  0.1492
  857POPE   D2A12436   2.159   5.463   6.655  0.4032  0.1819  0.0460
  857POPE   C3A12437   2.159   5.049   6.689 -0.0114 -0.3932  0.0043
  857POPE   C4A12438   2.150   4.743   7.039 -0.1259 -0.0688 -0.1141
  857POPE   C1B12439   2.046   5.113   6.172 -0.1253 -0.0271 -0.5123
  857POPE   C2B12440   2.144   4.759   6.222  0.0129  0.0874  0.1121
  857POPE   C3B12441   2.376   4.474   6.365 -0.0156 -0.2317 -0.0556
  857POPE   C4B12442   2.759   4.245   6.295  0.1215  0.0527 -0.1107
  858POPE   NH312443   6.342   9.053   5.205 -0.0708 -0.0620  0.1259
  858POPE   PO412444   6.359   9.510   5.148  0.0840 -0.2053  0.3483
  858POPE   GL112445   6.105   9.542   5.470 -0.1260 -0.0252 -0.0574
  858POPE   GL212446   6.230   9.298   5.631 -0.2322  0.2734  0.1053
  858POPE   C1A12447   5.748   9.453   5.732 -0.4510 -0.0468  0.1061
  858POPE   D2A12448   5.380   9.659   5.862 -0.1239  0.4054  0.0746
  858POPE   C3A12449   4.925   9.700   6.118 -0.0706  0.0922 -0.0545
  858POPE   C4A12450   4.497   9.812   6.151 -0.1486  0.1925 -0.2267
  858POPE   C1B12451   6.255   9.266   6.017  0.0955 -0.0479 -0.0559
  858POPE   C2B12452   6.233   9.310   6.443  0.0148 -0.3427  0.0227
  858POPE   C3B12453   6.113   9.572   6.863  0.0486  0.1140  0.2779
  858POPE   C4B12454   6.218   9.789   7.282 -0.0846  0.1471 -0.3782
  859POPE   NH312455   9.587   3.389   5.520 -0.1980 -0.1235  0.1860
  859POPE   PO412456   9.256   3.050   5.683  0.0755  0.0224 -0.1877
  859POPE   GL112457   9.335   2.984   6.152 -0.0361 -0.2919 -0.1943
  859POPE   GL212458   9.070   2.818   6.350 -0.2599 -0.2145 -0.4952
  859POPE   C1A12459   9.278   3.196   6.622 -0.1575 -0.1360 -0.0639
  859POPE   D2A12460   9.072   2.979   6.867 -0.4350  0.0117  0.0514
  859POPE   C3A12461   9.378   3.087   7.156  0.0708 -0.3737  0.3607
  859POPE   C4A12462   9.844   3.024   7.252 -0.2664 -0.1054  0.4589
  859POPE   C1B12463   9.183   2.458   6.675  0.0541 -0.0786  0.3538
  859POPE   C2B12464   9.024   2.435   7.061 -0.2290 -0.0815 -0.2161
  859POPE   C3B12465   9.113   2.255   7.465  0.2032 -0.1676 -0.1368
  859POPE   C4B12466   9.317   2.133   7.835 -0.0220 -0.1145  0.4314
  860POPE   NH312467  14.415   2.512   5.461 -0.0751 -0.3046  0.0858
  860POPE   PO412468  14.141   2.875   5.468 -0.0488 -0.0508  0.1270
  860POPE   GL112469  13.946   2.875   5.879 -0.0297  0.0576 -0.0242
  860POPE   GL212470  13.851   3.229   5.983 -0.2824  0.1912 -0.2005
  860POPE   C1A12471  13.818   2.901   6.373  0.0891 -0.0518 -0.0467
  860POPE   D2A12472  13.617   2.827   6.828 -0.1278 -0.3996  0.0827
  860POPE   C3A12473  13.848   2.895   7.130  0.0687 -0.0983  0.0083
  860POPE   C4A12474  13.828   2.598   7.507  0.2854 -0.0311 -0.0831
  860POPE   C1B12475  13.786   3.646   6.259 -0.0946  0.3281 -0.4041
  860POPE   C2B12476  13.818   3.934   6.598 -0.2880 -0.3368 -0.2126
  860POPE   C3B12477  13.765   3.765   7.011 -0.1619  0.0584 -0.2651
  860POPE   C4B12478  13.691   3.697   7.457  0.1767  0.3354  0.0805
  861POPE   NH312479  15.721  15.649   5.327 -0.1789 -0.1254 -0.1190
  861POPE   PO412480  15.645  16.075   5.275  0.0244  0.0518 -0.0118
  861POPE   GL112481  15.800  16.335   5.698 -0.3507 -0.0040  0.2261
  861POPE   GL212482  16.078  16.091   5.606 -0.1204  0.0146 -0.0044
  861POPE   C1A12483  15.695  16.560   6.051  0.0233  0.1338 -0.1205
  861POPE   D2A12484  15.501  16.945   6.156  0.3041 -0.2811 -0.1367
  861POPE   C3A12485  15.628  17.175   6.540  0.2967 -0.0063  0.0069
  861POPE   C4A12486  15.898  17.521   6.564  0.2558  0.3981 -0.0047
  861POPE   C1B12487  16.040  16.093   6.052 -0.0138  0.0558 -0.1185
  861POPE   C2B12488  16.136  16.051   6.445 -0.4123  0.1809  0.3190
  861POPE   C3B12489  16.127  16.134   6.807 -0.1264 -0.0952 -0.1196
  861POPE   C4B12490  15.925  16.250   7.262  0.1907  0.2578 -0.1256
  862POPE   NH312491  12.193   8.610   5.054  0.1677 -0.1000 -0.1356
  862POPE   PO412492  11.859   8.923   4.859  0.1274  0.1401  0.1480
  862POPE   GL112493  11.939   9.100   5.271  0.1526  0.1699 -0.3589
  862POPE   GL212494  12.000   8.842   5.465 -0.2988  0.0615 -0.1712
  862POPE   C1A12495  11.897   9.275   5.675 -0.0552 -0.0328  0.1581
  862POPE   D2A12496  12.037   9.421   6.085 -0.1304  0.2429  0.2273
  862POPE   C3A12497  12.044   9.215   6.486 -0.1018 -0.3718  0.2122
  862POPE   C4A12498  12.106   9.018   6.894 -0.0992 -0.1565  0.0036
  862POPE   C1B12499  11.995   8.631   5.749 -0.2628 -0.0369  0.0552
  862POPE   C2B12500  12.029   8.812   6.116 -0.0251 -0.1338 -0.1329
  862POPE   C3B12501  12.098   8.623   6.534 -0.2308  0.2413 -0.3589
  862POPE   C4B12502  12.063   8.450   6.915  0.1300  0.1615 -0.3080
  863POPE   NH312503   2.401  16.711   5.182  0.0795 -0.1560 -0.1248
  863POPE   PO412504   2.775  16.926   5.107  0.1766 -0.1435 -0.0081
  863POPE   GL112505   2.754  16.697   5.544  0.1317 -0.0934 -0.1481
  863POPE   GL212506   2.602  16.940   5.615 -0.1610  0.0840  0.1375
  863POPE   C1A12507   2.942  16.679   5.983  0.2156  0.1169 -0.4158
  863POPE   D2A12508   3.278  16.811   6.119 -0.2335  0.2694 -0.0286
  863POPE   C3A12509   3.195  16.969   6.586  0.3155  0.5056  0.4896
  863POPE   C4A12510   3.293  16.998   6.946  0.3670  0.0117 -0.1236
  863POPE   C1B12511   2.415  16.753   5.982  0.2388 -0.0681  0.1899
  863POPE   C2B12512   2.050  16.703   6.128 -0.0189 -0.2427 -0.1854
  863POPE   C3B12513   1.757  16.511   6.032 -0.5227  0.1535 -0.0582
  863POPE   C4B12514   1.507  16.313   6.235 -0.0311  0.0822 -0.0382
  864POPE   NH312515  10.593   1.830   5.806 -0.1156  0.0793  0.2510
  864POPE   PO412516  10.809   1.444   5.869  0.2697  0.0199 -0.2359
  864POPE   GL112517  10.774   1.605   6.275 -0.1788  0.2956  0.0629
  864POPE   GL212518  10.891   1.833   6.256 -0.1821 -0.0823  0.1699
  864POPE   C1A12519  10.699   1.665   6.691 -0.0212  0.2294 -0.2895
  864POPE   D2A12520  10.717   1.897   6.994 -0.0436  0.0765 -0.3909
  864POPE   C3A12521  10.497   1.750   7.367 -0.0339 -0.0317 -0.0497
  864POPE   C4A12522  10.656   1.499   7.770  0.2040  0.0204  0.0096
  864POPE   C1B12523  11.188   1.576   6.515 -0.1213 -0.1466  0.1639
  864POPE   C2B12524  11.292   1.274   6.840  0.1152  0.1592 -0.2047
  864POPE   C3B12525  11.329   1.140   7.229  0.0343 -0.1659  0.0489
  864POPE   C4B12526  11.213   0.650   7.284  0.2016  0.2843  0.0220
  865POPE   NH312527  18.565  11.848   5.249 -0.1791 -0.0792 -0.0671
  865POPE   PO412528  18.760  12.234   5.128 -0.2615  0.1973  0.2577
  865POPE   GL112529  18.801  12.232   5.567 -0.1863  0.1473  0.1181
  865POPE   GL212530  18.738  12.369   5.750 -0.0527 -0.0838 -0.1286
  865POPE   C1A12531  19.170  12.117   5.809 -0.0293 -0.3227  0.0865
  865POPE   D2A12532  18.957  11.794   6.167  0.0951  0.1430 -0.0766
  865POPE   C3A12533  18.547  11.900   6.308  0.1026  0.1388 -0.1745
  865POPE   C4A12534  18.185  12.104   6.516 -0.0253  0.1604 -0.0624
  865POPE   C1B12535  18.692  12.534   6.161 -0.1065 -0.2804 -0.0803
  865POPE   C2B12536  18.683  12.456   6.584  0.1613 -0.3247 -0.0381
  865POPE   C3B12537  19.049  12.413   6.834  0.0198  0.1087  0.0284
  865POPE   C4B12538  19.292  12.052   6.943  0.0634  0.0957 -0.1737
  866POPE   NH312539  19.033  16.349   4.975  0.2111  0.2868  0.1873
  866POPE   PO412540  19.346  16.659   5.027 -0.1435 -0.0049 -0.2596
  866POPE   GL112541  19.783  16.486   5.077  0.0219 -0.5467  0.3037
  866POPE   GL212542  20.143  16.489   5.045 -0.0912  0.2917  0.0515
  866POPE   C1A12543  19.818  16.046   5.266 -0.1457  0.1846  0.0451
  866POPE   D2A12544  20.037  15.629   5.327 -0.1478  0.0650 -0.0788
  866POPE   C3A12545  20.430  15.533   5.672 -0.3110  0.2221 -0.2056
  866POPE   C4A12546  20.866  15.564   5.596  0.2352  0.1207  0.2349
  866POPE   C1B12547  20.291  16.522   5.451 -0.0789 -0.1942  0.3988
  866POPE   C2B12548  20.599  16.464   5.700  0.3649 -0.0420  0.2232
  866POPE   C3B12549  20.384  16.359   5.979  0.0203  0.2563  0.1593
  866POPE   C4B12550  19.939  16.491   6.160  0.2297  0.0035  0.1896
  867POPE   NH312551   5.911   5.435   5.228 -0.0439  0.1792 -0.1317
  867POPE   PO412552   6.228   5.131   5.157  0.2646  0.3104  0.3014
  867POPE   GL112553   6.026   4.875   5.424 -0.0892 -0.0285 -0.1265
  867POPE   GL212554   5.943   5.104   5.619 -0.2971  0.4101  0.1873
  867POPE   C1A12555   6.124   4.656   5.838  0.0866  0.3137 -0.1903
  867POPE   D2A12556   6.293   4.450   6.167 -0.3063 -0.1755 -0.2450
  867POPE   C3A12557   5.988   4.608   6.492 -0.0435 -0.1651 -0.1127
  867POPE   C4A12558   5.672   4.484   6.725  0.1548 -0.3769  0.3401
  867POPE   C1B12559   5.885   5.054   6.168  0.1956 -0.2527  0.4469
  867POPE   C2B12560   5.697   5.050   6.531 -0.2369  0.2783 -0.3302
  867POPE   C3B12561   5.245   5.118   6.630  0.1529  0.2221 -0.1127
  867POPE   C4B12562   4.991   5.363   6.916 -0.2141  0.0218  0.3027
  868POPE   NH312563  13.867   3.289   5.500 -0.0361 -0.0742 -0.0347
  868POPE   PO412564  14.144   3.725   5.700 -0.1861 -0.0566  0.0558
  868POPE   GL112565  14.240   3.586   6.104 -0.0654  0.1010 -0.0076
  868POPE   GL212566  14.146   3.904   6.195  0.0286 -0.0531 -0.0850
  868POPE   C1A12567  14.128   3.357   6.477 -0.1681 -0.0271  0.2277
  868POPE   D2A12568  14.128   3.016   6.789 -0.3034  0.0418  0.2365
  868POPE   C3A12569  14.417   2.991   7.053 -0.0404  0.4321 -0.1921
  868POPE   C4A12570  14.827   2.924   7.063  0.0061 -0.2159  0.6127
  868POPE   C1B12571  14.337   3.768   6.560 -0.2237 -0.0136 -0.0991
  868POPE   C2B12572  14.381   3.516   6.968 -0.0685 -0.2821  0.2983
  868POPE   C3B12573  14.048   3.341   7.211  0.0914  0.2540  0.0604
  868POPE   C4B12574  13.658   3.299   7.211  0.1153  0.1766  0.0305
  869POPE   NH312575   4.952  11.120   5.724 -0.2498 -0.0975 -0.0742
  869POPE   PO412576   4.657  11.250   5.468 -0.5028  0.0274 -0.0806
  869POPE   GL112577   4.748  11.471   5.956  0.1827  0.0178 -0.0513
  869POPE   GL212578   4.678  11.840   6.036 -0.1880  0.2744 -0.2429
  869POPE   C1A12579   4.941  11.388   6.353 -0.0440  0.0040  0.4477
  869POPE   D2A12580   5.342  11.322   6.469  0.0432 -0.3179 -0.4155
  869POPE   C3A12581   5.643  11.552   6.629 -0.1974 -0.1903  0.2499
  869POPE   C4A12582   5.672  11.916   6.876  0.1691 -0.1369 -0.0214
  869POPE   C1B12583   4.571  11.899   6.488 -0.0426  0.1461 -0.0105
  869POPE   C2B12584   4.369  12.190   6.658  0.2420  0.0420 -0.1136
  869POPE   C3B12585   4.044  12.309   6.960  0.0026 -0.0199 -0.1992
  869POPE   C4B12586   3.756  12.253   7.348 -0.1114  0.0455 -0.0314
  870POPE   NH312587  17.071  16.384   4.979  0.2891 -0.0431  0.5348
  870POPE   PO412588  16.841  16.776   5.105 -0.1017 -0.0226 -0.2298
  870POPE   GL112589  16.720  16.588   5.423 -0.0179 -0.3321  0.0466
  870POPE   GL212590  16.358  16.502   5.489  0.0761  0.0932 -0.0390
  870POPE   C1A12591  16.689  16.689   5.900  0.1204 -0.0401 -0.1818
  870POPE   D2A12592  16.857  16.697   6.335  0.2959 -0.2916 -0.2001
  870POPE   C3A12593  17.137  16.873   6.685  0.0777  0.6166 -0.1666
  870POPE   C4A12594  17.442  16.803   6.963 -0.2896  0.1306  0.0369
  870POPE   C1B12595  16.271  16.493   5.910 -0.0538 -0.0980 -0.1022
  870POPE   C2B12596  16.322  16.538   6.282 -0.1524  0.1902  0.0850
  870POPE   C3B12597  16.066  16.596   6.653 -0.1837 -0.0948  0.0665
  870POPE   C4B12598  15.651  16.654   6.516  0.1235 -0.1364  0.1726
  871YOPE   NH312599  17.038   2.138   4.534  0.0986  0.0622 -0.0302
  871YOPE   PO412600  17.221   1.887   4.903  0.0856  0.2093  0.2195
  871YOPE   GL112601  17.042   1.944   5.294 -0.1502  0.0870  0.0862
  871YOPE   GL212602  16.758   1.798   5.470  0.1478 -0.1264 -0.3692
  871YOPE   C1A12603  17.134   1.952   5.717 -0.1018 -0.1456  0.3026
  871YOPE   D2A12604  17.143   2.028   6.254  0.0375  0.1045 -0.1720
  871YOPE   C3A12605  17.438   1.812   6.517  0.2242 -0.2067 -0.1957
  871YOPE   C4A12606  17.707   1.655   6.805 -0.0500  0.2544  0.0483
  871YOPE   C1B12607  16.635   1.962   5.873 -0.0052  0.0469  0.2214
  871YOPE   C2B12608  16.333   1.921   6.290  0.1802 -0.0004  0.0334
  871YOPE   D3B12609  15.952   1.641   6.248 -0.1788  0.2958 -0.0618
  871YOPE   C4B12610  15.608   1.745   6.443 -0.2881 -0.0481  0.1578
  872YOPE   NH312611  14.385   9.664   5.391 -0.1107 -0.1986  0.1029
  872YOPE   PO412612  14.484  10.125   5.390  0.2058  0.2901  0.1320
  872YOPE   GL112613  14.386  10.286   5.834 -0.0019  0.1867 -0.3211
  872YOPE   GL212614  14.158  10.117   6.067  0.3814 -0.0412  0.0787
  872YOPE   C1A12615  14.457  10.453   6.335 -0.1124  0.6383 -0.0539
  872YOPE   D2A12616  14.626  10.489   6.706  0.0455 -0.1909  0.2898
  872YOPE   C3A12617  14.483  10.161   7.055 -0.0285 -0.2122  0.0802
  872YOPE   C4A12618  14.512   9.870   7.326 -0.1244 -0.0244 -0.3187
  872YOPE   C1B12619  13.963  10.293   6.366 -0.0539  0.2784 -0.3982
  872YOPE   C2B12620  13.703  10.647   6.623  0.1688 -0.0669  0.2342
  872YOPE   D3B12621  13.717  10.631   7.046 -0.0109  0.2561 -0.2085
  872YOPE   C4B12622  13.931  10.811   7.401  0.1434  0.1489 -0.1254
  873YOPE   NH312623  13.938  15.387   5.270 -0.4082 -0.1798  0.1913
  873YOPE   PO412624  13.666  15.024   5.339  0.1866 -0.0372  0.5392
  873YOPE   GL112625  13.966  15.063   5.731  0.3004  0.0734  0.0022
  873YOPE   GL212626  13.763  15.393   5.755  0.1239  0.0605  0.4328
  873YOPE   C1A12627  13.995  14.743   6.094  0.2141  0.0733  0.2464
  873YOPE   D2A12628  13.585  14.586   6.225 -0.1273  0.0508 -0.1142
  873YOPE   C3A12629  13.414  14.747   6.609 -0.1669  0.0863  0.0999
  873YOPE   C4A12630  13.608  14.883   7.017  0.1434 -0.1678 -0.0021
  873YOPE   C1B12631  13.657  15.163   6.198  0.2155 -0.0788  0.3162
  873YOPE   C2B12632  13.688  15.231   6.636 -0.2099 -0.0659  0.1397
  873YOPE   D3B12633  13.860  15.308   6.979  0.2648 -0.3593  0.1489
  873YOPE   C4B12634  13.966  15.348   7.387 -0.0480  0.1877 -0.0788
  874YOPE   NH312635  15.581  10.304   4.923  0.0974 -0.2538 -0.2140
  874YOPE   PO412636  15.652   9.881   5.023  0.0509  0.1201  0.0737
  874YOPE   GL112637  15.509  10.133   5.430 -0.1691 -0.2720 -0.0062
  874YOPE   GL212638  15.553   9.786   5.575  0.2340 -0.0744  0.4128
  874YOPE   C1A12639  15.479  10.126   5.874  0.2522 -0.0907 -0.2171
  874YOPE   D2A12640  15.250   9.814   6.188  0.4666  0.0428  0.0272
  874YOPE   C3A12641  15.425   9.915   6.490 -0.1598 -0.0893 -0.0564
  874YOPE   C4A12642  15.393   9.950   6.953 -0.1823  0.0107  0.1147
  874YOPE   C1B12643  15.647   9.419   5.875  0.0442 -0.1078 -0.0927
  874YOPE   C2B12644  15.667   9.097   6.158 -0.0629 -0.0661  0.2694
  874YOPE   D3B12645  15.768   9.023   6.497  0.2879 -0.0721 -0.1358
  874YOPE   C4B12646  15.974   8.932   6.889 -0.0554  0.0838  0.3830
  875YOPE   NH312647  11.864   5.302   5.456  0.1009  0.1377 -0.1996
  875YOPE   PO412648  12.220   5.346   5.394 -0.0695  0.1056  0.0285
  875YOPE   GL112649  12.363   5.402   5.840  0.1240  0.2724 -0.1732
  875YOPE   GL212650  12.650   5.276   6.005 -0.0125  0.1932 -0.0063
  875YOPE   C1A12651  12.301   5.763   6.222 -0.2241 -0.0185  0.0497
  875YOPE   D2A12652  12.503   5.800   6.586  0.3752  0.1360  0.0383
  875YOPE   C3A12653  12.310   5.566   6.957  0.1699 -0.3302  0.1883
  875YOPE   C4A12654  12.451   5.594   7.388  0.0318  0.0768 -0.2483
  875YOPE   C1B12655  12.563   5.321   6.404 -0.5904  0.1437 -0.2379
  875YOPE   C2B12656  12.588   5.136   6.761  0.4032 -0.1383  0.0908
  875YOPE   D3B12657  12.585   5.020   7.144  0.2809  0.1444 -0.0336
  875YOPE   C4B12658  12.717   4.641   7.327 -0.0597 -0.2012 -0.4291
  876YOPE   NH312659  17.304  19.117   4.890  0.0561  0.2232 -0.0497
  876YOPE   PO412660  17.766  19.088   4.697  0.0314  0.1792  0.0933
  876YOPE   GL112661  17.652  18.629   4.827  0.3061 -0.0371 -0.0216
  876YOPE   GL212662  17.330  18.484   4.838  0.0631 -0.1861  0.0103
  876YOPE   C1A12663  17.798  18.455   5.251  0.0409 -0.1101  0.2858
  876YOPE   D2A12664  18.035  18.318   5.685 -0.1277  0.4126 -0.3807
  876YOPE   C3A12665  18.011  18.116   6.022 -0.2306  0.0685 -0.4413
  876YOPE   C4A12666  18.073  17.973   6.452 -0.1178 -0.1362 -0.0397
  876YOPE   C1B12667  17.261  18.453   5.322  0.3260  0.1384  0.2490
  876YOPE   C2B12668  17.525  18.481   5.773  0.2412 -0.3168 -0.1655
  876YOPE   D3B12669  17.610  18.861   6.139  0.1590  0.3270 -0.1106
  876YOPE   C4B12670  17.897  18.730   6.468 -0.1378 -0.2748 -0.1298
  877YOPE   NH312671   8.324  11.293   4.979 -0.1174  0.1559 -0.3531
  877YOPE   PO412672   8.092  11.405   5.232 -0.0306 -0.2082 -0.1388
  877YOPE   GL112673   8.080  11.558   5.752  0.2818 -0.4896  0.4063
  877YOPE   GL212674   8.396  11.547   5.806 -0.2862 -0.2005 -0.2626
  877YOPE   C1A12675   7.912  11.713   6.133 -0.0133 -0.1359  0.0376
  877YOPE   D2A12676   7.621  11.971   6.262  0.1350  0.3385 -0.0322
  877YOPE   C3A12677   7.251  11.848   6.558  0.4225  0.0713 -0.3642
  877YOPE   C4A12678   7.084  11.764   6.922 -0.2283 -0.2245  0.3396
  877YOPE   C1B12679   8.276  11.232   6.060  0.0115 -0.0164 -0.1471
  877YOPE   C2B12680   8.369  11.026   6.331  0.0801  0.0412  0.0601
  877YOPE   D3B12681   8.446  11.042   6.657 -0.2331  0.2789 -0.2517
  877YOPE   C4B12682   8.205  10.917   7.178 -0.0231 -0.0463 -0.0782
  878YOPE   NH312683   7.177   6.730   5.168 -0.2377  0.0396  0.0741
  878YOPE   PO412684   7.027   7.079   5.427 -0.0258 -0.1075 -0.2696
  878YOPE   GL112685   6.892   6.991   5.853 -0.0538  0.0427  0.0984
  878YOPE   GL212686   7.120   6.882   6.060  0.0006  0.0059  0.0441
  878YOPE   C1A12687   6.661   6.657   6.161  0.1070  0.2377 -0.0544
  878YOPE   D2A12688   6.320   6.410   6.287 -0.2013  0.0943 -0.0198
  878YOPE   C3A12689   6.272   6.183   6.500 -0.0689 -0.2871 -0.0739
  878YOPE   C4A12690   6.403   5.926   6.863  0.2479  0.0190 -0.0505
  878YOPE   C1B12691   7.198   6.655   6.395  0.1414  0.2563 -0.5296
  878YOPE   C2B12692   7.472   6.611   6.793  0.1946  0.0464 -0.0210
  878YOPE   D3B12693   7.792   6.660   7.050 -0.0035 -0.0465  0.1780
  878YOPE   C4B12694   8.070   6.838   7.281  0.1156 -0.0968  0.1437
  879YOPE   NH312695  11.678  17.534   5.340  0.0515  0.1589  0.1036
  879YOPE   PO412696  11.813  17.782   5.631 -0.0713  0.0090 -0.0197
  879YOPE   GL112697  11.956  17.550   6.019  0.1016  0.2028 -0.0041
  879YOPE   GL212698  12.210  17.534   6.161  0.0098 -0.1362 -0.2323
  879YOPE   C1A12699  11.892  17.168   6.203 -0.2436  0.4889 -0.1373
  879YOPE   D2A12700  11.576  16.890   6.476  0.0562  0.0816  0.5499
  879YOPE   C3A12701  11.562  17.040   6.857 -0.2225 -0.1225 -0.0380
  879YOPE   C4A12702  11.414  17.426   7.029  0.0186 -0.1456 -0.0326
  879YOPE   C1B12703  12.376  17.748   6.490 -0.2394 -0.0680 -0.1392
  879YOPE   C2B12704  12.369  18.021   6.790  0.3297  0.0591 -0.0130
  879YOPE   D3B12705  12.349  17.986   7.190  0.1317 -0.3187 -0.2647
  879YOPE   C4B12706  12.729  17.852   7.374  0.0874  0.0387 -0.2411
  880YOPE   NH312707   8.812  14.583   5.509 -0.3046 -0.1731  0.0737
  880YOPE   PO412708   9.154  14.377   5.443  0.1088 -0.1395 -0.0922
  880YOPE   GL112709   9.008  14.190   5.766 -0.0238  0.2420 -0.1214
  880YOPE   GL212710   8.936  14.421   5.962 -0.0453  0.3916  0.0306
  880YOPE   C1A12711   8.930  13.881   6.088 -0.1185  0.0757 -0.1027
  880YOPE   D2A12712   8.890  13.861   6.471 -0.1143  0.2153 -0.2943
  880YOPE   C3A12713   9.000  13.480   6.461  0.2913  0.1793 -0.2408
  880YOPE   C4A12714   9.415  13.250   6.603  0.1907 -0.0473  0.3024
  880YOPE   C1B12715   9.037  14.394   6.374  0.1090  0.2961 -0.0720
  880YOPE   C2B12716   9.101  14.126   6.799  0.0502 -0.1556 -0.1511
  880YOPE   D3B12717   9.084  13.851   6.971  0.2561 -0.1755 -0.2191
  880YOPE   C4B12718   9.201  13.450   6.999 -0.1252  0.2293  0.4758
  881YOPE   NH312719   2.441  10.953   5.551 -0.0564 -0.1800  0.0330
  881YOPE   PO412720   2.151  11.257   5.786 -0.0522  0.2355  0.1667
  881YOPE   GL112721   1.934  11.269   6.209 -0.1647 -0.2005 -0.0674
  881YOPE   GL212722   1.859  11.568   6.154 -0.0655  0.1616  0.0124
  881YOPE   C1A12723   1.558  11.299   6.482  0.0539 -0.0359 -0.0916
  881YOPE   D2A12724   1.440  11.381   6.827  0.2014  0.1228  0.0560
  881YOPE   C3A12725   1.224  11.691   6.802  0.2848 -0.0957 -0.0672
  881YOPE   C4A12726   1.104  12.053   6.995  0.2191  0.0510 -0.2889
  881YOPE   C1B12727   1.653  11.805   6.535 -0.0709 -0.2871 -0.1277
  881YOPE   C2B12728   1.573  12.116   6.887 -0.4420 -0.1711  0.2034
  881YOPE   D3B12729   1.530  12.334   7.278  0.0323 -0.0511 -0.0407
  881YOPE   C4B12730   1.514  12.681   7.515 -0.0738  0.1931 -0.1593
  882YOPE   NH312731  10.887  10.484   4.908  0.0903  0.3947  0.0244
  882YOPE   PO412732  10.490  10.758   4.980  0.0505 -0.0974  0.1572
  882YOPE   GL112733  10.551  10.871   5.391 -0.1813 -0.0244 -0.2153
  882YOPE   GL212734  10.169  11.121   5.382  0.0796 -0.0131  0.1683
  882YOPE   C1A12735  10.709  10.796   5.800 -0.1416  0.1123 -0.0942
  882YOPE   D2A12736  10.687  11.014   6.228  0.0320 -0.0826  0.2034
  882YOPE   C3A12737  10.966  10.899   6.580  0.0087 -0.2340  0.0608
  882YOPE   C4A12738  11.101  10.576   6.873  0.1770  0.4884 -0.0028
  882YOPE   C1B12739  10.170  10.922   5.747  0.3549  0.1423 -0.2011
  882YOPE   C2B12740  10.164  10.749   6.183 -0.0062  0.1186  0.0623
  882YOPE   D3B12741  10.275  10.874   6.549 -0.4177 -0.2021 -0.0785
  882YOPE   C4B12742  10.298  11.004   7.009  0.1849 -0.2024  0.0473
  883YOPE   NH312743   1.176   9.712   5.631  0.3706 -0.1804  0.1116
  883YOPE   PO412744   1.590   9.941   5.469  0.0567  0.0919  0.4878
  883YOPE   GL112745   1.565  10.133   5.875 -0.1844  0.2756 -0.2234
  883YOPE   GL212746   1.281  10.089   6.046  0.2687 -0.3180  0.0168
  883YOPE   C1A12747   1.789  10.391   6.181  0.1977 -0.0534 -0.0923
  883YOPE   D2A12748   2.149  10.327   6.553  0.1124  0.0240 -0.1907
  883YOPE   C3A12749   2.552  10.100   6.403  0.0952  0.1081  0.0173
  883YOPE   C4A12750   2.658  10.105   5.918 -0.1072 -0.3394  0.0634
  883YOPE   C1B12751   1.469  10.164   6.493 -0.2750  0.0938 -0.0806
  883YOPE   C2B12752   1.675  10.340   6.877  0.1584 -0.4837  0.0592
  883YOPE   D3B12753   2.077  10.512   7.027 -0.1774 -0.0144 -0.1170
  883YOPE   C4B12754   2.325  10.743   7.356 -0.1062  0.0128 -0.0224
  884YOPE   NH312755   8.320   0.373   5.735 -0.1556  0.1332 -0.1957
  884YOPE   PO412756   8.642   0.739   5.762 -0.0988 -0.0782 -0.1932
  884YOPE   GL112757   8.241   0.800   6.027  0.1376  0.0995  0.1708
  884YOPE   GL212758   8.087   1.063   5.953  0.1518  0.0712  0.3203
  884YOPE   C1A12759   8.034   0.425   6.312 -0.0337 -0.1136 -0.2012
  884YOPE   D2A12760   7.739   0.290   6.550 -0.1581  0.0611 -0.1532
  884YOPE   C3A12761   7.419   0.505   6.636  0.1033 -0.3453  0.0715
  884YOPE   C4A12762   7.109   0.818   6.528  0.0103  0.4843  0.0061
  884YOPE   C1B12763   8.113   1.085   6.387 -0.1683  0.2649  0.1958
  884YOPE   C2B12764   8.074   0.828   6.727 -0.0676  0.1270 -0.0778
  884YOPE   D3B12765   7.968   0.471   6.952 -0.0630  0.3194  0.0186
  884YOPE   C4B12766   7.947   0.441   7.418  0.1066  0.1754 -0.0052
  885YOPE   NH312767  18.542   3.895   5.099 -0.2228 -0.2250  0.2014
  885YOPE   PO412768  18.080   4.103   4.983 -0.3846 -0.0681  0.0912
  885YOPE   GL112769  17.998   3.824   5.249  0.3055  0.1793  0.0990
  885YOPE   GL212770  17.668   3.730   5.198 -0.2214 -0.0759 -0.1736
  885YOPE   C1A12771  18.061   3.865   5.621 -0.0636  0.0235 -0.0829
  885YOPE   D2A12772  18.327   3.820   6.049  0.1078 -0.0544  0.3695
  885YOPE   C3A12773  18.471   4.104   6.321 -0.0448 -0.1085  0.3955
  885YOPE   C4A12774  18.308   4.313   6.582  0.1756 -0.0183 -0.0455
  885YOPE   C1B12775  17.744   3.504   5.604  0.0546 -0.0291 -0.1869
  885YOPE   C2B12776  17.827   3.586   6.045  0.0492  0.0268 -0.1610
  885YOPE   D3B12777  17.979   3.551   6.401  0.0567 -0.0062  0.5437
  885YOPE   C4B12778  17.868   3.551   6.833 -0.1980 -0.0015  0.4167
  886YOPE   NH312779   5.563   1.881   5.321  0.0686  0.1372  0.1438
  886YOPE   PO412780   5.641   1.469   5.140 -0.1173 -0.1027 -0.4089
  886YOPE   GL112781   5.375   1.222   5.471 -0.0607 -0.1897 -0.0474
  886YOPE   GL212782   5.385   1.502   5.625 -0.0938 -0.0368  0.0957
  886YOPE   C1A12783   5.555   0.874   5.697 -0.3865  0.2542  0.3091
  886YOPE   D2A12784   5.989   0.636   5.813 -0.1117 -0.4152 -0.2989
  886YOPE   C3A12785   6.431   0.618   5.963  0.1969 -0.1496 -0.0278
  886YOPE   C4A12786   6.753   0.811   6.150  0.0679  0.1577  0.0849
  886YOPE   C1B12787   5.399   1.552   6.111  0.1960 -0.0425  0.0068
  886YOPE   C2B12788   5.243   1.346   6.418 -0.0616  0.0004  0.0518
  886YOPE   D3B12789   5.136   1.088   6.655  0.1354 -0.1662  0.0939
  886YOPE   C4B12790   4.940   0.910   6.990 -0.1311 -0.0504 -0.1209
  887YOPE   NH312791   7.260   5.743   5.192  0.0569 -0.1057 -0.1874
  887YOPE   PO412792   6.884   5.639   5.269  0.2451 -0.0702  0.4133
  887YOPE   GL112793   6.859   5.622   5.710 -0.2866  0.0170 -0.0512
  887YOPE   GL212794   7.042   5.342   5.969  0.2753 -0.2146  0.0076
  887YOPE   C1A12795   6.465   5.621   5.979 -0.1507  0.0846 -0.2688
  887YOPE   D2A12796   6.382   5.594   6.369  0.1652 -0.6322  0.0509
  887YOPE   C3A12797   6.063   5.441   6.639  0.1154  0.1648 -0.3542
  887YOPE   C4A12798   6.165   5.082   6.808 -0.3833 -0.0279  0.0103
  887YOPE   C1B12799   6.741   5.266   6.383  0.0082  0.5948  0.0382
  887YOPE   C2B12800   6.596   5.315   6.781  0.3174 -0.2423 -0.0764
  887YOPE   D3B12801   6.824   5.609   7.088 -0.2694 -0.3286  0.1252
  887YOPE   C4B12802   7.020   5.628   7.552  0.0005 -0.2601 -0.1274
  888YOPE   NH312803   6.739  18.580   5.576 -0.0125  0.4158 -0.1001
  888YOPE   PO412804   6.477  18.908   5.507  0.1104  0.5078  0.1534
  888YOPE   GL112805   6.383  19.238   5.790 -0.0214 -0.1699  0.0683
  888YOPE   GL212806   6.343  19.601   5.651 -0.0821 -0.0441 -0.1087
  888YOPE   C1A12807   6.358  19.170   6.174  0.0881 -0.2624  0.1371
  888YOPE   D2A12808   6.588  18.870   6.560  0.0081 -0.1235  0.0079
  888YOPE   C3A12809   6.352  18.738   6.977  0.0560  0.2218 -0.2301
  888YOPE   C4A12810   6.171  18.581   7.373  0.1479  0.2049  0.2556
  888YOPE   C1B12811   5.955  19.456   5.905  0.0794 -0.1010 -0.0195
  888YOPE   C2B12812   5.913  19.341   6.402  0.2367  0.0504 -0.1448
  888YOPE   D3B12813   5.596  19.472   6.707 -0.1512 -0.0288 -0.2661
  888YOPE   C4B12814   5.317  19.429   6.958  0.1031  0.3705 -0.0826
  889YOPE   NH312815   6.954  12.508   5.680 -0.0992  0.1202 -0.0471
  889YOPE   PO412816   7.338  12.312   5.524  0.2384  0.0965 -0.1336
  889YOPE   GL112817   7.661  12.373   5.917 -0.0822  0.1727 -0.1805
  889YOPE   GL212818   7.439  12.637   6.092  0.0497 -0.0995  0.2386
  889YOPE   C1A12819   7.831  12.440   6.398 -0.1923  0.6155  0.1692
  889YOPE   D2A12820   8.061  12.431   6.854  0.1613 -0.0922  0.0592
  889YOPE   C3A12821   8.140  12.750   7.256 -0.1605 -0.2730  0.0548
  889YOPE   C4A12822   8.108  12.746   7.639 -0.2688 -0.1967 -0.0300
  889YOPE   C1B12823   7.271  12.338   6.411 -0.2768  0.0348  0.2053
  889YOPE   C2B12824   7.600  12.315   6.785 -0.2122 -0.0061 -0.0964
  889YOPE   D3B12825   7.527  12.083   7.227 -0.0487 -0.1325 -0.1981
  889YOPE   C4B12826   7.549  12.044   7.695  0.0143 -0.1775 -0.1096
  890YOPE   NH312827   3.627   5.490   5.136 -0.1368  0.2824  0.0443
  890YOPE   PO412828   3.990   5.215   5.042  0.0808  0.0104 -0.1362
  890YOPE   GL112829   4.010   5.371   5.491  0.0568 -0.2749 -0.1080
  890YOPE   GL212830   3.930   5.652   5.593  0.3011  0.0968 -0.0369
  890YOPE   C1A12831   4.040   5.265   6.010  0.1456  0.0134  0.2205
  890YOPE   D2A12832   4.105   5.553   6.403  0.0636 -0.6322  0.1485
  890YOPE   C3A12833   4.649   5.799   6.492 -0.1552  0.0171 -0.0127
  890YOPE   C4A12834   4.783   6.213   6.446 -0.3535  0.0625  0.0630
  890YOPE   C1B12835   4.066   5.836   5.953  0.2386  0.1680 -0.0379
  890YOPE   C2B12836   4.122   6.076   6.349  0.1644  0.2276 -0.1630
  890YOPE   D3B12837   4.215   6.399   6.560  0.2781 -0.1297 -0.2198
  890YOPE   C4B12838   4.469   6.639   6.679  0.0247  0.3298 -0.4066
  891YOPE   NH312839  10.360   9.724   5.172 -0.0165 -0.1210  0.5184
  891YOPE   PO412840   9.916  10.012   5.244  0.0697  0.2712 -0.1039
  891YOPE   GL112841  10.058  10.047   5.673  0.0181  0.0310  0.1186
  891YOPE   GL212842  10.095   9.665   5.715 -0.0539 -0.0983 -0.0934
  891YOPE   C1A12843  10.010  10.150   6.222  0.1009  0.0185 -0.2095
  891YOPE   D2A12844  10.191  10.289   6.642  0.1273 -0.0934 -0.2931
  891YOPE   C3A12845  10.033  10.268   6.945  0.1009  0.2581 -0.1037
  891YOPE   C4A12846  10.043  10.347   7.409  0.0267 -0.0023 -0.1320
  891YOPE   C1B12847  10.351   9.792   6.063 -0.1278 -0.2374 -0.0553
  891YOPE   C2B12848  10.412   9.836   6.461 -0.0135 -0.1913  0.1139
  891YOPE   D3B12849  10.469   9.749   6.855  0.2579 -0.1018 -0.0186
  891YOPE   C4B12850  10.328   9.453   7.114  0.2539 -0.2769  0.1666
  892YOPE   NH312851   4.873  18.648   5.366  0.2909 -0.2125 -0.1690
  892YOPE   PO412852   5.225  18.901   5.337  0.2810 -0.0602 -0.1375
  892YOPE   GL112853   5.116  18.879   5.752  0.4751  0.0910 -0.0117
  892YOPE   GL212854   5.117  18.606   5.832 -0.0646  0.0808  0.0075
  892YOPE   C1A12855   4.736  18.969   6.066 -0.0964 -0.1479  0.1547
  892YOPE   D2A12856   4.523  18.672   6.420 -0.0290 -0.1461  0.0622
  892YOPE   C3A12857   4.526  18.294   6.700  0.0563 -0.0766 -0.0919
  892YOPE   C4A12858   4.577  17.831   6.656 -0.0220  0.1089  0.1573
  892YOPE   C1B12859   4.983  18.422   6.266  0.1235 -0.2044  0.0363
  892YOPE   C2B12860   5.003  18.154   6.690  0.1630  0.1812 -0.2210
  892YOPE   D3B12861   4.997  17.891   6.902  0.2922  0.1325  0.0305
  892YOPE   C4B12862   4.787  17.418   6.841  0.0632  0.1960  0.0461
  893YOPE   NH312863  13.841   4.673   5.119 -0.2502 -0.3592  0.1595
  893YOPE   PO412864  13.468   4.864   5.104 -0.2963 -0.3016  0.0184
  893YOPE   GL112865  13.601   5.050   5.529  0.3523 -0.1486 -0.1643
  893YOPE   GL212866  13.720   5.248   5.390  0.1548  0.1670  0.2293
  893YOPE   C1A12867  13.837   5.028   5.959 -0.3070  0.1943 -0.0866
  893YOPE   D2A12868  14.086   5.014   6.386 -0.0743  0.1328 -0.3900
  893YOPE   C3A12869  14.024   5.240   6.864  0.4156  0.0480  0.2181
  893YOPE   C4A12870  13.903   5.373   7.226  0.0433 -0.0544  0.2422
  893YOPE   C1B12871  13.583   5.439   5.780 -0.0016 -0.1761 -0.1726
  893YOPE   C2B12872  13.278   5.484   6.181 -0.0312 -0.0808  0.1122
  893YOPE   D3B12873  13.037   5.376   6.460  0.0607 -0.1674  0.0839
  893YOPE   C4B12874  12.854   5.545   6.825  0.0175  0.0521  0.1130
  894YOPE   NH312875   8.348   4.452   5.626 -0.1070  0.0282 -0.1658
  894YOPE   PO412876   8.767   4.629   5.536 -0.0829 -0.3280 -0.1421
  894YOPE   GL112877   8.872   4.399   5.902  0.1852 -0.4304  0.1726
  894YOPE   GL212878   8.711   4.149   5.996  0.1410 -0.1953 -0.1382
  894YOPE   C1A12879   8.908   4.438   6.427 -0.0066  0.1745  0.3896
  894YOPE   D2A12880   8.610   4.112   6.769  0.0584 -0.1586 -0.0298
  894YOPE   C3A12881   8.658   4.108   7.170  0.2944  0.2755  0.1593
  894YOPE   C4A12882   8.689   3.919   7.495  0.0110 -0.0239  0.2976
  894YOPE   C1B12883   8.450   4.343   6.346 -0.3340  0.2736  0.3349
  894YOPE   C2B12884   8.118   4.384   6.385  0.0357 -0.0433 -0.0400
  894YOPE   D3B12885   7.912   4.646   6.807  0.0330 -0.1215  0.3805
  894YOPE   C4B12886   7.621   4.890   7.035  0.2858  0.1920  0.0067
  895YOPE   NH312887  11.616  12.286   5.280 -0.2152  0.0084  0.0250
  895YOPE   PO412888  12.014  12.158   5.236 -0.0967  0.1889 -0.1399
  895YOPE   GL112889  12.029  11.843   5.537 -0.0855  0.0818  0.2243
  895YOPE   GL212890  11.971  12.023   5.769 -0.2698 -0.0761  0.1234
  895YOPE   C1A12891  11.976  11.461   5.845 -0.5197 -0.0899  0.0795
  895YOPE   D2A12892  12.139  11.319   6.163  0.0453 -0.1241 -0.4383
  895YOPE   C3A12893  12.450  10.956   6.225 -0.1906 -0.0376  0.2240
  895YOPE   C4A12894  12.479  10.606   6.325 -0.2566 -0.0722  0.3464
  895YOPE   C1B12895  12.106  11.962   6.089  0.1963  0.2835  0.2432
  895YOPE   C2B12896  12.500  12.199   6.096 -0.2876 -0.4316  0.2141
  895YOPE   D3B12897  12.886  12.510   6.100 -0.0084  0.1046  0.0353
  895YOPE   C4B12898  13.198  12.407   6.452  0.4264  0.2734  0.1665
  896YOPE   NH312899   3.679  12.449   5.538  0.2244  0.2028  0.0978
  896YOPE   PO412900   3.168  12.492   5.356 -0.0668  0.1065 -0.1229
  896YOPE   GL112901   3.098  12.663   5.796 -0.2884  0.0932 -0.1638
  896YOPE   GL212902   2.965  12.548   6.092 -0.2084  0.0986 -0.1968
  896YOPE   C1A12903   3.027  13.039   6.071  0.0339 -0.0417  0.3973
  896YOPE   D2A12904   2.874  13.319   6.289 -0.0118  0.3497 -0.2404
  896YOPE   C3A12905   2.569  13.544   6.006 -0.0810  0.0257  0.1426
  896YOPE   C4A12906   2.327  13.649   5.684  0.0119 -0.0945 -0.4442
  896YOPE   C1B12907   2.755  12.730   6.530 -0.2135  0.2778  0.3419
  896YOPE   C2B12908   2.833  12.880   6.943 -0.1001  0.1264 -0.3281
  896YOPE   D3B12909   3.049  12.693   7.261 -0.0450 -0.1274 -0.1715
  896YOPE   C4B12910   2.999  12.432   7.705 -0.0973  0.2141 -0.0040
  897YOPE   NH312911  12.363  13.690   5.036  0.0433  0.2504  0.1565
  897YOPE   PO412912  12.612  14.094   4.994  0.2852  0.0564 -0.2596
  897YOPE   GL112913  12.432  14.205   5.467 -0.3459 -0.2146  0.2144
  897YOPE   GL212914  12.314  14.114   5.756 -0.2048 -0.0493  0.1028
  897YOPE   C1A12915  12.739  14.272   5.906  0.1862  0.0386 -0.1799
  897YOPE   D2A12916  13.182  14.370   6.018  0.2771 -0.6574 -0.3524
  897YOPE   C3A12917  13.317  14.249   6.435  0.2580 -0.0174 -0.1575
  897YOPE   C4A12918  13.318  13.947   6.821 -0.0793  0.4876  0.2189
  897YOPE   C1B12919  12.324  13.672   5.771 -0.0394  0.3860  0.1592
  897YOPE   C2B12920  12.059  13.369   5.947  0.1469  0.1917  0.0060
  897YOPE   D3B12921  12.033  13.025   6.049  0.0102 -0.1711 -0.2069
  897YOPE   C4B12922  12.354  12.684   6.216  0.2922  0.0509 -0.0185
  898YOPE   NH312923   0.397   9.995   5.430  0.0588 -0.0761 -0.5923
  898YOPE   PO412924   0.057  10.150   5.336 -0.0530 -0.2831  0.2066
  898YOPE   GL112925   0.037  10.093   5.806 -0.1527 -0.1531  0.0553
  898YOPE   GL212926   0.408  10.229   6.000  0.2599 -0.1426 -0.0930
  898YOPE   C1A12927   0.092   9.921   6.232 -0.1492 -0.1901  0.0328
  898YOPE   D2A12928   0.255   9.942   6.618  0.1014 -0.0217  0.3156
  898YOPE   C3A12929  -0.020  10.100   6.984 -0.0156 -0.0205  0.3665
  898YOPE   C4A12930  -0.417  10.062   7.068 -0.0692 -0.0162 -0.1304
  898YOPE   C1B12931   0.274  10.427   6.418  0.1116 -0.3511  0.2205
  898YOPE   C2B12932   0.501  10.332   6.816 -0.0271  0.1108  0.0604
  898YOPE   D3B12933   0.872  10.352   7.156  0.4551  0.1211 -0.1142
  898YOPE   C4B12934   1.078  10.671   7.227  0.2794  0.3464 -0.0802
  899YOPE   NH312935  10.964   4.075   5.767 -0.2059  0.3869 -0.1758
  899YOPE   PO412936  10.704   3.748   5.757 -0.1874  0.1646  0.0804
  899YOPE   GL112937  11.141   3.644   5.989  0.1549 -0.1309  0.0747
  899YOPE   GL212938  11.075   3.931   6.279  0.2258 -0.0176  0.1371
  899YOPE   C1A12939  11.580   3.641   6.210  0.0345  0.1744 -0.0329
  899YOPE   D2A12940  11.897   3.517   6.290 -0.1756 -0.0468  0.0110
  899YOPE   C3A12941  11.910   3.224   6.579  0.0780  0.3070 -0.3802
  899YOPE   C4A12942  11.494   3.045   6.717  0.0650  0.0494 -0.0003
  899YOPE   C1B12943  11.210   3.946   6.617  0.0587 -0.3036 -0.0682
  899YOPE   C2B12944  11.389   4.066   6.949  0.1658  0.2456 -0.2604
  899YOPE   D3B12945  11.296   4.388   7.202 -0.1379  0.0281 -0.1123
  899YOPE   C4B12946  11.112   4.831   7.318  0.2284  0.0229 -0.0087
  900YOPE   NH312947  18.853  19.198   4.720  0.1845 -0.1998 -0.1709
  900YOPE   PO412948  18.910  19.489   5.065 -0.3228  0.0825 -0.0223
  900YOPE   GL112949  18.803  19.739   5.394 -0.0958  0.1564  0.0411
  900YOPE   GL212950  18.563  19.543   5.489  0.2644 -0.1610 -0.2652
  900YOPE   C1A12951  18.864  19.711   5.846 -0.0623  0.0208  0.2195
  900YOPE   D2A12952  19.081  19.496   6.241  0.2638 -0.1584 -0.3965
  900YOPE   C3A12953  19.309  19.415   6.399 -0.0231 -0.1099 -0.1745
  900YOPE   C4A12954  19.654  19.121   6.234  0.0735 -0.1025 -0.0092
  900YOPE   C1B12955  18.356  19.521   5.981 -0.1020  0.0628  0.0898
  900YOPE   C2B12956  18.261  19.498   6.420 -0.2427 -0.1318 -0.0565
  900YOPE   D3B12957  18.598  19.494   6.699 -0.0243  0.1574 -0.3009
  900YOPE   C4B12958  18.223  19.570   6.972 -0.0350  0.1648 -0.3033
  901YOPE   NH312959   2.774  12.306   5.660  0.1046  0.0944 -0.2424
  901YOPE   PO412960   2.473  12.567   5.797  0.1052 -0.3533 -0.3072
  901YOPE   GL112961   2.519  12.338   6.216 -0.1853 -0.0796 -0.0984
  901YOPE   GL212962   2.711  12.096   6.111 -0.1406  0.1514 -0.2823
  901YOPE   C1A12963   2.632  12.163   6.649  0.1855 -0.0182 -0.0128
  901YOPE   D2A12964   2.723  12.320   7.109 -0.1345 -0.2958 -0.0413
  901YOPE   C3A12965   2.668  12.114   7.509  0.1308 -0.0113  0.0418
  901YOPE   C4A12966   2.613  11.686   7.719 -0.2815  0.3217 -0.1853
  901YOPE   C1B12967   3.187  12.249   6.394  0.1398  0.1585 -0.1789
  901YOPE   C2B12968   3.176  12.375   6.774 -0.1004 -0.1087  0.0858
  901YOPE   D3B12969   3.437  12.508   7.062 -0.0244  0.1808  0.1957
  901YOPE   C4B12970   3.529  12.729   7.464 -0.1838  0.0017 -0.2638
  902YOPE   NH312971  10.469  12.718   4.975  0.0131  0.2600 -0.1291
  902YOPE   PO412972  10.758  12.491   4.965 -0.1458  0.1601  0.0976
  902YOPE   GL112973  10.872  12.251   5.373 -0.2523 -0.2253 -0.0546
  902YOPE   GL212974  10.971  11.890   5.400 -0.2308 -0.3366 -0.1870
  902YOPE   C1A12975  10.912  12.150   5.852 -0.1294  0.2360  0.2570
  902YOPE   D2A12976  11.043  12.126   6.254  0.0766 -0.1081  0.2102
  902YOPE   C3A12977  11.390  12.453   6.335  0.1509  0.0179  0.3566
  902YOPE   C4A12978  11.591  12.591   6.632 -0.2179  0.0353 -0.0767
  902YOPE   C1B12979  11.028  11.656   5.785 -0.2022 -0.1094  0.1536
  902YOPE   C2B12980  11.101  11.623   6.131 -0.2867 -0.1513  0.1110
  902YOPE   D3B12981  11.123  11.401   6.449  0.2509 -0.0943  0.1792
  902YOPE   C4B12982  11.091  11.344   6.867  0.2447  0.2610 -0.3638
  903YOPE   NH312983  16.907   1.443   5.134 -0.0292  0.0614  0.6112
  903YOPE   PO412984  17.337   1.373   4.976  0.0285  0.0353 -0.1962
  903YOPE   GL112985  17.462   1.166   5.368 -0.0488 -0.1466  0.0830
  903YOPE   GL212986  17.714   1.306   5.558  0.1939 -0.1387 -0.1039
  903YOPE   C1A12987  17.666   0.776   5.645 -0.4899 -0.2662 -0.1656
  903YOPE   D2A12988  17.902   0.498   5.791 -0.2230  0.1676  0.1419
  903YOPE   C3A12989  17.921   0.310   6.131  0.0276 -0.1618  0.2872
  903YOPE   C4A12990  17.776   0.391   6.530  0.2728 -0.5017 -0.2227
  903YOPE   C1B12991  17.456   1.224   5.983 -0.3784  0.0267  0.1934
  903YOPE   C2B12992  17.328   1.235   6.397  0.2033 -0.1681  0.0250
  903YOPE   D3B12993  17.495   1.142   6.835 -0.1960  0.1044 -0.0412
  903YOPE   C4B12994  17.454   1.306   7.194 -0.0742 -0.1497  0.2191
  904YOPE   NH312995   9.731   7.623   5.302  0.0733 -0.0677 -0.0697
  904YOPE   PO412996  10.113   7.485   5.180 -0.0766 -0.2091  0.1996
  904YOPE   GL112997  10.129   7.675   5.613  0.4004 -0.2945 -0.0234
  904YOPE   GL212998  10.208   7.549   5.796 -0.0960  0.0877 -0.2301
  904YOPE   C1A12999  10.129   7.915   6.083  0.0084 -0.0362 -0.0333
  904YOPE   D2A13000   9.968   8.073   6.423 -0.3450  0.2282 -0.0327
  904YOPE   C3A13001   9.654   8.331   6.474 -0.2873  0.0269 -0.0398
  904YOPE   C4A13002   9.375   8.538   6.605  0.0303  0.1183  0.3125
  904YOPE   C1B13003  10.174   7.451   6.189  0.1544  0.2574  0.2263
  904YOPE   C2B13004  10.297   7.556   6.535  0.1893  0.2840 -0.5500
  904YOPE   D3B13005  10.510   7.366   6.877  0.0001 -0.1348  0.0863
  904YOPE   C4B13006  10.596   6.996   7.066 -0.1547 -0.2526 -0.1366
  905YOPE   NH313007   9.131  10.740   4.908 -0.2191  0.0238 -0.0802
  905YOPE   PO413008   9.019  10.305   4.813  0.0506  0.0771 -0.2637
  905YOPE   GL113009   9.063  10.362   5.323 -0.2283 -0.0380  0.0477
  905YOPE   GL213010   9.153  10.155   5.565  0.1682 -0.0316 -0.0598
  905YOPE   C1A13011   8.752  10.550   5.572 -0.2591  0.1157  0.0093
  905YOPE   D2A13012   8.425  10.582   5.945 -0.2597 -0.1254 -0.2100
  905YOPE   C3A13013   8.577  10.574   6.440  0.3446  0.0093 -0.0999
  905YOPE   C4A13014   8.678  10.215   6.741  0.0600  0.2912  0.0420
  905YOPE   C1B13015   9.150   9.995   5.974  0.3217  0.0952  0.2519
  905YOPE   C2B13016   8.989   9.951   6.440 -0.1833 -0.0367  0.3273
  905YOPE   D3B13017   8.970   9.618   6.807  0.2801 -0.0322 -0.0909
  905YOPE   C4B13018   9.053   9.321   7.127 -0.1168 -0.1357 -0.0957
  906YOPE   NH313019  18.235   6.866   4.960 -0.2364  0.3926  0.3790
  906YOPE   PO413020  18.045   6.918   5.327  0.0111  0.0750  0.2183
  906YOPE   GL113021  17.939   7.059   5.765  0.3956 -0.0208  0.3971
  906YOPE   GL213022  17.698   6.799   5.789 -0.2347  0.0091 -0.0605
  906YOPE   C1A13023  18.118   7.042   6.094 -0.1757 -0.2157  0.1358
  906YOPE   D2A13024  18.071   6.864   6.418  0.3365 -0.0610 -0.0896
  906YOPE   C3A13025  18.226   6.623   6.796 -0.1065  0.3143 -0.3390
  906YOPE   C4A13026  18.604   6.469   6.897 -0.1944  0.1924 -0.3956
  906YOPE   C1B13027  17.657   6.689   6.205 -0.3344  0.1426 -0.0710
  906YOPE   C2B13028  17.245   6.562   6.455  0.2664  0.3101 -0.0993
  906YOPE   D3B13029  17.266   6.729   6.921 -0.0830 -0.2967 -0.0974
  906YOPE   C4B13030  17.608   6.655   7.312 -0.0361 -0.0791  0.0551
  907YOPE   NH313031   0.701   4.536   4.952  0.1454 -0.1414 -0.3039
  907YOPE   PO413032   1.208   4.588   4.976 -0.0448 -0.0150 -0.2119
  907YOPE   GL113033   1.171   4.577   5.337  0.0107  0.3652  0.2259
  907YOPE   GL213034   0.983   4.746   5.396 -0.0179 -0.0516  0.3343
  907YOPE   C1A13035   1.237   4.263   5.679 -0.1301  0.0097  0.1551
  907YOPE   D2A13036   1.363   3.793   5.907  0.0630 -0.4084  0.0616
  907YOPE   C3A13037   1.419   3.851   6.348 -0.2690 -0.0734 -0.2869
  907YOPE   C4A13038   1.654   3.957   6.656  0.0157  0.2758 -0.0661
  907YOPE   C1B13039   0.812   4.734   5.871 -0.4157 -0.1078  0.3106
  907YOPE   C2B13040   0.786   4.966   6.114 -0.3765  0.0490 -0.4412
  907YOPE   D3B13041   0.675   5.205   6.491  0.0673  0.0624  0.0991
  907YOPE   C4B13042   0.739   5.150   6.942  0.3086  0.2304  0.1243
  908YOPE   NH313043   7.556  18.449   5.537 -0.0138 -0.1856  0.0992
  908YOPE   PO413044   7.197  18.283   5.609  0.0157  0.5161 -0.1165
  908YOPE   GL113045   7.277  18.499   5.943 -0.0060 -0.2270 -0.2259
  908YOPE   GL213046   6.902  18.536   6.040 -0.0089 -0.2459 -0.0508
  908YOPE   C1A13047   7.406  18.424   6.192 -0.0289  0.4644 -0.0046
  908YOPE   D2A13048   7.594  18.154   6.338  0.1711  0.0629 -0.0151
  908YOPE   C3A13049   7.562  18.278   6.845  0.0925  0.1617  0.1169
  908YOPE   C4A13050   7.573  18.299   7.278 -0.0078  0.5403 -0.3486
  908YOPE   C1B13051   6.853  18.468   6.440 -0.1654 -0.0118  0.0827
  908YOPE   C2B13052   6.827  18.508   6.865  0.0270 -0.2418  0.2709
  908YOPE   D3B13053   6.625  18.302   7.169  0.1158  0.2248 -0.2588
  908YOPE   C4B13054   6.606  18.086   7.620 -0.0288  0.0679  0.0137
  909YOPE   NH313055  15.602  10.692   5.414 -0.1205  0.5402 -0.2784
  909YOPE   PO413056  15.253  10.566   5.272 -0.2059 -0.2157  0.0081
  909YOPE   GL113057  15.096  10.434   5.651 -0.2502  0.0947 -0.2134
  909YOPE   GL213058  15.282  10.632   5.764  0.1912 -0.0032  0.0068
  909YOPE   C1A13059  14.850  10.268   5.975  0.1985 -0.0665 -0.1754
  909YOPE   D2A13060  14.727   9.920   6.160  0.1748 -0.1757 -0.0060
  909YOPE   C3A13061  14.463   9.973   6.461  0.3210  0.1243 -0.4047
  909YOPE   C4A13062  14.173   9.961   6.672 -0.2199 -0.3301 -0.1320
  909YOPE   C1B13063  15.309  10.457   6.162  0.2014  0.2273  0.0998
  909YOPE   C2B13064  15.105  10.258   6.492 -0.1793 -0.0271 -0.3066
  909YOPE   D3B13065  14.929   9.825   6.653 -0.3286  0.1521 -0.1350
  909YOPE   C4B13066  14.852   9.611   6.988  0.0176 -0.1484 -0.0725
  910YOPE   NH313067  10.381   2.703   6.041  0.0365  0.0940 -0.0296
  910YOPE   PO413068  10.232   3.070   5.803 -0.2489  0.1499  0.1799
  910YOPE   GL113069  10.130   3.123   6.261  0.1378  0.0621 -0.1265
  910YOPE   GL213070   9.724   3.064   6.407  0.3198  0.1089 -0.0503
  910YOPE   C1A13071  10.216   3.271   6.646 -0.1227 -0.1034  0.3581
  910YOPE   D2A13072  10.161   3.461   7.053 -0.3405 -0.2059 -0.0484
  910YOPE   C3A13073  10.138   3.312   7.527 -0.1350 -0.0745 -0.0499
  910YOPE   C4A13074   9.839   3.562   7.855 -0.0613 -0.2988  0.2235
  910YOPE   C1B13075   9.712   2.854   6.798 -0.0451 -0.0874 -0.1903
  910YOPE   C2B13076   9.568   2.628   7.128  0.2764  0.0683 -0.2411
  910YOPE   D3B13077   9.593   2.241   7.390 -0.1357 -0.2556  0.0750
  910YOPE   C4B13078   9.739   2.361   7.812 -0.0050 -0.0282 -0.2547
  911YOPE   NH313079   6.520   2.108   4.969 -0.2897 -0.3219 -0.1381
  911YOPE   PO413080   6.049   1.985   5.189 -0.2411 -0.1806  0.2498
  911YOPE   GL113081   5.992   1.729   5.456 -0.0879 -0.1225  0.0379
  911YOPE   GL213082   5.794   1.887   5.791  0.0420  0.3123  0.1673
  911YOPE   C1A13083   6.208   1.648   5.904  0.0855 -0.0835  0.2312
  911YOPE   D2A13084   6.421   1.987   6.176  0.2572 -0.1533  0.1906
  911YOPE   C3A13085   6.310   2.078   6.572  0.2424  0.4643 -0.1861
  911YOPE   C4A13086   6.554   2.117   6.996  0.0252 -0.0147  0.0177
  911YOPE   C1B13087   5.879   1.884   6.173 -0.2325 -0.1564  0.2353
  911YOPE   C2B13088   5.784   2.083   6.632  0.3616 -0.1979  0.4289
  911YOPE   D3B13089   5.942   2.149   7.035  0.1486 -0.1499 -0.1859
  911YOPE   C4B13090   6.178   2.022   7.416  0.1620  0.1435  0.2575
  912YOPE   NH313091  12.159   7.143   5.113 -0.0775  0.2822 -0.0335
  912YOPE   PO413092  11.712   7.183   4.920 -0.2030  0.1547  0.0970
  912YOPE   GL113093  11.590   7.337   5.389  0.1970 -0.2374  0.3135
  912YOPE   GL213094  11.948   7.341   5.490  0.0171 -0.3169 -0.1247
  912YOPE   C1A13095  11.700   7.640   5.808  0.0801  0.0878  0.0078
  912YOPE   D2A13096  11.876   7.768   6.203  0.0093 -0.0123  0.2360
  912YOPE   C3A13097  12.291   7.934   6.156 -0.1678  0.1455 -0.0088
  912YOPE   C4A13098  12.483   8.311   6.447 -0.2300  0.3925 -0.2401
  912YOPE   C1B13099  12.070   7.315   5.882 -0.0833 -0.0639 -0.1051
  912YOPE   C2B13100  12.121   7.350   6.385 -0.1559 -0.1763  0.5292
  912YOPE   D3B13101  12.323   7.283   6.750  0.0594  0.0675  0.0715
  912YOPE   C4B13102  12.632   7.534   6.903 -0.3560 -0.2201 -0.0543
  913YOPE   NH313103  11.383  14.904   5.166  0.2640 -0.2076  0.1772
  913YOPE   PO413104  11.011  14.837   5.192  0.2138  0.0721  0.2839
  913YOPE   GL113105  11.088  14.787   5.573  0.0672  0.3943 -0.1025
  913YOPE   GL213106  11.452  14.775   5.699  0.1194 -0.0085  0.0915
  913YOPE   C1A13107  11.165  15.025   5.970 -0.0515 -0.1294 -0.0841
  913YOPE   D2A13108  10.914  15.249   6.224 -0.1664  0.1032 -0.1503
  913YOPE   C3A13109  11.051  15.593   6.611  0.0324 -0.0341  0.1970
  913YOPE   C4A13110  11.164  15.971   6.796  0.0008  0.4206 -0.0456
  913YOPE   C1B13111  11.668  14.675   6.139 -0.1785 -0.2805 -0.0301
  913YOPE   C2B13112  11.930  14.455   6.449 -0.1830  0.2494 -0.1223
  913YOPE   D3B13113  12.074  13.999   6.687  0.1352 -0.4213  0.2333
  913YOPE   C4B13114  12.067  13.587   6.864  0.1104 -0.2594  0.2261
  914YOPE   NH313115   5.752  14.086   5.457 -0.2594 -0.1304 -0.0203
  914YOPE   PO413116   5.442  14.306   5.671 -0.1506  0.1546  0.2015
  914YOPE   GL113117   5.275  14.481   6.062  0.0750  0.2180  0.3354
  914YOPE   GL213118   5.128  14.827   6.104  0.2067 -0.1532  0.0183
  914YOPE   C1A13119   5.365  14.437   6.572  0.0332 -0.3665  0.2823
  914YOPE   D2A13120   5.374  14.215   7.000  0.1459 -0.3050  0.1359
  914YOPE   C3A13121   5.808  14.011   7.105  0.1713 -0.0068 -0.1688
  914YOPE   C4A13122   5.964  13.717   7.448  0.0511 -0.1241  0.0097
  914YOPE   C1B13123   5.112  14.850   6.570 -0.0378 -0.1943  0.2510
  914YOPE   C2B13124   5.266  14.742   6.978  0.0774  0.0146 -0.1991
  914YOPE   D3B13125   5.368  14.633   7.451 -0.0920 -0.1780 -0.4335
  914YOPE   C4B13126   5.767  14.590   7.722  0.0911  0.0425  0.2991
  915YOPE   NH313127  14.742   7.677   5.131  0.0977  0.0109 -0.3353
  915YOPE   PO413128  14.276   7.620   5.170 -0.0569 -0.1098 -0.1719
  915YOPE   GL113129  14.223   7.517   5.597  0.0472  0.0738  0.1209
  915YOPE   GL213130  14.130   7.797   5.681 -0.1178  0.1055  0.5068
  915YOPE   C1A13131  14.064   7.069   5.688 -0.0113 -0.0347  0.0526
  915YOPE   D2A13132  14.045   6.827   6.041 -0.2418  0.0910 -0.1367
  915YOPE   C3A13133  14.176   6.771   6.492 -0.1119 -0.0682 -0.2063
  915YOPE   C4A13134  14.434   7.136   6.704  0.1008  0.0779 -0.1195
  915YOPE   C1B13135  14.313   7.792   6.054  0.2758  0.0266  0.0006
  915YOPE   C2B13136  14.220   7.466   6.404  0.0181  0.1694 -0.2773
  915YOPE   D3B13137  13.919   7.295   6.760 -0.0241 -0.0726 -0.1261
  915YOPE   C4B13138  13.773   7.192   7.047  0.1818  0.0764 -0.1086
  916YOPE   NH313139  19.047  18.175   5.041  0.1984  0.1688 -0.0184
  916YOPE   PO413140  18.897  18.632   4.823  0.1672  0.0849 -0.0569
  916YOPE   GL113141  18.882  18.746   5.276  0.0357  0.1616  0.0289
  916YOPE   GL213142  18.602  18.936   5.256  0.3512  0.2781 -0.2004
  916YOPE   C1A13143  18.839  18.738   5.712 -0.1075  0.0413 -0.1191
  916YOPE   D2A13144  19.119  18.422   5.953  0.0336 -0.0082 -0.0285
  916YOPE   C3A13145  19.048  18.255   6.340 -0.2359  0.1580 -0.0989
  916YOPE   C4A13146  18.985  18.169   6.835 -0.0348  0.1075  0.0101
  916YOPE   C1B13147  18.399  19.007   5.739 -0.0139 -0.1733  0.1315
  916YOPE   C2B13148  17.988  19.155   6.148 -0.4005  0.0776  0.4008
  916YOPE   D3B13149  17.566  19.310   6.384 -0.1122 -0.0546 -0.0801
  916YOPE   C4B13150  17.187  19.580   6.634  0.0364 -0.1696  0.1993
  917YOPE   NH313151  13.107  14.961   5.648 -0.0612 -0.2642  0.1461
  917YOPE   PO413152  12.759  15.208   5.715  0.0491 -0.5436 -0.1246
  917YOPE   GL113153  12.903  15.354   6.069  0.2279  0.3108 -0.0818
  917YOPE   GL213154  13.241  15.352   5.981  0.0255 -0.2267 -0.0300
  917YOPE   C1A13155  13.001  15.496   6.451  0.1561  0.0645 -0.1086
  917YOPE   D2A13156  13.303  15.569   6.686 -0.1348 -0.0543 -0.1802
  917YOPE   C3A13157  13.308  15.488   7.092  0.0553 -0.2571  0.1363
  917YOPE   C4A13158  13.108  15.752   7.370  0.0757 -0.1151 -0.0894
  917YOPE   C1B13159  13.159  15.079   6.355 -0.0944 -0.0748 -0.0109
  917YOPE   C2B13160  13.118  15.073   6.823 -0.0268 -0.3076 -0.1595
  917YOPE   D3B13161  13.259  14.944   7.330 -0.0243  0.2237 -0.1096
  917YOPE   C4B13162  13.673  14.861   7.514  0.0751  0.3446 -0.0056
  918YOPE   NH313163  10.424   7.967   5.340 -0.2758 -0.0179 -0.2368
  918YOPE   PO413164  10.633   7.517   5.385  0.0991  0.1076 -0.0621
  918YOPE   GL113165  10.722   7.571   5.806  0.1915  0.0598 -0.2216
  918YOPE   GL213166  10.680   7.911   5.782 -0.1355 -0.1078  0.2592
  918YOPE   C1A13167  10.635   7.412   6.169 -0.0437  0.0224  0.2054
  918YOPE   D2A13168  10.693   7.152   6.475  0.0839 -0.1089  0.1260
  918YOPE   C3A13169  10.961   7.236   6.844 -0.1779 -0.2972 -0.1576
  918YOPE   C4A13170  11.339   7.031   7.204  0.0274  0.3726 -0.0721
  918YOPE   C1B13171  10.737   7.944   6.206 -0.0384  0.1494 -0.0204
  918YOPE   C2B13172  10.817   7.726   6.518  0.0241  0.0962  0.1049
  918YOPE   D3B13173  11.165   7.670   6.726 -0.0633 -0.1043 -0.0896
  918YOPE   C4B13174  11.594   7.921   6.897  0.1444  0.1004  0.0329
  919YOPE   NH313175  18.984   1.260   4.776 -0.0102 -0.1237  0.1940
  919YOPE   PO413176  18.966   0.997   5.178 -0.0679  0.2932  0.2143
  919YOPE   GL113177  18.793   1.017   5.466 -0.3793 -0.0392  0.0885
  919YOPE   GL213178  18.989   1.208   5.649  0.0089  0.2286  0.3301
  919YOPE   C1A13179  18.753   0.935   6.003  0.0802 -0.2575  0.3123
  919YOPE   D2A13180  18.309   0.664   6.230 -0.2966 -0.5106 -0.2288
  919YOPE   C3A13181  18.182   0.617   6.707  0.0506  0.1608  0.0726
  919YOPE   C4A13182  17.827   0.796   6.838  0.1071  0.0418 -0.1463
  919YOPE   C1B13183  19.410   1.207   5.767  0.3010  0.2286 -0.0674
  919YOPE   C2B13184  19.653   1.232   6.198  0.2071  0.1243 -0.1748
  919YOPE   D3B13185  19.510   1.256   6.626  0.0168  0.0660 -0.3959
  919YOPE   C4B13186  19.090   1.335   6.874  0.1440  0.0493 -0.2326
  920YOPE   NH313187   5.993   2.760   5.413 -0.0687  0.2184 -0.3002
  920YOPE   PO413188   6.291   3.074   5.251 -0.0645 -0.1708  0.0742
  920YOPE   GL113189   6.364   3.102   5.658  0.1243  0.2075 -0.2373
  920YOPE   GL213190   6.344   2.831   5.816  0.0865 -0.0004 -0.1850
  920YOPE   C1A13191   6.231   3.500   5.950 -0.1432  0.1319  0.2238
  920YOPE   D2A13192   6.207   3.607   6.386 -0.0678 -0.3703 -0.0033
  920YOPE   C3A13193   6.236   4.019   6.484 -0.0004  0.0025 -0.1134
  920YOPE   C4A13194   6.078   4.248   6.784  0.3628  0.1551 -0.1313
  920YOPE   C1B13195   6.299   2.852   6.300 -0.0434  0.1322  0.1743
  920YOPE   C2B13196   6.057   3.107   6.561  0.3245 -0.2731 -0.0515
  920YOPE   D3B13197   6.118   3.358   6.855  0.2210  0.2116 -0.2517
  920YOPE   C4B13198   6.174   3.733   6.935  0.0561  0.0973 -0.0810
  921YOPE   NH313199   2.479  19.067   4.987 -0.1004 -0.1951 -0.0430
  921YOPE   PO413200   2.083  19.109   5.130 -0.1011  0.3166 -0.0440
  921YOPE   GL113201   2.262  19.220   5.475  0.0058 -0.0647 -0.3043
  921YOPE   GL213202   2.581  19.050   5.542 -0.1708  0.1319 -0.1573
  921YOPE   C1A13203   2.466  19.480   5.753 -0.1057  0.5166 -0.2588
  921YOPE   D2A13204   2.492  19.868   5.825  0.0520  0.2070  0.1330
  921YOPE   C3A13205   2.533  20.041   6.187  0.0067  0.3143 -0.2589
  921YOPE   C4A13206   2.698  20.364   6.312  0.0301 -0.1487  0.1629
  921YOPE   C1B13207   2.638  19.063   5.920 -0.0470  0.0141  0.2025
  921YOPE   C2B13208   2.921  19.187   6.122 -0.0729  0.0820  0.4877
  921YOPE   D3B13209   3.009  19.222   6.515  0.1953  0.0248  0.0753
  921YOPE   C4B13210   3.331  19.211   6.773  0.1190  0.1929  0.2330
  922YOPE   NH313211   7.790  13.330   5.747 -0.0973 -0.4122 -0.0895
  922YOPE   PO413212   8.109  13.665   5.684 -0.1285 -0.2533  0.1482
  922YOPE   GL113213   7.932  13.741   6.034  0.0817  0.1863  0.0213
  922YOPE   GL213214   7.921  14.060   6.181  0.0728  0.0037 -0.0715
  922YOPE   C1A13215   7.976  13.596   6.442  0.4951 -0.4857  0.1141
  922YOPE   D2A13216   8.217  13.443   6.829  0.0693 -0.2038  0.1692
  922YOPE   C3A13217   8.385  13.586   7.211 -0.1985 -0.2319 -0.0328
  922YOPE   C4A13218   8.860  13.629   7.427  0.0343 -0.1016  0.0353
  922YOPE   C1B13219   8.120  14.051   6.590  0.1480  0.1020  0.1993
  922YOPE   C2B13220   8.030  13.899   7.046 -0.2915  0.3315  0.0429
  922YOPE   D3B13221   7.939  13.365   7.246  0.0871  0.0304 -0.2963
  922YOPE   C4B13222   7.713  13.061   7.553 -0.0330  0.0991  0.2084
  923YOPE   NH313223  18.036   0.124   4.881 -0.1437 -0.2198 -0.0730
  923YOPE   PO413224  18.424   0.178   5.012  0.1847  0.1391 -0.2421
  923YOPE   GL113225  18.187  -0.051   5.354 -0.2381 -0.1211 -0.1302
  923YOPE   GL213226  18.049  -0.457   5.224 -0.3698  0.1476 -0.1155
  923YOPE   C1A13227  17.803   0.007   5.551 -0.1963  0.0712 -0.3840
  923YOPE   D2A13228  17.504   0.045   5.868  0.0022  0.1877  0.0328
  923YOPE   C3A13229  17.209   0.250   6.123  0.2831 -0.0652  0.0588
  923YOPE   C4A13230  16.825   0.282   6.299 -0.1081 -0.1043 -0.1474
  923YOPE   C1B13231  17.933  -0.520   5.649  0.0417 -0.4146  0.2155
  923YOPE   C2B13232  18.263  -0.715   6.033  0.1017  0.2417  0.2491
  923YOPE   D3B13233  18.307  -0.911   6.447 -0.0451  0.1495  0.1825
  923YOPE   C4B13234  18.572  -1.208   6.589 -0.1199 -0.0313 -0.2741
  924YOPE   NH313235   8.333  17.273   5.409  0.1098  0.1630 -0.1574
  924YOPE   PO413236   8.597  16.944   5.376 -0.3710 -0.4242  0.2886
  924YOPE   GL113237   8.447  16.811   5.816 -0.0308 -0.0861 -0.3385
  924YOPE   GL213238   8.336  17.062   5.966 -0.5032 -0.0853 -0.1447
  924YOPE   C1A13239   8.715  16.809   6.192  0.0051 -0.2527 -0.1836
  924YOPE   D2A13240   8.779  16.395   6.422 -0.2398  0.2537  0.1176
  924YOPE   C3A13241   8.434  16.281   6.754  0.0555  0.0803  0.0202
  924YOPE   C4A13242   8.029  16.165   7.053  0.1201  0.0505  0.2936
  924YOPE   C1B13243   8.539  17.254   6.380  0.0772  0.1076 -0.0216
  924YOPE   C2B13244   8.576  17.299   6.883  0.3547 -0.0458 -0.0522
  924YOPE   D3B13245   8.697  17.245   7.266  0.3393 -0.0638  0.0503
  924YOPE   C4B13246   8.678  16.835   7.316 -0.0949  0.4395  0.0336
  925YOPE   NH313247  13.914   8.587   5.135 -0.2081  0.3809 -0.1111
  925YOPE   PO413248  14.317   8.547   5.261  0.1825  0.0559  0.1206
  925YOPE   GL113249  14.099   8.772   5.554 -0.2763  0.2552 -0.0255
  925YOPE   GL213250  13.793   8.719   5.727 -0.1193  0.1900 -0.1386
  925YOPE   C1A13251  14.197   8.721   6.005  0.0341  0.2215  0.1960
  925YOPE   D2A13252  14.092   8.668   6.409 -0.0199 -0.3485  0.3944
  925YOPE   C3A13253  14.300   8.486   6.674 -0.2029  0.4777  0.1595
  925YOPE   C4A13254  14.430   8.223   7.074  0.0176  0.3034 -0.3414
  925YOPE   C1B13255  13.765   8.404   6.090 -0.0979 -0.0384 -0.0322
  925YOPE   C2B13256  14.025   8.167   6.373  0.3557  0.1027  0.0235
  925YOPE   D3B13257  14.287   7.960   6.670 -0.1070 -0.1231  0.2724
  925YOPE   C4B13258  14.279   7.657   6.904  0.1296 -0.1916  0.1536
  926YOPE   NH313259  17.034  13.763   5.696 -0.2222  0.1266 -0.0858
  926YOPE   PO413260  17.336  14.075   5.495 -0.0828  0.1128 -0.1913
  926YOPE   GL113261  17.483  14.278   5.798 -0.0390 -0.1170  0.5226
  926YOPE   GL213262  17.281  14.649   5.727 -0.1781  0.0770  0.3237
  926YOPE   C1A13263  17.488  14.471   6.213 -0.0198 -0.1236 -0.2356
  926YOPE   D2A13264  17.753  14.350   6.551 -0.1753 -0.3096  0.0757
  926YOPE   C3A13265  17.899  14.737   6.854 -0.1167 -0.2750 -0.0615
  926YOPE   C4A13266  17.702  14.788   7.278 -0.0296  0.1051  0.1746
  926YOPE   C1B13267  17.605  15.067   5.796  0.3006  0.0271  0.2648
  926YOPE   C2B13268  17.955  15.179   5.790 -0.2872  0.0092 -0.1336
  926YOPE   D3B13269  18.340  15.162   6.047 -0.0282 -0.1161 -0.1005
  926YOPE   C4B13270  18.733  15.118   6.508  0.2324  0.3675 -0.2712
  927YOPE   NH313271   4.199   9.119   4.547  0.1472  0.1228 -0.2061
  927YOPE   PO413272   3.950   9.234   4.992 -0.1103  0.1580  0.1008
  927YOPE   GL113273   4.095   9.497   5.320 -0.1888 -0.1729  0.0404
  927YOPE   GL213274   4.197   9.760   5.190 -0.1678  0.2279 -0.2393
  927YOPE   C1A13275   3.842   9.484   5.742 -0.3117 -0.0983 -0.1266
  927YOPE   D2A13276   3.366   9.703   5.788  0.3306  0.0615 -0.1550
  927YOPE   C3A13277   3.378   9.608   6.148  0.2676  0.2441  0.0294
  927YOPE   C4A13278   3.553   9.225   6.352 -0.0590  0.1068 -0.4102
  927YOPE   C1B13279   4.065   9.943   5.611 -0.0099 -0.0155  0.1507
  927YOPE   C2B13280   4.024   9.851   6.066 -0.1966  0.0877  0.0101
  927YOPE   D3B13281   4.133  10.014   6.354  0.3951 -0.3608 -0.0636
  927YOPE   C4B13282   4.168  10.014   6.799  0.3146  0.0611 -0.3663
  928YOPE   NH313283  14.587  15.874   5.467 -0.2911  0.2856 -0.1806
  928YOPE   PO413284  14.349  15.497   5.494  0.1121 -0.1694  0.0725
  928YOPE   GL113285  14.249  15.603   5.907 -0.3070 -0.0020  0.1716
  928YOPE   GL213286  14.262  15.270   6.174 -0.1278  0.0091  0.0183
  928YOPE   C1A13287  14.117  15.999   6.011 -0.0246  0.0980 -0.0592
  928YOPE   D2A13288  14.112  16.354   6.256 -0.2623  0.2047  0.1040
  928YOPE   C3A13289  14.295  16.460   6.687 -0.1323 -0.0599  0.1167
  928YOPE   C4A13290  14.435  16.554   7.030  0.0473 -0.0488  0.1165
  928YOPE   C1B13291  14.142  15.016   6.569  0.1364  0.1417  0.2226
  928YOPE   C2B13292  13.934  14.678   6.624 -0.0104  0.0559 -0.1569
  928YOPE   D3B13293  13.873  14.387   6.891 -0.1719  0.1899 -0.1698
  928YOPE   C4B13294  13.550  14.352   7.172 -0.2845  0.1753 -0.0724
  929YOPE   NH313295  19.054   3.280   4.953 -0.2361  0.1130  0.0433
  929YOPE   PO413296  19.079   3.708   5.072  0.1310  0.2247  0.2757
  929YOPE   GL113297  19.369   3.499   5.462  0.1504  0.0639  0.0000
  929YOPE   GL213298  19.655   3.446   5.440 -0.0571 -0.0728 -0.1505
  929YOPE   C1A13299  19.141   3.375   5.895 -0.0765 -0.1986 -0.1090
  929YOPE   D2A13300  18.776   3.554   6.036  0.3581 -0.0322 -0.1383
  929YOPE   C3A13301  18.743   3.452   6.470  0.2731  0.0425 -0.1321
  929YOPE   C4A13302  18.390   3.340   6.740 -0.1199 -0.0202  0.1348
  929YOPE   C1B13303  19.508   3.694   5.836  0.1286 -0.1589 -0.0077
  929YOPE   C2B13304  19.235   3.782   6.236  0.4319 -0.3922  0.1763
  929YOPE   D3B13305  18.928   4.164   6.238 -0.0104 -0.1292 -0.0021
  929YOPE   C4B13306  18.900   4.300   6.624 -0.0768  0.1203  0.0974
  930YOPE   NH313307   4.212   7.647   5.254  0.0579 -0.0893  0.0531
  930YOPE   PO413308   4.538   7.572   5.548 -0.0039 -0.0971  0.0637
  930YOPE   GL113309   4.752   7.403   5.891  0.0258 -0.2030 -0.2698
  930YOPE   GL213310   4.971   7.641   5.944 -0.2541 -0.1599  0.1053
  930YOPE   C1A13311   4.543   7.449   6.361 -0.2102  0.0897 -0.0532
  930YOPE   D2A13312   4.506   7.172   6.727 -0.2357 -0.2674 -0.3341
  930YOPE   C3A13313   4.861   7.064   6.970  0.0900  0.4522  0.0621
  930YOPE   C4A13314   5.254   6.896   7.103  0.0767  0.2052 -0.1187
  930YOPE   C1B13315   5.125   7.274   6.187  0.0034 -0.0934  0.0857
  930YOPE   C2B13316   5.208   6.997   6.607 -0.0525 -0.0218  0.1785
  930YOPE   D3B13317   5.113   6.589   6.766  0.0902 -0.0695  0.1870
  930YOPE   C4B13318   5.238   6.222   6.898  0.0823 -0.1235  0.1665
  931YOPE   NH313319   5.023   2.714   5.480 -0.1230 -0.3539  0.0427
  931YOPE   PO413320   4.672   2.507   5.332  0.1720 -0.3576  0.1168
  931YOPE   GL113321   4.398   2.586   5.530  0.2710  0.2850 -0.4019
  931YOPE   GL213322   4.192   2.711   5.399 -0.3047  0.2865 -0.3517
  931YOPE   C1A13323   4.330   2.485   5.969 -0.0210 -0.2169  0.0950
  931YOPE   D2A13324   4.519   2.247   6.249  0.0633 -0.0842  0.2018
  931YOPE   C3A13325   4.885   2.289   6.401  0.2029  0.3779  0.0047
  931YOPE   C4A13326   4.979   2.312   6.764  0.0705 -0.1530 -0.2185
  931YOPE   C1B13327   3.936   2.654   5.777  0.2770  0.0812  0.1779
  931YOPE   C2B13328   3.874   2.546   6.236 -0.3745 -0.0007 -0.1483
  931YOPE   D3B13329   4.049   2.190   6.543  0.2673 -0.1518 -0.0674
  931YOPE   C4B13330   4.041   1.988   6.963 -0.1274  0.1514  0.0299
  932YOPE   NH313331  17.867   1.336   5.039 -0.1870 -0.1056 -0.1569
  932YOPE   PO413332  18.044   0.930   5.052 -0.0103 -0.0204 -0.0810
  932YOPE   GL113333  18.060   1.002   5.458 -0.2843 -0.0599  0.3125
  932YOPE   GL213334  18.273   1.312   5.324  0.1311 -0.0612  0.3244
  932YOPE   C1A13335  18.087   1.050   5.934 -0.1835  0.0561  0.0065
  932YOPE   D2A13336  17.849   1.461   6.195 -0.0956 -0.1774  0.3368
  932YOPE   C3A13337  17.583   1.782   5.882  0.0092 -0.0472 -0.1398
  932YOPE   C4A13338  17.559   2.218   5.968  0.2110 -0.0893  0.0666
  932YOPE   C1B13339  18.447   1.247   5.673  0.1168 -0.1661 -0.3868
  932YOPE   C2B13340  18.444   1.502   6.058 -0.0660  0.0534  0.1421
  932YOPE   D3B13341  18.705   1.550   6.448  0.1027  0.1462 -0.0285
  932YOPE   C4B13342  18.843   1.930   6.728 -0.1738  0.2457  0.1533
  933YOPE   NH313343   7.145  14.304   5.661 -0.2450  0.1338 -0.2426
  933YOPE   PO413344   7.095  13.855   5.435  0.0285 -0.2514  0.1201
  933YOPE   GL113345   6.785  13.955   5.758 -0.1315 -0.1440  0.2224
  933YOPE   GL213346   7.021  13.911   5.946 -0.0266 -0.3528 -0.0085
  933YOPE   C1A13347   6.542  13.802   6.067  0.0347 -0.0580 -0.0063
  933YOPE   D2A13348   6.439  13.987   6.500  0.0533  0.0811  0.3704
  933YOPE   C3A13349   6.098  13.902   6.678 -0.2542  0.2123 -0.2339
  933YOPE   C4A13350   6.117  13.520   7.033 -0.0620 -0.0879 -0.0681
  933YOPE   C1B13351   6.904  13.782   6.424  0.2217 -0.1648 -0.2612
  933YOPE   C2B13352   7.088  13.749   6.786  0.0766 -0.0945  0.5421
  933YOPE   D3B13353   7.072  13.710   7.163 -0.1926 -0.0758 -0.2889
  933YOPE   C4B13354   6.815  13.562   7.422 -0.1837 -0.1485  0.1838
  934YOPE   NH313355   7.385  12.801   5.624  0.1977  0.0884  0.2162
  934YOPE   PO413356   7.854  12.820   5.692 -0.1236  0.0659  0.1116
  934YOPE   GL113357   8.034  12.783   6.072  0.2859  0.3415  0.1018
  934YOPE   GL213358   8.160  12.518   6.009 -0.2231 -0.3529  0.2963
  934YOPE   C1A13359   8.129  12.911   6.531  0.0191 -0.0512  0.0288
  934YOPE   D2A13360   8.408  12.946   6.855  0.1693 -0.2511 -0.0067
  934YOPE   C3A13361   8.681  12.736   7.086 -0.1524  0.1629  0.0644
  934YOPE   C4A13362   9.120  12.662   7.243 -0.1863  0.0133  0.2308
  934YOPE   C1B13363   8.390  12.528   6.458 -0.1180  0.1828  0.1129
  934YOPE   C2B13364   8.475  12.130   6.762 -0.2289 -0.4038  0.2319
  934YOPE   D3B13365   8.270  11.819   7.028  0.3518  0.4124  0.0557
  934YOPE   C4B13366   8.199  11.477   6.890  0.3105 -0.1421  0.1584
  935YOPE   NH313367  14.824  12.873   5.412 -0.1249  0.0687 -0.2121
  935YOPE   PO413368  15.182  13.113   5.174  0.0977  0.3898 -0.1658
  935YOPE   GL113369  15.238  13.169   5.587 -0.1569 -0.0455 -0.2853
  935YOPE   GL213370  15.136  12.959   5.817  0.0152 -0.1788  0.0729
  935YOPE   C1A13371  15.241  13.446   5.930 -0.0362 -0.1050  0.3958
  935YOPE   D2A13372  15.113  13.559   6.319  0.0798  0.1738 -0.2190
  935YOPE   C3A13373  14.650  13.725   6.490  0.1935  0.1417  0.0110
  935YOPE   C4A13374  14.624  13.715   6.959 -0.0332 -0.0108 -0.1979
  935YOPE   C1B13375  14.901  13.123   6.162 -0.1504  0.0553  0.1594
  935YOPE   C2B13376  14.883  13.220   6.539 -0.2511  0.2653 -0.2645
  935YOPE   D3B13377  14.885  13.219   7.061  0.0070  0.0616  0.1403
  935YOPE   C4B13378  15.172  13.053   7.277 -0.0892  0.1736  0.1158
  936YOPE   NH313379  15.535   6.178   4.616 -0.2981  0.2149 -0.1946
  936YOPE   PO413380  15.794   6.184   4.969  0.3674 -0.0593  0.1846
  936YOPE   GL113381  15.852   6.345   5.418 -0.0559  0.1902 -0.3593
  936YOPE   GL213382  15.768   6.764   5.448  0.0418 -0.3764  0.1483
  936YOPE   C1A13383  15.953   6.493   5.862  0.1339  0.0773 -0.3380
  936YOPE   D2A13384  15.663   6.849   5.918 -0.0598  0.4397 -0.1939
  936YOPE   C3A13385  15.735   7.170   6.162  0.1529  0.1060 -0.0737
  936YOPE   C4A13386  15.619   7.475   6.141  0.2103  0.1343  0.0030
  936YOPE   C1B13387  15.455   7.052   5.520  0.1971  0.2170 -0.0879
  936YOPE   C2B13388  15.385   7.463   5.709 -0.0026 -0.0958 -0.2641
  936YOPE   D3B13389  15.112   7.615   6.041  0.0736  0.4926  0.2573
  936YOPE   C4B13390  14.848   7.950   5.979  0.0907  0.2916 -0.5016
  937YOPE   NH313391  12.532   4.966   5.620 -0.0208 -0.2538  0.4685
  937YOPE   PO413392  12.264   4.619   5.625  0.0102  0.0393  0.0198
  937YOPE   GL113393  12.365   4.811   6.057 -0.2219  0.2500  0.0901
  937YOPE   GL213394  12.662   4.794   6.070 -0.3984 -0.1937  0.2522
  937YOPE   C1A13395  12.203   4.849   6.530  0.1396 -0.1739 -0.0531
  937YOPE   D2A13396  11.989   4.663   6.787 -0.0119  0.1648 -0.0845
  937YOPE   C3A13397  11.883   4.306   6.997  0.0004  0.2847 -0.3753
  937YOPE   C4A13398  11.936   3.875   7.307  0.0470 -0.0924 -0.3608
  937YOPE   C1B13399  12.737   4.761   6.487  0.0010 -0.2470  0.2780
  937YOPE   C2B13400  12.577   4.621   6.841  0.3555  0.2803 -0.0900
  937YOPE   D3B13401  12.231   4.625   7.247  0.0308 -0.2200 -0.0369
  937YOPE   C4B13402  12.264   4.565   7.616 -0.2605 -0.1620 -0.3548
  938YOPE   NH313403  16.401  10.586   5.397 -0.1861  0.2195 -0.1735
  938YOPE   PO413404  16.540  11.029   5.471 -0.0127  0.1730  0.1565
  938YOPE   GL113405  16.805  11.086   5.809  0.0449  0.0060 -0.2548
  938YOPE   GL213406  17.094  11.128   5.740  0.0170  0.1913 -0.1810
  938YOPE   C1A13407  16.840  10.859   6.194 -0.5721  0.5548 -0.0382
  938YOPE   D2A13408  16.999  10.976   6.527 -0.1767 -0.0949 -0.0967
  938YOPE   C3A13409  16.837  11.248   6.831 -0.1315  0.6237 -0.0436
  938YOPE   C4A13410  17.045  11.265   7.220 -0.0154 -0.2311 -0.1698
  938YOPE   C1B13411  17.333  11.121   6.121  0.0055  0.0691  0.2698
  938YOPE   C2B13412  17.535  11.287   6.527 -0.0462  0.0938 -0.0600
  938YOPE   D3B13413  17.382  11.026   6.897 -0.1301 -0.0132 -0.1367
  938YOPE   C4B13414  17.084  10.790   7.124 -0.2392 -0.0046 -0.1035
  939YOPE   NH313415   5.502   8.038   5.306 -0.2365  0.0235 -0.0185
  939YOPE   PO413416   5.880   8.009   5.511 -0.3596 -0.1144  0.2846
  939YOPE   GL113417   5.597   8.054   5.833 -0.0105 -0.0285 -0.0323
  939YOPE   GL213418   5.784   8.030   6.050 -0.2925 -0.2368 -0.0238
  939YOPE   C1A13419   5.230   8.118   6.187  0.3889 -0.2835 -0.0858
  939YOPE   D2A13420   5.197   8.193   6.677  0.2605 -0.0226  0.2990
  939YOPE   C3A13421   5.045   7.875   6.909  0.0886 -0.2008  0.2376
  939YOPE   C4A13422   5.251   7.834   7.363  0.2502  0.1106 -0.0439
  939YOPE   C1B13423   6.080   8.333   6.432 -0.1311 -0.1808 -0.2343
  939YOPE   C2B13424   6.477   8.321   6.426  0.0306 -0.1352 -0.2886
  939YOPE   D3B13425   6.734   8.315   6.809  0.0560  0.0635 -0.0069
  939YOPE   C4B13426   6.796   8.410   7.252  0.1201  0.0368 -0.1426
  940YOPE   NH313427   2.365   8.304   5.199 -0.0569  0.0244  0.3885
  940YOPE   PO413428   2.038   8.504   5.395  0.0606  0.2579  0.2018
  940YOPE   GL113429   1.882   8.178   5.626  0.3730  0.0771  0.1021
  940YOPE   GL213430   1.663   8.009   5.394  0.0351  0.1033  0.0866
  940YOPE   C1A13431   1.729   8.295   6.041 -0.0518  0.1261 -0.0858
  940YOPE   D2A13432   1.927   8.268   6.453  0.0113  0.2489  0.0655
  940YOPE   C3A13433   1.638   8.415   6.808 -0.0286 -0.0998 -0.0839
  940YOPE   C4A13434   1.466   8.747   7.058  0.2526  0.0264 -0.0893
  940YOPE   C1B13435   1.646   7.748   5.747 -0.0617  0.3070  0.3684
  940YOPE   C2B13436   1.572   7.804   6.213  0.0807 -0.0865  0.2332
  940YOPE   D3B13437   1.380   7.642   6.557  0.0311  0.1679 -0.3048
  940YOPE   C4B13438   1.289   7.491   6.873  0.2329 -0.2444 -0.1578
  941POPC   NC313439   9.995   8.434   5.296 -0.1740 -0.2182 -0.1212
  941POPC   PO413440   9.954   8.008   5.078  0.1294  0.1171 -0.1491
  941POPC   GL113441   9.719   8.018   5.601 -0.1324 -0.1324 -0.4066
  941POPC   GL213442  10.087   8.189   5.696  0.1479  0.0232  0.2268
  941POPC   C1A13443   9.595   7.946   6.108  0.1793 -0.2718 -0.0602
  941POPC   D2A13444   9.166   8.126   6.416  0.1565 -0.2576  0.0290
  941POPC   C3A13445   8.681   8.055   6.329  0.1128 -0.0532  0.1382
  941POPC   C4A13446   8.347   7.859   6.147 -0.1038  0.2456  0.0884
  941POPC   C1B13447  10.363   8.336   6.003  0.1423  0.2294 -0.2537
  941POPC   C2B13448  10.449   8.169   6.528 -0.1812 -0.0903 -0.0368
  941POPC   C3B13449  10.594   8.356   6.955 -0.3302 -0.1293 -0.2497
  941POPC   C4B13450  10.797   8.425   7.354 -0.2822 -0.0017  0.0751
  942POPC   NC313451  17.041   3.165   4.745 -0.1191 -0.0745  0.0471
  942POPC   PO413452  17.385   3.049   4.905 -0.1105  0.3651 -0.2587
  942POPC   GL113453  17.278   2.823   5.231 -0.0650 -0.2412 -0.1434
  942POPC   GL213454  16.919   2.807   5.123 -0.1429 -0.0060 -0.1088
  942POPC   C1A13455  17.356   2.428   5.457 -0.1424  0.0014  0.1048
  942POPC   D2A13456  17.477   2.664   5.850  0.3234  0.2434  0.0658
  942POPC   C3A13457  17.445   2.719   6.254 -0.1954  0.0938 -0.1942
  942POPC   C4A13458  17.378   2.815   6.633  0.1892  0.0279 -0.1742
  942POPC   C1B13459  16.681   2.973   5.525 -0.1923 -0.1335  0.2470
  942POPC   C2B13460  16.465   2.788   5.761  0.4885 -0.2089 -0.1487
  942POPC   C3B13461  16.592   2.809   6.217  0.0380  0.2560 -0.1371
  942POPC   C4B13462  16.540   2.981   6.496 -0.0649 -0.2478  0.0191
  943POPC   NC313463  11.798   0.064   5.453 -0.0220 -0.0198 -0.0405
  943POPC   PO413464  12.182  -0.035   5.483 -0.2687  0.1171 -0.1375
  943POPC   GL113465  12.164   0.071   5.822  0.1277  0.2212  0.1498
  943POPC   GL213466  12.391  -0.074   5.972  0.0133 -0.3386  0.2244
  943POPC   C1A13467  12.534   0.379   6.073 -0.1068 -0.0039  0.2093
  943POPC   D2A13468  12.615   0.684   6.280  0.0923 -0.1527 -0.2546
  943POPC   C3A13469  12.636   0.678   6.693 -0.1708 -0.3264  0.1575
  943POPC   C4A13470  12.876   0.439   6.900 -0.1931 -0.0211  0.0313
  943POPC   C1B13471  12.167  -0.408   6.114 -0.2977 -0.0599 -0.4632
  943POPC   C2B13472  11.776  -0.736   6.158 -0.1287  0.2024  0.2123
  943POPC   C3B13473  11.651  -1.147   6.235  0.3676  0.0669  0.0333
  943POPC   C4B13474  11.916  -1.531   6.441 -0.2312 -0.1248  0.1325
  944POPC   NC313475   6.638   2.770   4.962 -0.0115 -0.1890  0.2903
  944POPC   PO413476   6.280   2.481   5.183 -0.2645 -0.0454 -0.0635
  944POPC   GL113477   6.305   2.247   5.568 -0.4023 -0.0151  0.0722
  944POPC   GL213478   6.107   2.375   5.739  0.3196  0.0230 -0.2106
  944POPC   C1A13479   6.638   2.388   5.833 -0.2648 -0.2854  0.1843
  944POPC   D2A13480   6.863   2.260   6.232  0.0328 -0.0514  0.3967
  944POPC   C3A13481   6.703   2.360   6.593 -0.0998 -0.2046 -0.1609
  944POPC   C4A13482   6.493   2.519   6.766  0.0679 -0.0342 -0.1152
  944POPC   C1B13483   6.101   2.320   6.115 -0.1711 -0.3703  0.1329
  944POPC   C2B13484   5.994   2.508   6.481 -0.1918  0.2064  0.1311
  944POPC   C3B13485   5.953   2.633   6.953  0.1137  0.2294 -0.0007
  944POPC   C4B13486   6.070   2.956   7.292 -0.3124 -0.0141 -0.1477
  945POPC   NC313487  16.788   8.515   5.315  0.1010  0.3935  0.4312
  945POPC   PO413488  16.387   8.336   5.245  0.0681 -0.1389  0.0570
  945POPC   GL113489  16.247   8.516   5.613  0.4050 -0.0622  0.2456
  945POPC   GL213490  16.578   8.481   5.790 -0.2694 -0.1210  0.0572
  945POPC   C1A13491  16.066   8.292   5.931 -0.3273 -0.3831  0.1630
  945POPC   D2A13492  16.044   8.146   6.318  0.0626  0.1735 -0.1366
  945POPC   C3A13493  15.773   7.894   6.434  0.0148 -0.2547  0.2596
  945POPC   C4A13494  15.729   7.756   6.877  0.1981  0.1311 -0.2947
  945POPC   C1B13495  16.548   8.344   6.208 -0.2490 -0.3275 -0.3091
  945POPC   C2B13496  16.430   8.150   6.668  0.0422  0.0114  0.1075
  945POPC   C3B13497  16.517   8.194   6.988  0.1826  0.2095 -0.2494
  945POPC   C4B13498  16.240   7.998   7.461  0.0498  0.0350  0.2208
  946POPC   NC313499   1.095  15.412   5.029 -0.0963  0.0547 -0.1993
  946POPC   PO413500   1.576  15.276   5.045  0.0133 -0.2978 -0.1446
  946POPC   GL113501   1.461  15.093   5.404 -0.0751 -0.2991  0.1471
  946POPC   GL213502   1.392  14.705   5.449  0.0313 -0.0684  0.1480
  946POPC   C1A13503   1.652  15.091   5.841  0.0392  0.0313  0.2541
  946POPC   D2A13504   1.759  15.043   6.348  0.1877  0.2189  0.2645
  946POPC   C3A13505   1.551  15.291   6.652  0.2296  0.1398 -0.2263
  946POPC   C4A13506   1.355  15.605   6.952 -0.0875 -0.0778 -0.0022
  946POPC   C1B13507   1.168  15.013   5.793 -0.0111 -0.0832 -0.2474
  946POPC   C2B13508   1.316  15.339   6.142 -0.0709 -0.0605 -0.0795
  946POPC   C3B13509   1.137  15.598   6.519  0.0577  0.4065  0.6087
  946POPC   C4B13510   0.965  15.876   6.827  0.2260  0.2386  0.2019
  947POPC   NC313511  14.938  14.984   5.054  0.0745  0.2760  0.0413
  947POPC   PO413512  15.348  15.162   5.284  0.0462  0.1742  0.0989
  947POPC   GL113513  15.370  15.407   5.631  0.2113  0.1532 -0.2717
  947POPC   GL213514  15.222  15.759   5.798 -0.2077  0.2107 -0.0314
  947POPC   C1A13515  15.308  15.331   6.071  0.0084  0.1066 -0.0374
  947POPC   D2A13516  15.318  15.641   6.352 -0.0008  0.2654 -0.1484
  947POPC   C3A13517  15.313  15.686   6.762 -0.1041 -0.1421 -0.1535
  947POPC   C4A13518  15.423  15.427   7.043 -0.1035  0.0579  0.1529
  947POPC   C1B13519  15.485  16.084   5.933  0.0600  0.0344  0.0872
  947POPC   C2B13520  15.644  16.083   6.414  0.3636  0.0979 -0.0518
  947POPC   C3B13521  15.559  16.078   6.880 -0.1350 -0.2184  0.1776
  947POPC   C4B13522  15.165  16.179   7.101 -0.1057 -0.2638  0.1152
  948POPC   NC313523   1.677   9.868   4.947  0.3625 -0.3389 -0.1716
  948POPC   PO413524   2.006   9.986   5.188 -0.0219 -0.1881  0.4475
  948POPC   GL113525   2.063   9.974   5.736 -0.1304 -0.1958 -0.3143
  948POPC   GL213526   2.113   9.644   5.907  0.0155 -0.4576 -0.0173
  948POPC   C1A13527   2.201  10.245   6.009  0.0392  0.1403 -0.0408
  948POPC   D2A13528   2.572  10.632   6.079  0.0770 -0.2347  0.1840
  948POPC   C3A13529   2.685  10.830   6.467 -0.0817 -0.1403  0.0288
  948POPC   C4A13530   2.573  10.628   6.882  0.2864  0.0700  0.1689
  948POPC   C1B13531   2.193   9.790   6.291 -0.0552 -0.0638  0.0621
  948POPC   C2B13532   2.501   9.619   6.605 -0.0705 -0.0770 -0.1621
  948POPC   C3B13533   2.846   9.794   6.683  0.0719  0.2376 -0.2518
  948POPC   C4B13534   3.268   9.632   6.686  0.2905  0.0550  0.0601
  949POPC   NC313535   0.495   2.712   4.906  0.1317  0.0775 -0.3073
  949POPC   PO413536   0.948   2.762   5.108 -0.4646  0.0297  0.0468
  949POPC   GL113537   1.200   2.558   5.344  0.1077 -0.0979 -0.1732
  949POPC   GL213538   1.189   2.260   5.319  0.1077  0.1839  0.0335
  949POPC   C1A13539   1.186   2.582   5.827  0.0175  0.3224 -0.0300
  949POPC   D2A13540   1.079   2.739   6.222  0.0890 -0.1720 -0.0250
  949POPC   C3A13541   1.335   2.835   6.550 -0.0742 -0.6379 -0.3206
  949POPC   C4A13542   1.383   3.020   6.951 -0.0527  0.2194  0.1042
  949POPC   C1B13543   1.406   2.146   5.723 -0.0933  0.0611 -0.1900
  949POPC   C2B13544   1.217   2.043   6.119  0.2347 -0.0103  0.2365
  949POPC   C3B13545   1.533   1.989   6.433  0.0595  0.0696  0.0643
  949POPC   C4B13546   1.840   2.067   6.891  0.1412 -0.1076  0.2642
  950POPC   NC313547   8.226  13.822   5.190 -0.0859 -0.3574 -0.0416
  950POPC   PO413548   8.066  14.189   5.563  0.0753  0.1695  0.0708
  950POPC   GL113549   7.940  14.473   5.903  0.2922 -0.4271 -0.0101
  950POPC   GL213550   8.031  14.814   6.001 -0.2381  0.2849 -0.1366
  950POPC   C1A13551   8.121  14.474   6.301 -0.0205 -0.0790  0.2413
  950POPC   D2A13552   8.159  14.600   6.801 -0.2140  0.1415 -0.1018
  950POPC   C3A13553   7.932  14.830   7.007  0.1160 -0.1872 -0.3527
  950POPC   C4A13554   7.522  14.956   7.110 -0.0899 -0.2498  0.1189
  950POPC   C1B13555   7.917  14.943   6.462 -0.0374  0.0024  0.0244
  950POPC   C2B13556   7.680  15.154   6.644 -0.0456 -0.1294  0.1235
  950POPC   C3B13557   7.430  15.350   6.831 -0.2040 -0.2819  0.1796
  950POPC   C4B13558   7.463  15.437   7.293  0.0238 -0.1876  0.0066
  951POPC   NC313559  13.397  16.106   4.583  0.1771 -0.1475 -0.1785
  951POPC   PO413560  13.191  16.175   5.046  0.0079  0.1790 -0.1367
  951POPC   GL113561  13.330  16.026   5.455  0.1609 -0.3110 -0.0996
  951POPC   GL213562  13.270  16.259   5.743  0.2407 -0.3374  0.0042
  951POPC   C1A13563  13.439  15.760   5.826 -0.1052  0.0398  0.0883
  951POPC   D2A13564  13.530  15.650   6.226  0.4330  0.1114 -0.0050
  951POPC   C3A13565  13.889  15.578   6.313  0.0811 -0.2162  0.0992
  951POPC   C4A13566  14.157  15.507   6.623 -0.1800  0.2916  0.1927
  951POPC   C1B13567  13.567  16.139   6.055  0.2157 -0.1593 -0.0139
  951POPC   C2B13568  13.701  16.062   6.483 -0.1210  0.0205 -0.2482
  951POPC   C3B13569  13.743  15.747   6.814 -0.0993 -0.2294  0.0171
  951POPC   C4B13570  13.702  15.760   7.197 -0.0241 -0.1473  0.0338
  952POPC   NC313571   1.297  14.077   4.956  0.1005 -0.0652 -0.2612
  952POPC   PO413572   1.641  14.358   5.073 -0.1145 -0.0228  0.2537
  952POPC   GL113573   1.873  14.349   5.440  0.4023  0.1578 -0.0009
  952POPC   GL213574   2.209  14.333   5.532  0.1467  0.5145 -0.2708
  952POPC   C1A13575   1.856  14.692   5.666  0.0593 -0.0623 -0.0949
  952POPC   D2A13576   2.054  14.751   6.020  0.0186 -0.0864 -0.0766
  952POPC   C3A13577   2.447  14.487   5.973  0.1654  0.1513 -0.3533
  952POPC   C4A13578   2.487  14.045   5.925  0.3150  0.0050 -0.0231
  952POPC   C1B13579   1.985  14.197   5.871 -0.1151  0.1539 -0.1300
  952POPC   C2B13580   1.925  14.386   6.318 -0.0078 -0.0452  0.1399
  952POPC   C3B13581   1.798  14.362   6.650 -0.0367  0.0452  0.0012
  952POPC   C4B13582   1.630  14.348   7.088  0.2725  0.0961 -0.0278
  953POPC   NC313583  12.750   1.813   4.959  0.1731  0.5280 -0.1777
  953POPC   PO413584  12.669   1.350   5.120 -0.0301 -0.0047  0.0438
  953POPC   GL113585  12.537   1.246   5.525  0.0556  0.4501 -0.2974
  953POPC   GL213586  12.661   1.576   5.717  0.0211 -0.3450 -0.0200
  953POPC   C1A13587  12.525   1.189   6.039 -0.2159 -0.0243 -0.0589
  953POPC   D2A13588  12.555   1.199   6.466  0.1753 -0.1223 -0.1324
  953POPC   C3A13589  12.765   1.297   6.758  0.3090  0.0680 -0.1499
  953POPC   C4A13590  12.543   1.418   7.171 -0.2003 -0.0187  0.1015
  953POPC   C1B13591  13.047   1.407   5.934 -0.1293  0.1184  0.1526
  953POPC   C2B13592  13.133   1.229   6.416 -0.1190  0.0803  0.1316
  953POPC   C3B13593  13.075   0.882   6.690  0.0138 -0.3109 -0.2436
  953POPC   C4B13594  13.234   1.040   7.092 -0.0744  0.2186  0.0323
  954POPC   NC313595  17.416  18.315   4.341  0.0832 -0.1864  0.1657
  954POPC   PO413596  17.690  18.091   4.625  0.0072  0.2501  0.1150
  954POPC   GL113597  17.787  17.947   5.020 -0.2629  0.5328  0.1794
  954POPC   GL213598  17.630  18.028   5.297  0.0038  0.3208  0.2121
  954POPC   C1A13599  17.967  17.747   5.539  0.1405 -0.2191 -0.0347
  954POPC   D2A13600  18.365  17.801   5.774  0.1286  0.0054  0.3535
  954POPC   C3A13601  18.434  17.778   6.133 -0.1523  0.1005 -0.2410
  954POPC   C4A13602  18.448  17.557   6.598 -0.2989 -0.2502  0.3360
  954POPC   C1B13603  17.591  18.004   5.745 -0.4053  0.1783  0.0343
  954POPC   C2B13604  17.452  17.885   6.222 -0.1802  0.0946  0.0057
  954POPC   C3B13605  17.306  17.999   6.656 -0.1285  0.0820 -0.2825
  954POPC   C4B13606  17.022  17.641   6.732 -0.5766  0.1883  0.1560
  955POPC   NC313607   2.043   3.499   4.740  0.2129 -0.0744 -0.1792
  955POPC   PO413608   2.239   3.316   5.109  0.0269 -0.1403  0.4378
  955POPC   GL113609   2.230   3.289   5.591 -0.2423 -0.2873  0.2180
  955POPC   GL213610   2.026   3.449   5.688  0.1342  0.0982 -0.0375
  955POPC   C1A13611   2.398   3.560   6.030  0.2297  0.0542  0.0689
  955POPC   D2A13612   2.687   3.450   6.300  0.0649 -0.3926 -0.2157
  955POPC   C3A13613   2.990   3.756   6.470 -0.0750 -0.1165 -0.1573
  955POPC   C4A13614   3.337   4.038   6.435 -0.0376 -0.2997  0.0177
  955POPC   C1B13615   1.924   3.650   5.995  0.2812  0.2448  0.3558
  955POPC   C2B13616   2.011   3.531   6.410  0.0560  0.0308  0.0058
  955POPC   C3B13617   1.905   3.567   6.751 -0.2772  0.2148  0.2134
  955POPC   C4B13618   1.716   3.410   7.142 -0.0382  0.0485 -0.0932
  956POPC   NC313619   1.028   3.269   5.035  0.0202 -0.0505  0.0486
  956POPC   PO413620   1.216   3.598   5.269 -0.2231  0.1996 -0.1095
  956POPC   GL113621   0.879   3.412   5.539 -0.4613  0.3173  0.1599
  956POPC   GL213622   0.661   3.669   5.772 -0.2306 -0.0989  0.2701
  956POPC   C1A13623   0.504   3.209   5.788 -0.0137  0.1644 -0.0481
  956POPC   D2A13624   0.320   3.194   6.205  0.2095 -0.1315 -0.1041
  956POPC   C3A13625  -0.098   3.206   6.410 -0.1515 -0.4510 -0.3087
  956POPC   C4A13626  -0.463   3.042   6.672 -0.0880 -0.2060  0.2536
  956POPC   C1B13627   1.007   3.610   6.101  0.0476  0.0098 -0.0714
  956POPC   C2B13628   0.928   3.863   6.486 -0.0793  0.1021  0.1389
  956POPC   C3B13629   0.758   4.292   6.702  0.1253 -0.0396 -0.2455
  956POPC   C4B13630   0.470   4.620   6.717 -0.1435 -0.2559  0.0480
  957POPC   NC313631   8.168   1.486   5.631  0.0289  0.1272  0.4535
  957POPC   PO413632   8.388   1.866   5.670  0.0405 -0.1692 -0.1300
  957POPC   GL113633   8.258   1.599   6.116 -0.2366  0.2548  0.2873
  957POPC   GL213634   8.402   1.663   6.425  0.1932 -0.3321  0.2767
  957POPC   C1A13635   7.937   1.659   6.407  0.3010 -0.4215 -0.1472
  957POPC   D2A13636   7.663   1.657   6.738 -0.0385 -0.1994  0.2249
  957POPC   C3A13637   7.616   1.834   7.042  0.3249  0.0212  0.2982
  957POPC   C4A13638   7.600   2.224   7.137 -0.0975  0.0820  0.1094
  957POPC   C1B13639   8.149   1.896   6.790  0.2868 -0.0111 -0.4135
  957POPC   C2B13640   8.137   2.251   7.063  0.0894 -0.4488  0.1224
  957POPC   C3B13641   8.201   2.400   7.493  0.2109 -0.1942 -0.4067
  957POPC   C4B13642   8.042   2.260   7.796  0.1800 -0.2606  0.0920
  958POPC   NC313643  12.084   9.429   4.962  0.2813 -0.2636 -0.0053
  958POPC   PO413644  12.464   9.645   4.805  0.1550 -0.0595 -0.4454
  958POPC   GL113645  12.594   9.772   5.205 -0.1277 -0.1345  0.4149
  958POPC   GL213646  12.982   9.891   5.296  0.2183 -0.0399 -0.0115
  958POPC   C1A13647  12.803   9.430   5.490  0.0408 -0.0704  0.1498
  958POPC   D2A13648  12.490   9.240   5.697 -0.0102  0.1376 -0.1177
  958POPC   C3A13649  12.477   8.832   5.846 -0.1968  0.0206  0.2975
  958POPC   C4A13650  12.441   8.457   5.915  0.0195 -0.1132 -0.0404
  958POPC   C1B13651  12.820   9.894   5.715  0.0709 -0.0517  0.1313
  958POPC   C2B13652  13.008   9.476   5.941 -0.1320  0.2091 -0.0169
  958POPC   C3B13653  12.822   9.141   6.121 -0.0794  0.2703 -0.2541
  958POPC   C4B13654  12.484   9.112   6.325 -0.0705  0.1553 -0.2746
  959POPC   NC313655  13.626  12.593   4.986 -0.2080  0.3324 -0.1338
  959POPC   PO413656  13.578  12.754   5.406 -0.0379  0.2765 -0.1464
  959POPC   GL113657  13.704  12.324   5.537  0.1199  0.1183  0.2709
  959POPC   GL213658  14.078  12.199   5.690  0.0275 -0.2112 -0.0141
  959POPC   C1A13659  13.578  11.919   5.856 -0.1074 -0.1297  0.1370
  959POPC   D2A13660  13.604  11.617   6.181  0.0027 -0.0202  0.1656
  959POPC   C3A13661  13.350  11.327   6.066 -0.0759 -0.2875 -0.2628
  959POPC   C4A13662  13.200  11.016   5.762  0.0911  0.1256 -0.0363
  959POPC   C1B13663  13.983  12.060   6.147 -0.0457 -0.0186  0.0743
  959POPC   C2B13664  13.624  12.079   6.368  0.0029 -0.3358 -0.3757
  959POPC   C3B13665  13.430  12.117   6.765 -0.1497  0.3448 -0.1812
  959POPC   C4B13666  13.440  12.506   6.932 -0.0022 -0.2210 -0.0533
  960POPC   NC313667  14.321  19.327   5.268 -0.0100 -0.0929 -0.1489
  960POPC   PO413668  14.219  18.918   5.451  0.3713  0.2639  0.0779
  960POPC   GL113669  14.412  19.228   5.793  0.2659 -0.0105  0.2833
  960POPC   GL213670  14.285  19.551   5.712  0.3625  0.4137  0.3439
  960POPC   C1A13671  14.441  19.251   6.201  0.0530 -0.3457 -0.0495
  960POPC   D2A13672  14.260  19.182   6.627 -0.1626 -0.1821  0.1410
  960POPC   C3A13673  14.394  18.829   6.977  0.2992  0.2354 -0.1053
  960POPC   C4A13674  14.452  18.382   7.122  0.0561  0.2172  0.1681
  960POPC   C1B13675  14.552  19.740   6.006  0.1322  0.2499 -0.0410
  960POPC   C2B13676  14.489  19.683   6.508  0.0190 -0.0706  0.1634
  960POPC   C3B13677  14.644  19.850   6.889 -0.0094  0.0179 -0.1699
  960POPC   C4B13678  15.029  20.028   6.926  0.1069  0.1842  0.3714
  961POPC   NC313679   5.268  12.023   5.592  0.0377  0.0093 -0.1315
  961POPC   PO413680   5.270  11.496   5.769 -0.0605 -0.2324  0.2447
  961POPC   GL113681   5.263  11.809   6.195 -0.1225  0.2885  0.4396
  961POPC   GL213682   5.154  12.072   6.078 -0.3270 -0.2851  0.3104
  961POPC   C1A13683   5.126  11.790   6.579  0.0041 -0.1352  0.0457
  961POPC   D2A13684   5.159  11.875   6.943 -0.2353  0.1033 -0.5021
  961POPC   C3A13685   4.985  11.978   7.438 -0.0119  0.2501 -0.0505
  961POPC   C4A13686   4.970  12.035   7.873 -0.2829  0.1884  0.0882
  961POPC   C1B13687   4.938  12.254   6.331 -0.0356  0.0038  0.2353
  961POPC   C2B13688   4.882  12.210   6.728  0.1011  0.0690  0.1572
  961POPC   C3B13689   4.966  12.446   6.937 -0.0657 -0.2110  0.0032
  961POPC   C4B13690   4.987  12.572   7.304  0.0095 -0.1395  0.4217
  962POPC   NC313691  14.409  16.786   5.435 -0.0871 -0.0456  0.0180
  962POPC   PO413692  14.844  17.064   5.495 -0.0324 -0.0635 -0.1923
  962POPC   GL113693  14.805  16.760   5.777  0.2285  0.2216  0.2688
  962POPC   GL213694  15.148  16.665   5.913 -0.1177 -0.3058 -0.2088
  962POPC   C1A13695  14.689  16.655   6.124 -0.1117 -0.3360 -0.0262
  962POPC   D2A13696  14.703  16.483   6.386  0.0081 -0.0059 -0.2646
  962POPC   C3A13697  14.814  16.581   6.719 -0.0564  0.0112  0.0886
  962POPC   C4A13698  14.937  16.710   7.183 -0.1636 -0.0161  0.1862
  962POPC   C1B13699  15.185  16.525   6.259  0.3742  0.2005 -0.1586
  962POPC   C2B13700  15.257  16.417   6.626 -0.1158  0.2139 -0.0604
  962POPC   C3B13701  15.440  16.610   7.039  0.1750  0.4276 -0.0154
  962POPC   C4B13702  15.511  16.503   7.436 -0.0536  0.3878 -0.3413
  963POPC   NC313703   3.740  11.549   5.132 -0.3380 -0.0514  0.1989
  963POPC   PO413704   3.830  11.593   5.561  0.0569  0.1002 -0.1554
  963POPC   GL113705   3.884  11.967   5.814  0.0057 -0.0838 -0.1489
  963POPC   GL213706   4.198  11.974   6.086 -0.0748  0.0423  0.0585
  963POPC   C1A13707   3.604  12.029   6.227  0.2726  0.1270 -0.3304
  963POPC   D2A13708   3.613  12.169   6.645  0.2847 -0.0378 -0.3068
  963POPC   C3A13709   3.633  11.797   6.990 -0.1198 -0.1221 -0.0710
  963POPC   C4A13710   3.867  11.743   7.470 -0.3064 -0.3664 -0.0052
  963POPC   C1B13711   4.004  11.909   6.468  0.1864 -0.2296 -0.1788
  963POPC   C2B13712   3.924  11.477   6.677 -0.1481 -0.4007  0.0356
  963POPC   C3B13713   3.821  11.368   7.077  0.1888  0.0585 -0.1032
  963POPC   C4B13714   3.462  11.305   7.445  0.0437  0.4701  0.1888
  964POPC   NC313715   0.172  13.120   4.990 -0.2936 -0.1293  0.0081
  964POPC   PO413716  -0.190  13.301   5.150 -0.2180 -0.0575  0.0294
  964POPC   GL113717  -0.395  13.505   5.534 -0.4954 -0.3552 -0.3255
  964POPC   GL213718  -0.497  13.221   5.618 -0.3761  0.0101  0.0689
  964POPC   C1A13719  -0.567  13.715   5.882  0.0961  0.1414 -0.2947
  964POPC   D2A13720  -0.538  14.081   6.102  0.1520  0.0134 -0.0706
  964POPC   C3A13721  -0.742  14.074   6.450 -0.2153  0.0060  0.1019
  964POPC   C4A13722  -0.626  13.960   6.875 -0.2061  0.0890 -0.0294
  964POPC   C1B13723  -0.716  13.267   5.994 -0.3752 -0.0066  0.0186
  964POPC   C2B13724  -0.850  12.984   6.304  0.1008 -0.2733 -0.3240
  964POPC   C3B13725  -1.243  12.795   6.463 -0.0796  0.3806  0.1233
  964POPC   C4B13726  -1.472  12.507   6.825  0.0422  0.1546 -0.1080
  965POPC   NC313727  14.867  18.821   4.831  0.0145  0.1395 -0.0728
  965POPC   PO413728  14.690  18.851   5.249  0.0789  0.1473 -0.0098
  965POPC   GL113729  14.815  18.877   5.555 -0.0548 -0.1762  0.0386
  965POPC   GL213730  15.086  18.823   5.705 -0.2687  0.2319 -0.1135
  965POPC   C1A13731  14.725  18.761   6.011 -0.1258  0.1724 -0.2851
  965POPC   D2A13732  14.662  18.878   6.527 -0.0979 -0.1597 -0.3231
  965POPC   C3A13733  15.090  19.096   6.680  0.1687 -0.4471  0.0289
  965POPC   C4A13734  15.404  19.046   7.102 -0.2060 -0.0110  0.0133
  965POPC   C1B13735  15.049  19.261   5.968  0.0278  0.0504 -0.1936
  965POPC   C2B13736  14.968  19.457   6.299  0.1062  0.0215 -0.2434
  965POPC   C3B13737  14.987  19.946   6.390  0.1516  0.0263 -0.0815
  965POPC   C4B13738  14.904  20.395   6.588  0.2363 -0.0495  0.0748
  966POPC   NC313739  17.833   3.273   4.736 -0.1548  0.0827 -0.3540
  966POPC   PO413740  18.180   2.964   4.681  0.0342  0.1021 -0.0040
  966POPC   GL113741  18.107   2.931   5.108  0.2652  0.4938 -0.0762
  966POPC   GL213742  17.909   3.280   5.199 -0.1979  0.0928 -0.1771
  966POPC   C1A13743  18.111   2.856   5.502 -0.2721 -0.0595  0.0345
  966POPC   D2A13744  17.844   2.608   5.473 -0.1174 -0.0418  0.2814
  966POPC   C3A13745  17.916   2.073   5.580 -0.1159  0.3983 -0.1946
  966POPC   C4A13746  18.233   1.694   5.604  0.1795 -0.0974 -0.1425
  966POPC   C1B13747  17.571   3.034   5.518  0.0212  0.0932  0.1392
  966POPC   C2B13748  17.128   3.053   5.674 -0.2680  0.2293 -0.2496
  966POPC   C3B13749  16.798   3.142   5.968 -0.2227  0.0336  0.2204
  966POPC   C4B13750  17.070   3.063   6.250  0.0134  0.1413  0.0581
  967POPC   NC313751   1.655   5.330   4.817 -0.2154  0.0413  0.0872
  967POPC   PO413752   1.727   5.416   5.255  0.0902 -0.1343  0.0742
  967POPC   GL113753   1.644   5.442   5.611  0.0554 -0.1191  0.3257
  967POPC   GL213754   1.280   5.336   5.589  0.4858 -0.1092 -0.1763
  967POPC   C1A13755   1.607   5.374   6.072 -0.0776 -0.0214 -0.0043
  967POPC   D2A13756   1.601   5.269   6.532 -0.3466 -0.3267  0.1582
  967POPC   C3A13757   1.729   5.599   6.785 -0.5003 -0.1785  0.1031
  967POPC   C4A13758   1.960   5.910   6.802 -0.1267  0.2040  0.2692
  967POPC   C1B13759   1.227   4.991   5.846  0.0162 -0.2077  0.2293
  967POPC   C2B13760   1.210   4.543   6.123 -0.2685 -0.1663 -0.0852
  967POPC   C3B13761   1.206   4.322   6.414 -0.3371  0.1383 -0.0028
  967POPC   C4B13762   1.420   4.426   6.808  0.4856  0.3020  0.3683
  968POPC   NC313763   3.285   8.769   4.370  0.2194 -0.0333 -0.3046
  968POPC   PO413764   3.442   8.503   4.781 -0.3060 -0.1678 -0.1861
  968POPC   GL113765   3.544   8.699   5.194 -0.2838 -0.2143  0.1802
  968POPC   GL213766   3.426   8.374   5.348  0.1815  0.0198  0.2238
  968POPC   C1A13767   3.713   8.911   5.534  0.1556 -0.4911  0.2748
  968POPC   D2A13768   3.815   8.879   5.964 -0.0356  0.0433 -0.0540
  968POPC   C3A13769   3.634   8.651   6.263 -0.0696 -0.1911  0.1353
  968POPC   C4A13770   3.424   8.454   6.640  0.1835 -0.0232  0.3068
  968POPC   C1B13771   3.045   8.261   5.618  0.1108 -0.1282  0.4074
  968POPC   C2B13772   2.764   8.253   5.995 -0.2126 -0.0154  0.2705
  968POPC   C3B13773   2.646   7.966   6.272  0.1923  0.0759 -0.2206
  968POPC   C4B13774   2.643   8.031   6.698  0.1052 -0.3136  0.2837
  969POPC   NC313775   0.192   0.090   5.190  0.2606  0.1068  0.3686
  969POPC   PO413776   0.302  -0.347   5.247  0.0997  0.1045 -0.1384
  969POPC   GL113777   0.365  -0.253   5.686 -0.0495 -0.3583  0.2412
  969POPC   GL213778  -0.029  -0.300   5.843 -0.1274 -0.0415 -0.0188
  969POPC   C1A13779   0.409  -0.627   5.983  0.2087 -0.1245  0.2738
  969POPC   D2A13780   0.148  -0.867   6.242 -0.1823 -0.2627 -0.0015
  969POPC   C3A13781   0.174  -1.016   6.634  0.3679  0.0653 -0.1029
  969POPC   C4A13782   0.344  -0.920   7.064 -0.2705  0.1058 -0.1366
  969POPC   C1B13783  -0.162  -0.413   6.198 -0.1617  0.2259 -0.0148
  969POPC   C2B13784  -0.395  -0.233   6.631  0.0101  0.1108  0.0618
  969POPC   C3B13785  -0.312  -0.351   7.192  0.1735  0.1789 -0.0246
  969POPC   C4B13786  -0.129  -0.226   7.500 -0.2076 -0.3510  0.0529
  970POPC   NC313787   9.962  13.128   5.080 -0.0978  0.3071 -0.3150
  970POPC   PO413788  10.415  13.235   5.037  0.0590 -0.1926  0.0654
  970POPC   GL113789  10.479  13.016   5.388  0.2350 -0.1698  0.0780
  970POPC   GL213790  10.700  12.856   5.399 -0.4287 -0.0100 -0.2144
  970POPC   C1A13791  10.455  12.943   5.961 -0.2532  0.1680 -0.0432
  970POPC   D2A13792  10.297  13.369   6.306 -0.2870 -0.0429 -0.3729
  970POPC   C3A13793  10.650  13.599   6.662 -0.5003 -0.0432  0.0665
  970POPC   C4A13794  10.848  13.347   6.988  0.0847 -0.0615 -0.1481
  970POPC   C1B13795  10.701  12.591   5.725  0.1773 -0.3478 -0.1587
  970POPC   C2B13796  10.415  12.442   6.050  0.0043 -0.0705  0.3219
  970POPC   C3B13797  10.584  12.204   6.431  0.0894  0.0465 -0.0914
  970POPC   C4B13798  10.898  11.801   6.674  0.1611 -0.0947 -0.1144
  971POPC   NC313799  16.183   7.342   4.803  0.0604  0.0272 -0.0918
  971POPC   PO413800  16.285   6.978   4.927 -0.1347 -0.0540  0.2926
  971POPC   GL113801  16.308   7.088   5.352 -0.0490  0.4664 -0.1777
  971POPC   GL213802  16.624   7.023   5.490 -0.0005 -0.1260  0.0243
  971POPC   C1A13803  16.225   6.984   5.790 -0.0991  0.1718  0.2004
  971POPC   D2A13804  16.196   6.888   6.253 -0.1024  0.0698 -0.1826
  971POPC   C3A13805  15.990   6.962   6.612  0.2231  0.0284 -0.0100
  971POPC   C4A13806  15.778   6.652   6.852  0.0094 -0.0188  0.2004
  971POPC   C1B13807  16.731   7.029   5.909 -0.1293  0.2127 -0.2382
  971POPC   C2B13808  16.625   7.146   6.253 -0.1924  0.3264  0.2945
  971POPC   C3B13809  16.538   7.126   6.716 -0.0296 -0.2591 -0.2126
  971POPC   C4B13810  16.777   6.865   6.955 -0.0813  0.4104 -0.1349
  972POPC   NC313811   2.924   6.983   4.936  0.1029 -0.3464 -0.1010
  972POPC   PO413812   3.245   7.068   5.119  0.1931  0.0015  0.0242
  972POPC   GL113813   3.064   6.979   5.469  0.1290 -0.0872 -0.3550
  972POPC   GL213814   2.801   6.889   5.471 -0.0448  0.1681 -0.0023
  972POPC   C1A13815   3.061   6.828   5.928 -0.2461 -0.0375  0.2902
  972POPC   D2A13816   3.253   6.777   6.364  0.1419 -0.0212 -0.1823
  972POPC   C3A13817   2.967   6.566   6.708  0.1570  0.0816 -0.0833
  972POPC   C4A13818   2.654   6.715   6.807 -0.1874 -0.0761 -0.1356
  972POPC   C1B13819   2.538   6.699   5.840 -0.0300 -0.2098  0.1492
  972POPC   C2B13820   2.683   6.804   6.299 -0.3988  0.3012  0.3057
  972POPC   C3B13821   2.910   7.103   6.538  0.2217 -0.0214 -0.1497
  972POPC   C4B13822   3.095   7.155   6.810 -0.1154 -0.0900 -0.1720
  973POPC   NC313823   8.075   9.812   4.830  0.0208  0.2272  0.0044
  973POPC   PO413824   7.734  10.060   4.998 -0.0964 -0.2464  0.1722
  973POPC   GL113825   7.821   9.871   5.370 -0.1604  0.2331 -0.3531
  973POPC   GL213826   8.093   9.965   5.319  0.1711  0.2835 -0.1319
  973POPC   C1A13827   7.643   9.825   5.757 -0.2527 -0.1765 -0.3240
  973POPC   D2A13828   7.443   9.574   6.128 -0.1249 -0.4099  0.1834
  973POPC   C3A13829   7.098   9.871   6.415  0.4212  0.1569  0.0925
  973POPC   C4A13830   6.963  10.197   6.686  0.1517  0.0966 -0.0589
  973POPC   C1B13831   8.227   9.858   5.839  0.1020  0.0694 -0.4090
  973POPC   C2B13832   7.998   9.697   6.108 -0.1706 -0.5252  0.2208
  973POPC   C3B13833   7.922   9.541   6.444 -0.3589 -0.2078 -0.0831
  973POPC   C4B13834   7.578   9.624   6.675 -0.2432 -0.2939 -0.0747
  974POPC   NC313835  18.228  11.165   4.659 -0.2090  0.3838  0.2143
  974POPC   PO413836  18.476  10.920   5.018 -0.0800 -0.0896  0.1469
  974POPC   GL113837  18.798  10.838   5.440  0.1300  0.2994 -0.0152
  974POPC   GL213838  18.806  11.210   5.528 -0.3455 -0.0207  0.0229
  974POPC   C1A13839  18.861  10.818   5.872  0.2416 -0.2658 -0.2252
  974POPC   D2A13840  19.288  10.831   6.077 -0.0509 -0.0712  0.2682
  974POPC   C3A13841  19.253  10.782   6.406  0.0782  0.2424 -0.0426
  974POPC   C4A13842  19.248  10.666   6.778 -0.0714 -0.2559  0.0570
  974POPC   C1B13843  18.709  11.370   5.991  0.1566 -0.0919 -0.2584
  974POPC   C2B13844  18.512  11.408   6.439 -0.0104  0.0513  0.1698
  974POPC   C3B13845  18.350  11.351   6.877 -0.3178 -0.2648 -0.1032
  974POPC   C4B13846  18.222  11.094   7.118  0.1274 -0.1876 -0.1507
  975POPC   NC313847  15.189   3.956   5.253  0.0310  0.2278 -0.2146
  975POPC   PO413848  15.564   4.014   4.922  0.3088  0.4214 -0.0826
  975POPC   GL113849  15.591   4.143   5.422 -0.3020  0.0986  0.1080
  975POPC   GL213850  15.939   4.157   5.460 -0.0696 -0.0266 -0.0073
  975POPC   C1A13851  15.515   4.357   5.863 -0.0365  0.0233  0.0979
  975POPC   D2A13852  15.526   4.140   6.203  0.3472  0.3427 -0.4159
  975POPC   C3A13853  15.289   4.158   6.570  0.0477 -0.3759 -0.1615
  975POPC   C4A13854  15.198   4.224   7.051 -0.2589 -0.2300 -0.0677
  975POPC   C1B13855  15.943   4.114   5.762  0.2871  0.0904  0.1831
  975POPC   C2B13856  15.926   3.831   6.135 -0.0884  0.0513 -0.1889
  975POPC   C3B13857  16.011   3.683   6.501 -0.0790 -0.0451  0.1805
  975POPC   C4B13858  16.127   3.714   6.908  0.1571 -0.2205 -0.3249
  976POPC   NC313859  14.814   3.058   5.127  0.2021 -0.2496 -0.3548
  976POPC   PO413860  14.613   3.008   5.417  0.3676 -0.2195 -0.1930
  976POPC   GL113861  14.934   2.813   5.593 -0.1771 -0.0480  0.1890
  976POPC   GL213862  15.002   3.104   5.755  0.0438 -0.1742 -0.5497
  976POPC   C1A13863  15.322   2.635   5.629  0.1266  0.0413 -0.2003
  976POPC   D2A13864  15.742   2.417   5.735 -0.1033 -0.1909  0.0003
  976POPC   C3A13865  15.742   2.147   6.177  0.0625  0.0476  0.3017
  976POPC   C4A13866  15.974   2.204   6.555  0.2818  0.1849 -0.0058
  976POPC   C1B13867  14.927   2.846   6.175 -0.2126  0.2476 -0.0163
  976POPC   C2B13868  15.252   2.738   6.189 -0.4580 -0.0846  0.1507
  976POPC   C3B13869  15.645   2.752   6.100  0.2625  0.0414 -0.0600
  976POPC   C4B13870  16.023   2.697   6.316  0.2706  0.1002 -0.1707
  977POPC   NC313871  18.929   6.382   5.379  0.1315  0.1063 -0.0312
  977POPC   PO413872  19.019   6.014   5.546  0.0520  0.2517  0.0064
  977POPC   GL113873  19.209   5.856   5.809  0.1464  0.0200  0.0974
  977POPC   GL213874  19.507   5.999   5.810 -0.2308 -0.1878 -0.0820
  977POPC   C1A13875  19.433   5.576   6.162  0.0279  0.2467  0.0396
  977POPC   D2A13876  19.510   5.280   6.454  0.0098 -0.2721  0.2520
  977POPC   C3A13877  19.606   5.363   6.850  0.2147  0.2836  0.0507
  977POPC   C4A13878  19.883   5.548   7.095  0.0517 -0.0669  0.0482
  977POPC   C1B13879  19.576   6.137   6.203  0.2000 -0.0494 -0.4215
  977POPC   C2B13880  19.682   6.284   6.714 -0.0304  0.1396  0.1755
  977POPC   C3B13881  19.674   6.181   7.147 -0.3045  0.2608  0.0819
  977POPC   C4B13882  19.859   5.951   7.470  0.2778  0.0689 -0.1289
  978POPC   NC313883   3.570   2.738   4.908  0.1992 -0.0096  0.3685
  978POPC   PO413884   3.052   2.882   4.849 -0.2332 -0.1367  0.1630
  978POPC   GL113885   3.194   3.009   5.182  0.1423  0.0627 -0.1202
  978POPC   GL213886   3.467   3.229   5.129  0.0177  0.3306 -0.2874
  978POPC   C1A13887   3.251   3.102   5.597 -0.1181  0.0571 -0.0473
  978POPC   D2A13888   3.194   3.157   6.038  0.1294 -0.2346  0.2119
  978POPC   C3A13889   3.436   3.499   6.351 -0.0076 -0.2992  0.1112
  978POPC   C4A13890   3.666   3.372   6.557  0.1904  0.0357 -0.0854
  978POPC   C1B13891   3.647   3.437   5.441 -0.1278 -0.1487 -0.1490
  978POPC   C2B13892   3.586   3.320   5.850  0.0232 -0.2777  0.0403
  978POPC   C3B13893   3.653   2.953   6.032 -0.3598  0.0582  0.0011
  978POPC   C4B13894   3.546   2.846   6.446 -0.3458 -0.0172 -0.1883
  979POPC   NC313895   1.497  13.226   5.341 -0.3390 -0.0183 -0.2249
  979POPC   PO413896   1.476  12.786   5.508 -0.0604 -0.3617 -0.2741
  979POPC   GL113897   1.389  12.674   5.947  0.3590  0.0902  0.1128
  979POPC   GL213898   1.464  12.778   6.199 -0.2060  0.0856  0.0997
  979POPC   C1A13899   1.092  12.526   6.258 -0.2461  0.1472  0.1218
  979POPC   D2A13900   1.050  12.513   6.706 -0.0897  0.2694 -0.0314
  979POPC   C3A13901   1.029  12.655   7.060  0.2780  0.0801  0.0981
  979POPC   C4A13902   1.007  12.608   7.490  0.1524  0.2693 -0.1294
  979POPC   C1B13903   1.747  13.033   6.505  0.1223 -0.1741  0.2246
  979POPC   C2B13904   1.975  13.318   6.709  0.1676  0.1321  0.0738
  979POPC   C3B13905   2.073  13.447   7.097 -0.0143 -0.1924  0.1890
  979POPC   C4B13906   2.263  13.590   7.382  0.0357  0.0921  0.0872
  980POPC   NC313907   0.574   5.887   5.402 -0.1606  0.0423 -0.0408
  980POPC   PO413908   0.483   6.364   5.566 -0.1255  0.1347 -0.1925
  980POPC   GL113909   0.795   6.268   5.868 -0.2002 -0.2314 -0.0753
  980POPC   GL213910   0.918   6.027   5.855  0.1653 -0.1006 -0.2773
  980POPC   C1A13911   1.152   6.392   6.232  0.1928  0.1794 -0.2555
  980POPC   D2A13912   1.086   6.477   6.668 -0.2778  0.2492  0.0892
  980POPC   C3A13913   1.148   6.328   7.048  0.1627  0.0629  0.1270
  980POPC   C4A13914   1.608   6.202   7.112 -0.2270 -0.4576 -0.1087
  980POPC   C1B13915   1.190   5.638   5.983 -0.2418 -0.1783 -0.2518
  980POPC   C2B13916   1.149   5.307   6.232  0.0725 -0.1190  0.1707
  980POPC   C3B13917   1.232   4.967   6.416 -0.1859  0.3081 -0.1938
  980POPC   C4B13918   0.964   4.733   6.572  0.0533  0.1343  0.1480
  981YOPC   NC313919   8.399  11.733   5.361  0.3104 -0.0335  0.3135
  981YOPC   PO413920   8.247  12.051   5.638 -0.1757 -0.0244  0.0106
  981YOPC   GL113921   8.341  11.976   6.088  0.0337 -0.0867  0.1761
  981YOPC   GL213922   8.156  12.126   6.341  0.4748  0.2954 -0.2692
  981YOPC   C1A13923   8.427  11.697   6.445  0.3771 -0.0626  0.2702
  981YOPC   D2A13924   8.699  11.652   6.738 -0.3558  0.2059  0.5401
  981YOPC   C3A13925   8.753  11.269   6.991 -0.0227  0.0043 -0.0481
  981YOPC   C4A13926   8.747  11.068   7.376 -0.5692 -0.1923 -0.0741
  981YOPC   C1B13927   7.963  11.864   6.634 -0.0212  0.2601 -0.3909
  981YOPC   C2B13928   7.623  11.713   6.870 -0.0659  0.0074 -0.0338
  981YOPC   D3B13929   7.682  11.284   7.053 -0.2596  0.1085 -0.1133
  981YOPC   C4B13930   7.543  10.814   7.049  0.2072  0.0532  0.2691
  982YOPC   NC313931  13.110   0.627   5.097  0.0733 -0.2212  0.2786
  982YOPC   PO413932  12.911   0.423   5.395  0.1239  0.0898  0.0715
  982YOPC   GL113933  12.988   0.435   5.846  0.0841  0.2723  0.2459
  982YOPC   GL213934  13.391   0.261   5.972 -0.0810 -0.3951  0.0021
  982YOPC   C1A13935  12.964   0.376   6.396  0.0375  0.0417  0.1113
  982YOPC   D2A13936  13.347   0.397   6.726 -0.2649  0.1228 -0.0125
  982YOPC   C3A13937  13.589   0.610   6.914  0.2339  0.1966  0.4013
  982YOPC   C4A13938  13.713   0.814   7.178 -0.2575  0.0994  0.0442
  982YOPC   C1B13939  13.533   0.166   6.324  0.0154 -0.0857  0.2437
  982YOPC   C2B13940  13.755  -0.149   6.581  0.1623 -0.2872  0.1697
  982YOPC   D3B13941  13.889   0.114   6.888 -0.1710  0.0926 -0.3924
  982YOPC   C4B13942  13.976   0.431   7.141 -0.0699  0.0988 -0.3107
  983YOPC   NC313943   5.460   6.447   4.781  0.0692  0.0000  0.0226
  983YOPC   PO413944   5.494   6.445   5.180  0.0064 -0.0642 -0.1523
  983YOPC   GL113945   5.750   6.783   5.491 -0.3118  0.0355 -0.1180
  983YOPC   GL213946   6.049   6.924   5.429  0.1169 -0.0508 -0.0004
  983YOPC   C1A13947   5.585   7.045   5.798  0.1315  0.2448 -0.2646
  983YOPC   D2A13948   5.589   7.155   6.245  0.1724 -0.2608  0.0640
  983YOPC   C3A13949   5.694   7.067   6.644 -0.0292 -0.1352 -0.1311
  983YOPC   C4A13950   5.795   7.069   7.016 -0.1434  0.0674 -0.2654
  983YOPC   C1B13951   6.066   6.773   5.925  0.0418 -0.1165 -0.1357
  983YOPC   C2B13952   6.083   6.838   6.421 -0.0954  0.1377 -0.0917
  983YOPC   D3B13953   6.015   6.571   6.762 -0.0812 -0.2737  0.1002
  983YOPC   C4B13954   6.038   6.200   7.029  0.0631  0.0281 -0.0268
  984YOPC   NC313955   3.209  11.780   4.675 -0.0492  0.1565  0.2754
  984YOPC   PO413956   3.232  11.542   5.107 -0.3022 -0.2746  0.0502
  984YOPC   GL113957   3.350  11.486   5.497  0.2949  0.0048  0.2360
  984YOPC   GL213958   3.173  11.588   5.727  0.0987 -0.1898 -0.2533
  984YOPC   C1A13959   3.402  11.186   5.901  0.0357  0.2054 -0.0617
  984YOPC   D2A13960   3.501  10.891   6.292 -0.2113  0.1211  0.0383
  984YOPC   C3A13961   3.366  10.440   6.311  0.2841 -0.0787 -0.1243
  984YOPC   C4A13962   3.557  10.021   6.289  0.1770  0.1153 -0.2857
  984YOPC   C1B13963   3.071  11.723   6.178 -0.1780 -0.4004  0.1309
  984YOPC   C2B13964   3.133  11.786   6.731  0.1507  0.1505 -0.1232
  984YOPC   D3B13965   3.196  11.629   7.205  0.0608 -0.0456 -0.0609
  984YOPC   C4B13966   3.051  11.636   7.626  0.3599  0.0911  0.0219
  985YOPC   NC313967   6.938  10.117   5.129  0.3011 -0.3191  0.1702
  985YOPC   PO413968   6.546   9.985   5.107  0.0822 -0.4106 -0.1051
  985YOPC   GL113969   6.708  10.303   5.510 -0.0989 -0.3418 -0.1633
  985YOPC   GL213970   6.643  10.730   5.458  0.2504 -0.2086  0.1132
  985YOPC   C1A13971   6.819  10.265   5.944  0.0783  0.0160 -0.3168
  985YOPC   D2A13972   6.656  10.309   6.342  0.2713  0.0629 -0.1581
  985YOPC   C3A13973   6.524  10.516   6.735 -0.0089  0.0204 -0.1623
  985YOPC   C4A13974   6.235  10.747   6.955 -0.0799  0.2002 -0.2105
  985YOPC   C1B13975   6.767  10.810   5.838  0.1671  0.2654  0.1388
  985YOPC   C2B13976   6.831  10.812   6.251  0.0430 -0.2568  0.0087
  985YOPC   D3B13977   6.592  10.970   6.541  0.0737 -0.3925  0.0053
  985YOPC   C4B13978   6.690  11.061   6.973  0.1894 -0.2211  0.0091
  986YOPC   NC313979   9.481   9.929   4.965 -0.1810 -0.2183 -0.1815
  986YOPC   PO413980   9.373   9.577   5.210 -0.1810 -0.1471 -0.0080
  986YOPC   GL113981   9.596   9.592   5.602 -0.0493 -0.3939 -0.0530
  986YOPC   GL213982   9.570  10.006   5.589 -0.2496  0.0106  0.0884
  986YOPC   C1A13983   9.696   9.818   5.992  0.0512  0.2143  0.2478
  986YOPC   D2A13984   9.539   9.998   6.414  0.0551  0.1670  0.2368
  986YOPC   C3A13985   9.655  10.392   6.463  0.0675 -0.1842  0.1328
  986YOPC   C4A13986   9.847  10.655   6.602  0.2884  0.0857  0.1483
  986YOPC   C1B13987   9.595  10.334   5.940 -0.0949  0.1927 -0.0388
  986YOPC   C2B13988   9.424  10.779   6.188 -0.3450 -0.3012 -0.1674
  986YOPC   D3B13989   9.341  10.959   6.663 -0.1578  0.2201  0.1021
  986YOPC   C4B13990   9.287  11.185   7.054 -0.1670  0.0273 -0.0949
  987YOPC   NC313991   4.828  13.702   5.626 -0.2639  0.2291 -0.0561
  987YOPC   PO413992   5.253  13.891   5.577 -0.0337  0.1205  0.3853
  987YOPC   GL113993   5.493  13.776   5.913 -0.1662  0.2105  0.3331
  987YOPC   GL213994   5.764  13.563   5.763 -0.1127 -0.2327  0.0773
  987YOPC   C1A13995   5.465  13.540   6.337 -0.0847  0.1175 -0.2679
  987YOPC   D2A13996   5.372  13.288   6.724 -0.0928 -0.1865 -0.0760
  987YOPC   C3A13997   5.159  13.412   7.154 -0.0093 -0.0966 -0.2374
  987YOPC   C4A13998   4.826  13.267   7.382 -0.0466  0.0351 -0.3059
  987YOPC   C1B13999   5.990  13.572   6.189  0.1723  0.0085 -0.1193
  987YOPC   C2B14000   5.944  13.362   6.573 -0.0004  0.1529 -0.2619
  987YOPC   D3B14001   5.718  13.196   7.022 -0.2085  0.2915  0.0903
  987YOPC   C4B14002   5.845  13.228   7.417 -0.3477 -0.1897  0.0768
  988YOPC   NC314003  17.856  15.955   4.802 -0.1183 -0.0680 -0.0592
  988YOPC   PO414004  17.946  15.686   5.161  0.3248 -0.1325 -0.0740
  988YOPC   GL114005  17.775  15.846   5.514 -0.2418  0.0996  0.0289
  988YOPC   GL214006  17.797  15.612   5.776 -0.2447  0.1473 -0.1287
  988YOPC   C1A14007  17.793  16.307   5.688  0.0276  0.0606  0.3539
  988YOPC   D2A14008  17.623  16.529   6.065  0.0467 -0.1962 -0.0339
  988YOPC   C3A14009  17.362  16.663   6.135 -0.1994  0.0115 -0.1782
  988YOPC   C4A14010  17.121  16.612   5.753 -0.0743  0.0968  0.1142
  988YOPC   C1B14011  17.563  15.548   6.080 -0.2332 -0.0809  0.1064
  988YOPC   C2B14012  17.309  15.518   6.384  0.3056  0.0323  0.0236
  988YOPC   D3B14013  17.247  15.152   6.682 -0.1636 -0.0411  0.1126
  988YOPC   C4B14014  17.300  15.137   7.054  0.3226 -0.1883  0.0976
  989YOPC   NC314015   4.437  16.806   5.435  0.0053  0.1748  0.0295
  989YOPC   PO414016   4.505  16.287   5.484 -0.4921  0.2582  0.0060
  989YOPC   GL114017   4.314  16.221   5.820  0.2062 -0.1303 -0.1115
  989YOPC   GL214018   4.583  16.011   5.915 -0.3436 -0.2142 -0.0436
  989YOPC   C1A14019   4.032  16.026   6.108 -0.2670  0.1840 -0.1627
  989YOPC   D2A14020   3.809  15.937   6.510  0.0925  0.1612  0.5004
  989YOPC   C3A14021   3.912  15.692   6.851 -0.0974 -0.1588  0.1445
  989YOPC   C4A14022   4.077  15.312   7.217 -0.3357  0.1718 -0.0174
  989YOPC   C1B14023   4.533  16.042   6.344  0.0863  0.0415  0.0485
  989YOPC   C2B14024   4.268  16.023   6.718 -0.1313 -0.0399 -0.1491
  989YOPC   D3B14025   4.569  16.230   7.109 -0.1600 -0.0690  0.2964
  989YOPC   C4B14026   4.853  16.226   7.455 -0.1578 -0.2113 -0.1853
  990YOPC   NC314027  16.962  12.918   5.649  0.3238  0.3712 -0.0589
  990YOPC   PO414028  17.198  13.260   5.813  0.2987  0.1149 -0.1480
  990YOPC   GL114029  17.258  13.436   6.218  0.3053 -0.2562  0.2035
  990YOPC   GL214030  17.185  13.667   6.205  0.2215 -0.0278  0.0131
  990YOPC   C1A14031  17.221  13.298   6.620 -0.0055  0.1393 -0.0093
  990YOPC   D2A14032  16.862  13.351   6.851  0.0704  0.1941 -0.1424
  990YOPC   C3A14033  16.705  13.155   7.356  0.0991  0.3336 -0.0190
  990YOPC   C4A14034  16.449  13.302   7.685 -0.3054  0.0077  0.4093
  990YOPC   C1B14035  16.906  13.780   6.591  0.1128 -0.4205  0.2855
  990YOPC   C2B14036  17.058  13.760   6.995  0.0321  0.1527  0.2539
  990YOPC   D3B14037  17.309  13.526   7.054 -0.0279  0.0993  0.0817
  990YOPC   C4B14038  17.724  13.177   7.129 -0.0843  0.0513 -0.3248
  991YOPC   NC314039  16.143   3.171   5.056  0.0461  0.1885  0.1311
  991YOPC   PO414040  16.253   3.532   4.882  0.1698 -0.4265  0.0388
  991YOPC   GL114041  16.389   3.618   5.339  0.2176  0.0415 -0.4283
  991YOPC   GL214042  16.271   3.796   5.531 -0.1428  0.1643  0.0868
  991YOPC   C1A14043  16.753   3.487   5.669  0.0097  0.2209  0.1313
  991YOPC   D2A14044  16.839   3.767   5.979 -0.1399  0.1776 -0.1486
  991YOPC   C3A14045  17.005   3.554   6.400 -0.0062  0.6644 -0.2957
  991YOPC   C4A14046  17.350   3.535   6.643  0.2204  0.0553 -0.0340
  991YOPC   C1B14047  16.295   3.622   5.865 -0.0040 -0.0286  0.2372
  991YOPC   C2B14048  16.489   3.501   6.171  0.3734 -0.4187  0.1569
  991YOPC   D3B14049  16.424   3.427   6.620  0.0791 -0.0336  0.1283
  991YOPC   C4B14050  16.152   3.259   6.945 -0.1418  0.0480 -0.0435
  992YOPC   NC314051  10.407   6.595   5.591 -0.2909 -0.0193 -0.0194
  992YOPC   PO414052  10.691   6.726   5.256  0.1173  0.0254 -0.0066
  992YOPC   GL114053  10.883   6.976   5.466 -0.2173  0.1381 -0.0542
  992YOPC   GL214054  11.093   7.321   5.463  0.0094  0.0198 -0.1461
  992YOPC   C1A14055  10.858   7.010   5.864  0.1002 -0.0315  0.0569
  992YOPC   D2A14056  10.861   6.689   6.178 -0.0889  0.2502 -0.0995
  992YOPC   C3A14057  11.189   6.479   6.306 -0.2079  0.0119 -0.1931
  992YOPC   C4A14058  11.594   6.368   6.232 -0.2343  0.1290  0.0664
  992YOPC   C1B14059  11.178   7.356   5.867  0.0555 -0.0568  0.1805
  992YOPC   C2B14060  11.163   7.338   6.277  0.0826  0.0424 -0.0753
  992YOPC   D3B14061  11.193   6.972   6.445 -0.3442  0.0353  0.0072
  992YOPC   C4B14062  11.566   6.836   6.598 -0.2028  0.2137  0.2749
  993YOPC   NC314063   0.988   1.142   4.307  0.0535  0.3569  0.3523
  993YOPC   PO414064   1.274   1.015   4.690 -0.0031  0.1865  0.2772
  993YOPC   GL114065   1.505   1.048   5.097 -0.1251 -0.1751 -0.0391
  993YOPC   GL214066   1.510   1.359   5.172  0.4376  0.2702  0.2701
  993YOPC   C1A14067   1.391   0.940   5.607 -0.0615 -0.0274  0.4115
  993YOPC   D2A14068   1.073   0.995   6.007  0.2803  0.0634  0.1319
  993YOPC   C3A14069   1.117   0.802   6.419  0.0113  0.2917 -0.2711
  993YOPC   C4A14070   1.255   0.585   6.788  0.2316 -0.1332  0.2658
  993YOPC   C1B14071   1.699   1.333   5.563  0.0576 -0.1032 -0.0299
  993YOPC   C2B14072   1.984   1.505   5.850  0.0971 -0.2114 -0.0759
  993YOPC   D3B14073   1.760   1.955   5.987  0.1383 -0.2509 -0.0160
  993YOPC   C4B14074   1.942   2.293   6.291  0.1140  0.0445  0.0708
  994YOPC   NC314075  14.376  14.259   5.182  0.2716 -0.3840 -0.2149
  994YOPC   PO414076  14.633  14.613   5.334  0.1999  0.1245  0.2055
  994YOPC   GL114077  14.947  14.800   5.697  0.0144 -0.2601 -0.2221
  994YOPC   GL214078  14.920  15.131   5.688  0.1193  0.0855  0.0897
  994YOPC   C1A14079  15.245  14.804   5.881 -0.0874  0.1646  0.0182
  994YOPC   D2A14080  15.651  14.781   5.977  0.2107  0.0301 -0.0548
  994YOPC   C3A14081  15.668  14.986   6.380  0.1099 -0.0174 -0.1885
  994YOPC   C4A14082  15.345  15.184   6.557 -0.0834 -0.1109 -0.1370
  994YOPC   C1B14083  14.867  15.108   6.102 -0.5160  0.3574 -0.0318
  994YOPC   C2B14084  14.810  14.921   6.493  0.2263  0.0961  0.0448
  994YOPC   D3B14085  14.554  14.945   6.834 -0.2686 -0.0572 -0.0067
  994YOPC   C4B14086  14.392  15.165   7.089 -0.1567 -0.1509  0.2693
  995YOPC   NC314087  17.448   6.031   4.864 -0.0950  0.0020 -0.2047
  995YOPC   PO414088  17.498   6.188   5.191 -0.2367 -0.4208 -0.0614
  995YOPC   GL114089  17.418   6.414   5.611  0.3085  0.0586 -0.0988
  995YOPC   GL214090  17.622   6.286   5.779 -0.5777  0.3411  0.0003
  995YOPC   C1A14091  17.284   6.635   5.915  0.0107  0.2667  0.0118
  995YOPC   D2A14092  17.294   7.075   5.942 -0.1126  0.1950  0.2794
  995YOPC   C3A14093  17.186   7.053   6.203  0.1721  0.0376  0.0718
  995YOPC   C4A14094  17.014   6.991   6.517 -0.0469 -0.2297 -0.0339
  995YOPC   C1B14095  17.564   6.074   6.130 -0.0103 -0.3057  0.0763
  995YOPC   C2B14096  17.564   6.162   6.516 -0.2179  0.1923  0.0159
  995YOPC   D3B14097  17.700   6.529   6.675 -0.1357 -0.1589 -0.0358
  995YOPC   C4B14098  17.867   6.922   6.930 -0.1280 -0.1963  0.2453
  996YOPC   NC314099   2.793  14.840   5.052  0.0133 -0.0129 -0.0836
  996YOPC   PO414100   3.238  14.982   5.111 -0.3219 -0.1016  0.0060
  996YOPC   GL114101   3.098  14.867   5.541  0.3406  0.0879 -0.4180
  996YOPC   GL214102   2.822  15.136   5.443 -0.4353  0.2013  0.0647
  996YOPC   C1A14103   2.855  14.825   5.982 -0.2017  0.1492  0.1279
  996YOPC   D2A14104   2.714  14.705   6.342 -0.2807 -0.0575  0.2868
  996YOPC   C3A14105   2.412  14.449   6.523 -0.0459 -0.1582  0.1298
  996YOPC   C4A14106   2.137  14.596   6.887 -0.1578  0.0598 -0.0064
  996YOPC   C1B14107   2.814  15.486   5.601  0.0094  0.0604  0.0432
  996YOPC   C2B14108   2.427  15.822   5.862  0.2086 -0.0481 -0.1220
  996YOPC   D3B14109   2.244  15.698   6.331  0.0217  0.1462 -0.0233
  996YOPC   C4B14110   2.039  15.464   6.645  0.1496  0.3661 -0.0696
  997YOPC   NC314111   5.101  12.816   5.550 -0.0812 -0.0003  0.0926
  997YOPC   PO414112   4.949  12.370   5.706 -0.1742  0.0588 -0.1905
  997YOPC   GL114113   4.723  12.614   5.993  0.0020 -0.1639 -0.0263
  997YOPC   GL214114   4.458  12.596   6.041  0.0904  0.2810 -0.1440
  997YOPC   C1A14115   4.673  12.624   6.486  0.0596  0.3339  0.1579
  997YOPC   D2A14116   4.423  12.728   6.836  0.2657  0.1483 -0.1078
  997YOPC   C3A14117   4.336  13.088   7.175  0.1556 -0.0096  0.0025
  997YOPC   C4A14118   4.386  13.422   7.460 -0.2184 -0.3300 -0.0839
  997YOPC   C1B14119   4.415  13.025   6.292  0.2369 -0.0376 -0.0787
  997YOPC   C2B14120   4.237  13.214   6.647 -0.3574  0.1054  0.0385
  997YOPC   D3B14121   4.542  13.520   6.964 -0.0626  0.0430  0.0067
  997YOPC   C4B14122   4.943  13.741   6.841 -0.0620  0.0807 -0.0599
  998YOPC   NC314123   1.711   8.743   5.093  0.1950 -0.2847  0.1035
  998YOPC   PO414124   1.464   8.464   5.286  0.1574  0.0174 -0.2815
  998YOPC   GL114125   1.565   8.562   5.639 -0.1545  0.2887  0.1128
  998YOPC   GL214126   1.511   8.828   5.633 -0.1296  0.0678  0.0765
  998YOPC   C1A14127   1.811   8.783   6.063  0.0318 -0.0416  0.0334
  998YOPC   D2A14128   1.934   8.801   6.474 -0.0556  0.1483  0.0709
  998YOPC   C3A14129   1.785   9.086   6.882  0.0726  0.2401 -0.1405
  998YOPC   C4A14130   1.835   9.054   7.277 -0.1689 -0.2747 -0.1288
  998YOPC   C1B14131   1.256   8.774   6.164 -0.1534  0.1815  0.0844
  998YOPC   C2B14132   1.155   8.666   6.596  0.0356  0.2157  0.2614
  998YOPC   D3B14133   0.833   8.325   6.612 -0.2443 -0.0354 -0.2622
  998YOPC   C4B14134   0.653   8.126   7.046 -0.3908 -0.0412 -0.2086
  999YOPC   NC314135  14.736  17.401   5.135 -0.1594 -0.3033  0.0108
  999YOPC   PO414136  15.126  17.348   5.197  0.1446  0.0269  0.0861
  999YOPC   GL114137  15.168  17.385   5.662  0.1716 -0.1193  0.3812
  999YOPC   GL214138  15.298  17.189   5.825  0.3098  0.2788 -0.1458
  999YOPC   C1A14139  15.249  17.746   5.899  0.1505  0.0248 -0.0639
  999YOPC   D2A14140  15.643  17.894   5.774  0.4439 -0.4952  0.0255
  999YOPC   C3A14141  15.751  18.309   5.837  0.2819 -0.3075 -0.1521
  999YOPC   C4A14142  15.830  18.339   6.307  0.1439  0.1433  0.0876
  999YOPC   C1B14143  15.189  17.430   6.236  0.1118  0.2118  0.0169
  999YOPC   C2B14144  15.410  17.606   6.450  0.2589 -0.0308  0.0382
  999YOPC   D3B14145  15.297  17.525   6.852  0.2445  0.0428 -0.1578
  999YOPC   C4B14146  15.702  17.393   6.969 -0.0387 -0.1049  0.2635
 1000YOPC   NC314147   8.538   4.978   5.153  0.0559 -0.1005  0.0684
 1000YOPC   PO414148   8.356   4.928   5.628 -0.1645  0.1671  0.0921
 1000YOPC   GL114149   8.397   4.746   6.000 -0.1155 -0.0109  0.1073
 1000YOPC   GL214150   8.642   4.806   6.122  0.1256 -0.1921  0.1725
 1000YOPC   C1A14151   8.111   4.851   6.263  0.4006  0.0835  0.1514
 1000YOPC   D2A14152   7.669   5.008   6.482  0.3628 -0.0887  0.1025
 1000YOPC   C3A14153   7.777   5.365   6.750  0.1251 -0.2877  0.3255
 1000YOPC   C4A14154   7.854   5.380   7.227 -0.4198 -0.3998  0.2028
 1000YOPC   C1B14155   8.530   4.773   6.511  0.1068 -0.3626  0.0871
 1000YOPC   C2B14156   8.443   4.540   6.816  0.2697 -0.1250 -0.2573
 1000YOPC   D3B14157   8.544   4.741   7.232 -0.0967  0.1433  0.1540
 1000YOPC   C4B14158   8.775   5.182   7.310  0.2188 -0.1423  0.0665
 1001YOPC   NC314159  16.931  17.276   5.054  0.3906  0.4598 -0.0511
 1001YOPC   PO414160  16.835  17.579   4.663  0.1837  0.3530 -0.0350
 1001YOPC   GL114161  16.886  17.780   5.080  0.0105  0.1247 -0.2579
 1001YOPC   GL214162  17.136  17.741   5.179 -0.0580  0.0400 -0.2889
 1001YOPC   C1A14163  16.928  18.085   5.528  0.1714  0.2409 -0.0930
 1001YOPC   D2A14164  16.907  18.265   5.965 -0.2245  0.1171  0.2456
 1001YOPC   C3A14165  17.232  18.266   6.091 -0.1691  0.0757 -0.1143
 1001YOPC   C4A14166  17.595  18.396   6.252  0.1305 -0.2516 -0.0009
 1001YOPC   C1B14167  17.057  17.586   5.556 -0.0991  0.1580 -0.0314
 1001YOPC   C2B14168  17.127  17.790   5.836 -0.1809 -0.1765  0.5019
 1001YOPC   D3B14169  16.933  17.836   6.249  0.0668  0.3011  0.0592
 1001YOPC   C4B14170  16.769  18.208   6.409 -0.0879  0.0757 -0.1645
 1002YOPC   NC314171   6.947   9.594   5.073  0.3103 -0.2836  0.0446
 1002YOPC   PO414172   7.342   9.644   5.082 -0.3229 -0.1368 -0.2447
 1002YOPC   GL114173   7.187   9.517   5.541  0.0741  0.1851 -0.0702
 1002YOPC   GL214174   7.070   9.900   5.709 -0.2293 -0.0811 -0.1437
 1002YOPC   C1A14175   6.967   9.204   5.858 -0.0390 -0.2751  0.1334
 1002YOPC   D2A14176   6.658   9.051   6.212  0.0837  0.3930 -0.0235
 1002YOPC   C3A14177   6.663   9.202   6.669  0.2015 -0.0957  0.2922
 1002YOPC   C4A14178   6.597   9.358   7.036  0.1638  0.0393  0.2847
 1002YOPC   C1B14179   6.876   9.717   5.903  0.1925  0.1247  0.1850
 1002YOPC   C2B14180   6.674   9.572   6.201 -0.1266  0.1655  0.1228
 1002YOPC   D3B14181   6.540   9.803   6.540 -0.1228  0.0667  0.0694
 1002YOPC   C4B14182   6.644   9.924   6.970  0.0336  0.0102 -0.0753
 1003YOPC   NC314183   2.568  10.362   5.101 -0.1231  0.0151 -0.0177
 1003YOPC   PO414184   2.785  10.669   5.322 -0.3328 -0.0811 -0.1827
 1003YOPC   GL114185   2.947  10.286   5.572 -0.0226  0.2217 -0.1054
 1003YOPC   GL214186   3.120  10.297   5.846  0.0646  0.1117 -0.3525
 1003YOPC   C1A14187   2.956   9.802   5.520  0.1752 -0.1726 -0.2089
 1003YOPC   D2A14188   3.000   9.365   5.675  0.3861 -0.0804 -0.0095
 1003YOPC   C3A14189   3.118   9.171   6.012 -0.0963  0.4151 -0.3205
 1003YOPC   C4A14190   3.149   8.833   6.434  0.3381 -0.1458 -0.0504
 1003YOPC   C1B14191   3.023  10.018   6.247  0.2517  0.1597  0.0084
 1003YOPC   C2B14192   3.187  10.107   6.719 -0.0368  0.0711 -0.0513
 1003YOPC   D3B14193   3.061   9.832   7.195  0.0685  0.3565  0.2768
 1003YOPC   C4B14194   3.249   9.389   7.176  0.3283 -0.1698  0.1160
 1004YOPC   NC314195  18.874  10.193   5.365  0.0467 -0.2137 -0.2227
 1004YOPC   PO414196  18.542  10.407   5.413 -0.3359  0.3736  0.2051
 1004YOPC   GL114197  18.637  10.408   5.809 -0.1916  0.0312  0.0385
 1004YOPC   GL214198  18.915  10.331   5.860 -0.1762 -0.0150  0.1770
 1004YOPC   C1A14199  18.675  10.489   6.194  0.0004  0.0456  0.2639
 1004YOPC   D2A14200  18.726  10.659   6.611 -0.1300  0.4655  0.0566
 1004YOPC   C3A14201  18.800  11.011   6.683  0.1822 -0.1372 -0.0710
 1004YOPC   C4A14202  18.774  11.208   7.100  0.0036 -0.0150  0.2221
 1004YOPC   C1B14203  19.134  10.341   6.182 -0.2759  0.2207  0.2616
 1004YOPC   C2B14204  18.997  10.204   6.544 -0.1733  0.1825  0.2280
 1004YOPC   D3B14205  18.604  10.076   6.397  0.1179  0.3676 -0.0704
 1004YOPC   C4B14206  18.203   9.918   6.526 -0.0924 -0.1052 -0.1865
 1005YOPC   NC314207   8.862  12.672   5.455 -0.2837  0.2049 -0.2024
 1005YOPC   PO414208   9.084  12.257   5.577 -0.0159 -0.2823 -0.0614
 1005YOPC   GL114209   9.276  12.628   5.800  0.0493  0.1915  0.0323
 1005YOPC   GL214210   9.285  12.869   5.637  0.2000  0.0056  0.1790
 1005YOPC   C1A14211   9.513  12.768   6.146 -0.3811  0.1343  0.0103
 1005YOPC   D2A14212   9.618  12.850   6.587  0.1942 -0.0238 -0.0741
 1005YOPC   C3A14213   9.695  12.566   6.846  0.1510 -0.1033 -0.1646
 1005YOPC   C4A14214  10.057  12.221   7.147  0.0106  0.0086 -0.3318
 1005YOPC   C1B14215   9.175  13.103   5.999  0.4794 -0.0495  0.0149
 1005YOPC   C2B14216   9.388  13.447   6.166 -0.0440 -0.1281  0.1702
 1005YOPC   D3B14217   9.696  13.710   5.982  0.0440 -0.0825  0.1837
 1005YOPC   C4B14218  10.079  13.817   5.998  0.0362  0.2310  0.1812
 1006YOPC   NC314219   5.446   4.339   4.918 -0.2204 -0.0592  0.1256
 1006YOPC   PO414220   5.098   4.511   5.021  0.1431  0.0779 -0.0039
 1006YOPC   GL114221   5.178   4.504   5.472  0.0212 -0.1202  0.2611
 1006YOPC   GL214222   5.294   4.874   5.561  0.1186  0.1988  0.0423
 1006YOPC   C1A14223   5.028   4.396   5.862 -0.1454 -0.2912  0.1871
 1006YOPC   D2A14224   4.883   4.703   6.195  0.2087  0.2139 -0.0812
 1006YOPC   C3A14225   4.391   4.772   6.084  0.2542 -0.2133 -0.0172
 1006YOPC   C4A14226   3.862   4.720   6.144 -0.1206  0.3768  0.6111
 1006YOPC   C1B14227   4.814   4.821   5.656 -0.3655 -0.0436  0.0968
 1006YOPC   C2B14228   4.448   5.189   5.739  0.2083  0.2485  0.0502
 1006YOPC   D3B14229   4.560   5.593   6.028 -0.3109  0.0674 -0.2863
 1006YOPC   C4B14230   4.529   6.061   6.041 -0.0635  0.2264  0.0717
 1007YOPC   NC314231   7.232   8.042   5.377 -0.0932 -0.2072  0.0602
 1007YOPC   PO414232   7.393   8.291   5.674  0.1859  0.0122 -0.0246
 1007YOPC   GL114233   7.291   8.582   5.876  0.0153  0.2032 -0.4403
 1007YOPC   GL214234   7.223   8.538   6.057  0.4615 -0.5014  0.1797
 1007YOPC   C1A14235   7.401   9.018   6.067  0.0533  0.1397  0.0384
 1007YOPC   D2A14236   7.107   9.201   6.357 -0.2329 -0.0217 -0.2187
 1007YOPC   C3A14237   7.162   9.012   6.744  0.3299  0.1309 -0.2432
 1007YOPC   C4A14238   7.138   8.880   7.162  0.0497 -0.2957  0.0622
 1007YOPC   C1B14239   7.428   8.728   6.421  0.4033  0.2240  0.0380
 1007YOPC   C2B14240   7.699   8.690   6.876  0.0696  0.0454  0.0766
 1007YOPC   D3B14241   8.077   8.645   7.077 -0.1417  0.1735 -0.2544
 1007YOPC   C4B14242   8.426   8.821   7.140 -0.2644 -0.1735  0.1409
 1008YOPC   NC314243  15.744  17.970   4.838  0.1321 -0.1288 -0.3299
 1008YOPC   PO414244  15.972  17.875   5.275 -0.4790  0.0180  0.0239
 1008YOPC   GL114245  16.282  18.049   5.535 -0.1239 -0.0610  0.4036
 1008YOPC   GL214246  16.169  18.039   5.739 -0.1742 -0.4702  0.4302
 1008YOPC   C1A14247  16.615  17.838   5.866  0.1906  0.1705 -0.0094
 1008YOPC   D2A14248  16.437  17.661   6.277  0.2433 -0.0250 -0.0303
 1008YOPC   C3A14249  16.444  17.612   6.682  0.2171 -0.2232 -0.1176
 1008YOPC   C4A14250  16.701  17.811   7.039 -0.0480 -0.1142 -0.1562
 1008YOPC   C1B14251  16.402  18.293   5.922  0.1780  0.1275 -0.2513
 1008YOPC   C2B14252  16.136  18.686   6.062  0.1020 -0.0523 -0.0581
 1008YOPC   D3B14253  16.083  18.859   6.470 -0.1537  0.0962  0.4999
 1008YOPC   C4B14254  16.068  19.069   6.903  0.1709  0.1647  0.0175
 1009YOPC   NC314255   7.408   1.604   5.398  0.1219  0.2426 -0.1894
 1009YOPC   PO414256   7.813   1.354   5.255  0.1586  0.2735 -0.0017
 1009YOPC   GL114257   7.683   1.325   5.735  0.2075  0.0977 -0.1837
 1009YOPC   GL214258   7.510   0.970   5.753 -0.2432  0.0443  0.0716
 1009YOPC   C1A14259   7.503   1.351   6.156 -0.0963  0.4735 -0.1202
 1009YOPC   D2A14260   7.234   1.465   6.636  0.3381  0.1535  0.1651
 1009YOPC   C3A14261   6.817   1.149   6.678 -0.2660 -0.4377  0.0860
 1009YOPC   C4A14262   6.813   0.824   6.964  0.1107  0.1752 -0.2159
 1009YOPC   C1B14263   7.344   0.597   5.967 -0.0538  0.0981 -0.3915
 1009YOPC   C2B14264   7.029   0.352   6.327  0.0678 -0.2311 -0.1563
 1009YOPC   D3B14265   6.969   0.377   6.842 -0.1761  0.0175 -0.0724
 1009YOPC   C4B14266   6.938   0.486   7.336 -0.2220  0.4338  0.2456
 1010YOPC   NC314267  11.697   0.962   5.645  0.1774 -0.2384 -0.1550
 1010YOPC   PO414268  11.884   0.505   5.582 -0.3702 -0.4908  0.1143
 1010YOPC   GL114269  12.026   0.502   5.960 -0.2079 -0.3340  0.1407
 1010YOPC   GL214270  12.194   0.776   5.927  0.2152  0.1202 -0.1135
 1010YOPC   C1A14271  12.121   0.212   6.376 -0.2110  0.2404 -0.1595
 1010YOPC   D2A14272  12.208  -0.207   6.555  0.0993  0.1800  0.0601
 1010YOPC   C3A14273  12.213  -0.181   6.934  0.0552 -0.1098  0.0048
 1010YOPC   C4A14274  12.452   0.055   7.251 -0.1905 -0.0665  0.1723
 1010YOPC   C1B14275  12.111   0.858   6.271  0.2919 -0.5005  0.1445
 1010YOPC   C2B14276  12.069   0.671   6.618  0.1414  0.1160 -0.0369
 1010YOPC   D3B14277  12.280   1.010   7.015 -0.2582  0.0793 -0.1632
 1010YOPC   C4B14278  12.656   0.845   7.156  0.1929 -0.1699  0.3018
 1011YOPC   NC314279  11.318   3.179   4.926 -0.2444 -0.5945  0.3321
 1011YOPC   PO414280  11.569   3.079   5.272  0.2284 -0.1400 -0.0002
 1011YOPC   GL114281  11.690   2.947   5.674  0.1846  0.1332 -0.0153
 1011YOPC   GL214282  11.982   2.905   5.650  0.0675  0.3553 -0.0589
 1011YOPC   C1A14283  11.656   3.128   6.024  0.1724 -0.0973 -0.0703
 1011YOPC   D2A14284  11.259   3.155   6.204  0.2943  0.1175  0.2311
 1011YOPC   C3A14285  11.244   3.451   6.518  0.0950  0.2014  0.1471
 1011YOPC   C4A14286  11.323   3.560   6.976 -0.2918  0.3637 -0.1133
 1011YOPC   C1B14287  12.203   3.150   5.984 -0.1562 -0.0339 -0.1507
 1011YOPC   C2B14288  12.483   3.332   6.239 -0.0635 -0.4282 -0.2388
 1011YOPC   D3B14289  12.411   3.772   6.358 -0.1511  0.2082  0.3533
 1011YOPC   C4B14290  12.169   3.887   6.708 -0.1018  0.0545  0.2020
 1012YOPC   NC314291  17.672  11.577   5.209  0.4628 -0.0087  0.1365
 1012YOPC   PO414292  17.924  11.312   5.079  0.1811  0.2002 -0.0603
 1012YOPC   GL114293  18.039  10.974   5.416  0.3355  0.1660 -0.1371
 1012YOPC   GL214294  17.737  10.706   5.369 -0.0173  0.2498  0.1059
 1012YOPC   C1A14295  18.275  10.939   5.748  0.1803  0.0423  0.1187
 1012YOPC   D2A14296  18.388  10.993   6.131  0.4000 -0.1694 -0.1903
 1012YOPC   C3A14297  18.198  10.982   6.581  0.0968 -0.0668 -0.5324
 1012YOPC   C4A14298  17.819  10.841   6.951  0.1166 -0.1342  0.0198
 1012YOPC   C1B14299  17.599  10.840   5.815 -0.0449 -0.0681 -0.0357
 1012YOPC   C2B14300  17.898  10.829   6.086 -0.2324  0.2017 -0.1924
 1012YOPC   D3B14301  17.636  10.794   6.485 -0.0523  0.1554 -0.1090
 1012YOPC   C4B14302  17.331  10.478   6.387  0.4265  0.0683 -0.1553
 1013YOPC   NC314303  11.817  13.134   5.066  0.1909 -0.0889 -0.1935
 1013YOPC   PO414304  12.099  13.328   5.243 -0.2085 -0.3009  0.0076
 1013YOPC   GL114305  12.001  13.043   5.515 -0.0554  0.1187 -0.1135
 1013YOPC   GL214306  11.921  12.683   5.369 -0.0396  0.0244 -0.0194
 1013YOPC   C1A14307  12.328  12.842   5.697 -0.0148 -0.1829  0.0137
 1013YOPC   D2A14308  12.741  12.982   5.920 -0.0801  0.2424 -0.1304
 1013YOPC   C3A14309  12.650  13.072   6.303  0.0407  0.1685  0.3103
 1013YOPC   C4A14310  12.368  13.105   6.643  0.1552  0.1652  0.0115
 1013YOPC   C1B14311  11.602  12.864   5.709 -0.1766  0.3328 -0.0668
 1013YOPC   C2B14312  11.510  12.964   6.127  0.0648 -0.0774 -0.1097
 1013YOPC   D3B14313  11.795  13.006   6.472 -0.1123  0.0779  0.2425
 1013YOPC   C4B14314  11.945  13.100   6.873  0.2259  0.1410  0.0696
 1014YOPC   NC314315   0.176  18.613   4.976 -0.5499  0.1002 -0.2494
 1014YOPC   PO414316  -0.105  19.042   5.005  0.2319  0.3263 -0.2550
 1014YOPC   GL114317  -0.227  19.197   5.432 -0.1677 -0.0730  0.1037
 1014YOPC   GL214318  -0.073  19.555   5.595 -0.3238  0.0835 -0.2344
 1014YOPC   C1A14319  -0.480  19.242   5.851 -0.1623 -0.2507  0.1712
 1014YOPC   D2A14320  -0.673  19.101   6.161  0.2393 -0.1053 -0.1864
 1014YOPC   C3A14321  -0.643  18.727   6.201 -0.3205  0.0236 -0.0421
 1014YOPC   C4A14322  -0.797  18.260   6.043 -0.0564 -0.1016  0.2027
 1014YOPC   C1B14323   0.254  19.581   6.004 -0.0837 -0.1579  0.3055
 1014YOPC   C2B14324   0.455  19.654   6.334 -0.1679 -0.0573  0.3027
 1014YOPC   D3B14325   0.323  19.763   6.677  0.2753  0.2136 -0.0057
 1014YOPC   C4B14326   0.406  19.846   7.067 -0.3030  0.1190  0.4144
 1015YOPC   NC314327   4.245   8.246   4.815 -0.1078  0.1115  0.3369
 1015YOPC   PO414328   4.522   8.090   5.165 -0.2122 -0.2422 -0.5683
 1015YOPC   GL114329   4.619   8.062   5.530 -0.0201 -0.2018 -0.1681
 1015YOPC   GL214330   4.602   7.981   5.842 -0.1016  0.0902 -0.1009
 1015YOPC   C1A14331   4.738   8.428   5.730 -0.0153  0.2649 -0.0147
 1015YOPC   D2A14332   4.708   8.713   5.949 -0.0147 -0.0271 -0.1427
 1015YOPC   C3A14333   4.634   8.690   6.383  0.0207 -0.2247  0.1436
 1015YOPC   C4A14334   4.488   8.966   6.715  0.1684  0.3071  0.0951
 1015YOPC   C1B14335   4.662   8.134   6.173  0.1979  0.0065  0.0836
 1015YOPC   C2B14336   4.678   8.197   6.642 -0.0647 -0.0957 -0.2387
 1015YOPC   D3B14337   4.895   8.619   6.763  0.2008  0.0204 -0.0161
 1015YOPC   C4B14338   5.067   8.886   7.038 -0.0575 -0.2376  0.0231
 1016YOPC   NC314339   1.033  12.863   4.743 -0.1199 -0.2979  0.0609
 1016YOPC   PO414340   1.041  13.106   5.185 -0.4599 -0.2168 -0.0839
 1016YOPC   GL114341   0.981  13.240   5.564  0.0323  0.1222  0.1528
 1016YOPC   GL214342   1.191  13.141   5.793  0.0949  0.0747  0.0096
 1016YOPC   C1A14343   0.681  13.422   5.852  0.1239 -0.1412  0.0050
 1016YOPC   D2A14344   0.384  13.405   6.129 -0.1317  0.0032  0.2160
 1016YOPC   C3A14345   0.548  13.235   6.607 -0.1427 -0.1746  0.0157
 1016YOPC   C4A14346   0.645  13.031   7.028 -0.2340 -0.3158  0.4707
 1016YOPC   C1B14347   1.457  13.368   6.179  0.1172 -0.1424  0.2252
 1016YOPC   C2B14348   1.528  13.519   6.522 -0.1412 -0.0346  0.2066
 1016YOPC   D3B14349   1.560  13.479   6.986  0.0257  0.2183  0.1099
 1016YOPC   C4B14350   1.655  13.758   7.334  0.0606 -0.4625 -0.3930
 1017YOPC   NC314351  11.225   2.531   5.577  0.2447  0.1224  0.3918
 1017YOPC   PO414352  10.890   2.138   5.488  0.0732 -0.0794  0.0936
 1017YOPC   GL114353  10.968   2.210   5.902  0.0177 -0.2215  0.0750
 1017YOPC   GL214354  10.640   2.295   6.169  0.1390  0.0104 -0.0730
 1017YOPC   C1A14355  11.354   2.113   6.236  0.2342  0.0289  0.3324
 1017YOPC   D2A14356  11.756   2.292   6.464  0.1861 -0.0551  0.0276
 1017YOPC   C3A14357  11.845   2.100   6.862  0.1445  0.3575 -0.0697
 1017YOPC   C4A14358  11.668   2.232   7.337 -0.1362 -0.2639 -0.3407
 1017YOPC   C1B14359  10.535   2.303   6.575  0.4116  0.1026  0.2071
 1017YOPC   C2B14360  10.615   2.491   6.978 -0.3405  0.1023  0.1847
 1017YOPC   D3B14361  10.959   2.381   7.060 -0.1133  0.1864  0.0887
 1017YOPC   C4B14362  11.381   2.512   6.866  0.2322 -0.0534 -0.2944
 1018YOPC   NC314363  15.019   8.142   4.921  0.0185 -0.0448  0.1142
 1018YOPC   PO414364  14.965   8.288   5.359  0.2342  0.1857  0.0482
 1018YOPC   GL114365  15.249   8.569   5.630 -0.1950 -0.0006  0.1383
 1018YOPC   GL214366  15.450   8.663   5.645  0.1845 -0.0616  0.2570
 1018YOPC   C1A14367  15.235   8.317   5.979  0.1459  0.1495 -0.0517
 1018YOPC   D2A14368  15.463   7.936   6.049 -0.0846 -0.1106  0.1220
 1018YOPC   C3A14369  15.781   7.766   5.712 -0.0356 -0.1962  0.2214
 1018YOPC   C4A14370  16.099   7.455   5.761 -0.0360 -0.0345  0.0855
 1018YOPC   C1B14371  15.635   8.602   6.015 -0.0605 -0.0110  0.3076
 1018YOPC   C2B14372  15.687   8.438   6.449  0.2641 -0.0806 -0.2490
 1018YOPC   D3B14373  15.562   8.171   6.847  0.0644  0.1926  0.3933
 1018YOPC   C4B14374  15.222   7.959   6.940  0.0670  0.0342 -0.0794
 1019YOPC   NC314375  15.741   3.562   4.738  0.1054 -0.1147 -0.0545
 1019YOPC   PO414376  15.625   3.239   4.947  0.0363  0.0318  0.0214
 1019YOPC   GL114377  15.728   3.181   5.444 -0.1780  0.0560  0.0125
 1019YOPC   GL214378  15.547   3.092   5.710  0.0248 -0.1812 -0.2137
 1019YOPC   C1A14379  15.774   3.573   5.678  0.0489  0.1305  0.3727
 1019YOPC   D2A14380  15.470   3.723   5.923 -0.1402 -0.2470  0.1466
 1019YOPC   C3A14381  15.488   3.642   6.340  0.1493  0.2989  0.1518
 1019YOPC   C4A14382  15.206   3.596   6.685  0.2724 -0.3280 -0.1919
 1019YOPC   C1B14383  15.337   3.232   6.059 -0.1353  0.5447 -0.0009
 1019YOPC   C2B14384  15.305   3.212   6.399 -0.0435 -0.1245  0.0040
 1019YOPC   D3B14385  15.475   2.950   6.605 -0.1135 -0.2134 -0.1339
 1019YOPC   C4B14386  15.667   2.926   6.972 -0.0071  0.0080  0.0152
 1020YOPC   NC314387   9.055   3.470   5.721  0.0334  0.0319 -0.1394
 1020YOPC   PO414388   9.116   3.932   5.708  0.1914 -0.1557  0.0329
 1020YOPC   GL114389   9.273   4.086   6.028  0.0908 -0.1998  0.1076
 1020YOPC   GL214390   9.316   4.382   6.154 -0.1005  0.2005 -0.1327
 1020YOPC   C1A14391   9.471   4.035   6.420  0.2949 -0.0288  0.1553
 1020YOPC   D2A14392   9.372   3.748   6.704  0.5076 -0.2760  0.0198
 1020YOPC   C3A14393   9.568   3.500   7.049  0.1535  0.1323 -0.0929
 1020YOPC   C4A14394   9.828   3.700   7.341  0.2189  0.1638 -0.2709
 1020YOPC   C1B14395   9.363   4.512   6.611  0.0514  0.0276 -0.0117
 1020YOPC   C2B14396   9.380   4.651   7.016 -0.3017 -0.0640  0.1994
 1020YOPC   D3B14397   9.177   4.707   7.386  0.1653  0.1217  0.1242
 1020YOPC   C4B14398   8.785   4.446   7.504 -0.1365  0.0375  0.1484
 1021YOPC   NC314399   0.233   6.725   5.160  0.1725  0.3134 -0.1436
 1021YOPC   PO414400  -0.149   6.788   5.284  0.3468 -0.0880  0.2236
 1021YOPC   GL114401  -0.298   6.850   5.707 -0.0344  0.1534  0.2072
 1021YOPC   GL214402  -0.181   6.984   5.952  0.0298 -0.2149 -0.0540
 1021YOPC   C1A14403  -0.641   6.908   5.938 -0.1291 -0.0930 -0.1242
 1021YOPC   D2A14404  -0.750   6.826   6.398 -0.0259  0.3620  0.0092
 1021YOPC   C3A14405  -0.567   6.969   6.815 -0.1951 -0.0440 -0.2286
 1021YOPC   C4A14406  -0.198   7.096   7.193 -0.1953 -0.3924 -0.1182
 1021YOPC   C1B14407  -0.326   6.609   6.181 -0.0852  0.0533 -0.1835
 1021YOPC   C2B14408  -0.565   6.272   6.408 -0.4355  0.3810  0.2464
 1021YOPC   D3B14409  -0.296   5.902   6.315  0.0794  0.0640  0.0300
 1021YOPC   C4B14410  -0.274   5.476   6.500  0.1349 -0.0284  0.5021
 1022YOPC   NC314411   9.115  19.134   5.486 -0.0542  0.1937  0.2231
 1022YOPC   PO414412   9.638  19.098   5.602 -0.0226 -0.2151  0.0746
 1022YOPC   GL114413   9.481  18.823   5.902  0.2881  0.1067  0.0449
 1022YOPC   GL214414   9.797  18.731   5.944 -0.0413 -0.1167 -0.1145
 1022YOPC   C1A14415   9.236  18.842   6.258  0.0870 -0.2747 -0.2024
 1022YOPC   D2A14416   8.768  19.011   6.292 -0.1223  0.0636 -0.1029
 1022YOPC   C3A14417   8.638  18.785   6.617 -0.1830 -0.1300 -0.1861
 1022YOPC   C4A14418   8.411  18.887   6.932  0.1741 -0.5632  0.2508
 1022YOPC   C1B14419   9.830  19.008   6.383 -0.1710  0.1716 -0.0039
 1022YOPC   C2B14420  10.203  19.064   6.706  0.2593  0.0479  0.3311
 1022YOPC   D3B14421  10.194  18.784   7.013 -0.2617  0.2104 -0.2564
 1022YOPC   C4B14422  10.043  18.977   7.345  0.1258 -0.0441  0.1977
 1023YOPC   NC314423  10.665   0.596   5.353 -0.3012 -0.0975 -0.0377
 1023YOPC   PO414424  11.142   0.786   5.563 -0.0767  0.1435  0.0502
 1023YOPC   GL114425  11.201   0.965   5.921  0.3664  0.0298 -0.0130
 1023YOPC   GL214426  11.353   1.339   6.084 -0.0709  0.3499 -0.1247
 1023YOPC   C1A14427  11.109   1.069   6.400  0.1527  0.1303  0.2430
 1023YOPC   D2A14428  11.126   0.760   6.738  0.4685  0.2116 -0.0359
 1023YOPC   C3A14429  10.800   0.449   7.043  0.1140  0.0094  0.4024
 1023YOPC   C4A14430  10.616   0.383   7.433 -0.1873 -0.0907  0.2529
 1023YOPC   C1B14431  11.687   1.305   6.344  0.0984 -0.4118 -0.0104
 1023YOPC   C2B14432  11.952   1.191   6.596 -0.0040 -0.2177  0.1212
 1023YOPC   D3B14433  12.186   1.506   6.847  0.0471 -0.2333 -0.0528
 1023YOPC   C4B14434  11.977   1.750   7.242 -0.2168  0.1592  0.1596
 1024YOPC   NC314435   9.278   1.651   5.360  0.4298 -0.0134  0.1409
 1024YOPC   PO414436   9.246   1.669   5.762  0.2195 -0.0348 -0.1660
 1024YOPC   GL114437   9.230   1.417   6.169 -0.1071  0.0741  0.1059
 1024YOPC   GL214438   9.420   1.572   6.288 -0.3074 -0.1098  0.2454
 1024YOPC   C1A14439   9.105   1.461   6.627  0.3321 -0.3389 -0.1076
 1024YOPC   D2A14440   8.986   1.395   7.168 -0.0526 -0.2145 -0.0123
 1024YOPC   C3A14441   8.929   1.719   7.437 -0.3613  0.0177 -0.0708
 1024YOPC   C4A14442   8.882   1.938   7.797 -0.0890 -0.1478  0.1617
 1024YOPC   C1B14443   9.376   1.906   6.609 -0.0110  0.3075 -0.4632
 1024YOPC   C2B14444   9.156   1.953   7.003  0.0396 -0.1969 -0.0918
 1024YOPC   D3B14445   9.396   1.804   7.346  0.2122  0.0361 -0.1536
 1024YOPC   C4B14446   9.678   1.517   7.437 -0.1578  0.1792 -0.6682
 1025YOPC   NC314447   0.721   7.905   5.654 -0.0510  0.0860 -0.2001
 1025YOPC   PO414448   0.587   7.543   5.760  0.1473  0.0088 -0.1863
 1025YOPC   GL114449   0.429   7.662   6.027  0.0137 -0.4946 -0.0385
 1025YOPC   GL214450   0.228   7.444   6.165 -0.0902 -0.2397  0.1628
 1025YOPC   C1A14451   0.490   7.969   6.270 -0.0596  0.2404  0.0865
 1025YOPC   D2A14452   0.400   8.047   6.647 -0.0210 -0.3716  0.1200
 1025YOPC   C3A14453   0.262   8.475   6.818  0.0772 -0.0422 -0.0269
 1025YOPC   C4A14454   0.141   8.881   6.969  0.0612 -0.0023  0.1733
 1025YOPC   C1B14455   0.264   7.014   6.201  0.1445 -0.2178 -0.0260
 1025YOPC   C2B14456   0.133   6.680   6.417 -0.1152 -0.1215 -0.0334
 1025YOPC   D3B14457  -0.215   6.619   6.818 -0.4026  0.1136  0.0436
 1025YOPC   C4B14458  -0.405   6.676   7.303 -0.0979 -0.1732  0.0969
 1026YOPC   NC314459   6.393  11.002   4.964 -0.2872 -0.1424  0.3350
 1026YOPC   PO414460   6.440  11.207   5.343 -0.0564  0.0898  0.0173
 1026YOPC   GL114461   6.850  11.213   5.605  0.0230  0.0235  0.0391
 1026YOPC   GL214462   7.109  11.597   5.614 -0.1234 -0.3266 -0.1532
 1026YOPC   C1A14463   6.959  11.269   5.986  0.1586  0.1786 -0.1839
 1026YOPC   D2A14464   7.086  11.270   6.422 -0.0751 -0.3624  0.0665
 1026YOPC   C3A14465   6.855  11.414   6.638 -0.0936 -0.1817 -0.0956
 1026YOPC   C4A14466   6.547  11.744   6.876 -0.1854 -0.2302  0.1295
 1026YOPC   C1B14467   7.365  11.633   6.012 -0.2731  0.2872  0.1865
 1026YOPC   C2B14468   7.527  11.394   6.154 -0.3315 -0.2202  0.0626
 1026YOPC   D3B14469   7.900  11.349   6.463 -0.1843 -0.4025 -0.0974
 1026YOPC   C4B14470   7.984  11.012   6.741 -0.2092 -0.0472 -0.2744
 1027YOPC   NC314471   0.817   1.893   4.655  0.1717 -0.1725 -0.0743
 1027YOPC   PO414472   0.843   2.296   4.909  0.2780 -0.2335 -0.1775
 1027YOPC   GL114473   0.679   2.191   5.309 -0.0444 -0.0338  0.2410
 1027YOPC   GL214474   0.767   1.928   5.352  0.0948  0.3261 -0.0648
 1027YOPC   C1A14475   0.725   2.515   5.671 -0.0446  0.2343 -0.1184
 1027YOPC   D2A14476   0.846   2.925   5.800  0.2458  0.4067 -0.2416
 1027YOPC   C3A14477   0.766   3.144   6.266  0.1359  0.2260 -0.1902
 1027YOPC   C4A14478   0.979   3.154   6.722 -0.0058 -0.1826  0.1502
 1027YOPC   C1B14479   0.880   2.023   5.763  0.1268  0.1586 -0.1495
 1027YOPC   C2B14480   0.786   1.783   6.162  0.1077  0.1477  0.1568
 1027YOPC   D3B14481   0.344   1.725   6.328  0.1519 -0.0985  0.1385
 1027YOPC   C4B14482  -0.098   1.758   6.531  0.1286 -0.1931  0.0295
 1028YOPC   NC314483   4.796   9.699   5.059  0.0345  0.2106  0.2668
 1028YOPC   PO414484   4.589  10.093   5.043 -0.2115  0.0479  0.4879
 1028YOPC   GL114485   4.602  10.093   5.491  0.3788  0.0748 -0.2193
 1028YOPC   GL214486   4.668   9.825   5.592 -0.5136  0.4815 -0.0482
 1028YOPC   C1A14487   4.358  10.181   5.902  0.1797 -0.1190  0.1127
 1028YOPC   D2A14488   4.414  10.473   6.120  0.0168 -0.3606  0.0608
 1028YOPC   C3A14489   4.400  10.452   6.532 -0.2303  0.5138  0.3015
 1028YOPC   C4A14490   4.721  10.318   6.786  0.0996  0.0413 -0.5079
 1028YOPC   C1B14491   4.336   9.469   5.821  0.1912 -0.2952  0.2396
 1028YOPC   C2B14492   4.053   9.374   6.189  0.1087  0.1866  0.1805
 1028YOPC   D3B14493   3.862   9.607   6.532  0.1234  0.0025 -0.0371
 1028YOPC   C4B14494   3.629   9.404   6.875 -0.0862  0.0513  0.0804
 1029YOPC   NC314495   4.007  13.456   4.991 -0.1900  0.1653 -0.0738
 1029YOPC   PO414496   3.775  13.299   5.450 -0.0312  0.0663 -0.2627
 1029YOPC   GL114497   3.772  13.512   5.859 -0.4039  0.0576 -0.0099
 1029YOPC   GL214498   3.931  13.758   5.904  0.0294  0.1051  0.0249
 1029YOPC   C1A14499   3.645  13.752   6.373  0.2592 -0.0625 -0.0147
 1029YOPC   D2A14500   3.527  13.820   6.856  0.0864  0.2963 -0.2887
 1029YOPC   C3A14501   3.784  14.129   7.063 -0.0807  0.2454 -0.0913
 1029YOPC   C4A14502   4.184  14.209   7.107  0.0146 -0.1100  0.1363
 1029YOPC   C1B14503   4.151  13.494   6.200 -0.2446 -0.3007 -0.1212
 1029YOPC   C2B14504   4.570  13.519   6.301 -0.0348  0.2149 -0.3122
 1029YOPC   D3B14505   4.918  13.223   6.474  0.0075 -0.1817 -0.1606
 1029YOPC   C4B14506   4.841  13.016   6.833  0.2684  0.3761  0.1456
 1030YOPC   NC314507  12.330   8.028   4.683  0.3392 -0.4606  0.0362
 1030YOPC   PO414508  12.322   8.167   5.133 -0.0350  0.2223  0.1780
 1030YOPC   GL114509  12.192   8.124   5.557  0.3875  0.1117  0.1846
 1030YOPC   GL214510  12.253   7.808   5.679  0.2378  0.0920 -0.0420
 1030YOPC   C1A14511  11.839   8.138   5.865  0.0686  0.3774 -0.1194
 1030YOPC   D2A14512  11.887   8.296   6.166  0.0549 -0.0549  0.3245
 1030YOPC   C3A14513  11.997   8.100   6.528 -0.3177  0.3674  0.2508
 1030YOPC   C4A14514  12.048   7.783   6.724  0.0809  0.0424 -0.1211
 1030YOPC   C1B14515  12.590   7.481   5.938 -0.1337 -0.3701  0.2250
 1030YOPC   C2B14516  12.698   7.350   6.305 -0.1240 -0.0506 -0.2115
 1030YOPC   D3B14517  12.472   7.066   6.152  0.0040 -0.2034 -0.1249
 1030YOPC   C4B14518  12.519   6.658   5.893 -0.0370  0.4047  0.1539
 1031YOPC   NC314519   1.000   1.305   5.168  0.0330 -0.1969  0.1230
 1031YOPC   PO414520   0.672   1.431   5.279  0.0037 -0.3319 -0.0197
 1031YOPC   GL114521   0.600   1.605   5.678 -0.0624 -0.0574  0.0087
 1031YOPC   GL214522   0.313   1.698   5.730  0.0679  0.0777  0.0500
 1031YOPC   C1A14523   0.707   1.313   5.918  0.2641 -0.2685 -0.0208
 1031YOPC   D2A14524   0.821   1.178   6.399 -0.1165  0.4748 -0.1014
 1031YOPC   C3A14525   0.586   1.523   6.688  0.0361  0.2479  0.1769
 1031YOPC   C4A14526   0.407   1.867   6.984  0.0365  0.2967  0.0514
 1031YOPC   C1B14527  -0.033   1.830   5.928 -0.1516  0.0515  0.0012
 1031YOPC   C2B14528  -0.440   2.087   6.232  0.1590  0.1967  0.1990
 1031YOPC   D3B14529  -0.894   1.963   6.358 -0.0303  0.1080 -0.2452
 1031YOPC   C4B14530  -1.190   1.743   6.496 -0.0001  0.1036 -0.1350
 1032YOPC   NC314531   1.615   4.306   5.058 -0.2742  0.3564 -0.0153
 1032YOPC   PO414532   1.918   4.115   5.245 -0.0280 -0.1889  0.4466
 1032YOPC   GL114533   2.188   4.244   5.597 -0.2372  0.3342 -0.0088
 1032YOPC   GL214534   2.087   4.517   5.787  0.0122  0.1497 -0.0990
 1032YOPC   C1A14535   2.292   4.071   6.043  0.0954 -0.1773 -0.1804
 1032YOPC   D2A14536   2.257   3.952   6.489 -0.2740 -0.1313  0.2704
 1032YOPC   C3A14537   2.689   4.029   6.732  0.1234 -0.1106  0.0894
 1032YOPC   C4A14538   2.953   4.071   7.036 -0.0663  0.0105 -0.0585
 1032YOPC   C1B14539   2.512   4.527   5.900  0.1118 -0.0497  0.2568
 1032YOPC   C2B14540   2.974   4.686   5.908  0.3041  0.1777  0.1030
 1032YOPC   D3B14541   3.323   4.579   6.279 -0.0160 -0.1255  0.1491
 1032YOPC   C4B14542   3.093   4.419   6.664  0.0419  0.1795  0.2355
 1033YOPC   NC314543   3.595  17.168   5.187 -0.1175  0.0069 -0.1589
 1033YOPC   PO414544   4.015  17.080   5.322  0.1656  0.1421  0.0864
 1033YOPC   GL114545   3.723  16.959   5.608  0.1717 -0.0602 -0.2103
 1033YOPC   GL214546   3.808  17.086   5.867  0.0750 -0.0707  0.2920
 1033YOPC   C1A14547   3.622  16.597   5.843 -0.5587 -0.1736 -0.1289
 1033YOPC   D2A14548   3.633  16.344   6.237  0.0010  0.0310 -0.2434
 1033YOPC   C3A14549   3.565  16.598   6.651  0.0377 -0.3880  0.1763
 1033YOPC   C4A14550   3.330  16.529   7.058  0.0973  0.1413  0.0280
 1033YOPC   C1B14551   4.274  17.103   6.025  0.0683 -0.1030  0.0067
 1033YOPC   C2B14552   4.623  17.021   5.963  0.1262 -0.0127 -0.0805
 1033YOPC   D3B14553   4.769  16.989   6.356 -0.2990 -0.1889  0.2932
 1033YOPC   C4B14554   4.989  16.969   6.722  0.1136  0.0815  0.3671
 1034YOPC   NC314555   9.040   6.076   5.467 -0.4260 -0.3230  0.2373
 1034YOPC   PO414556   9.121   6.401   5.670  0.1352  0.0503 -0.2849
 1034YOPC   GL114557   9.023   6.661   5.975  0.0556  0.3162 -0.2835
 1034YOPC   GL214558   9.099   7.064   6.068  0.2607 -0.2533 -0.3273
 1034YOPC   C1A14559   8.975   6.746   6.422 -0.0034  0.1073 -0.0550
 1034YOPC   D2A14560   8.785   6.481   6.770  0.0097 -0.1278 -0.1508
 1034YOPC   C3A14561   8.608   6.835   7.089  0.0694 -0.1845  0.0697
 1034YOPC   C4A14562   8.783   7.070   7.493  0.3987 -0.1070  0.3273
 1034YOPC   C1B14563   9.301   7.127   6.401  0.0199 -0.0691  0.1768
 1034YOPC   C2B14564   9.414   7.248   6.863 -0.2043 -0.0493  0.0261
 1034YOPC   D3B14565   9.535   7.604   7.164  0.0062 -0.0817  0.3397
 1034YOPC   C4B14566   9.523   7.553   7.692 -0.2607 -0.1084  0.1756
 1035YOPC   NC314567  12.676  13.248   5.059 -0.4393  0.2199  0.1844
 1035YOPC   PO414568  13.039  13.141   5.347  0.0577  0.0958 -0.1011
 1035YOPC   GL114569  13.083  13.268   5.692  0.1480  0.4591 -0.3787
 1035YOPC   GL214570  12.789  13.482   5.950  0.0124  0.0216 -0.5576
 1035YOPC   C1A14571  13.270  13.431   5.998 -0.1363 -0.1386  0.2000
 1035YOPC   D2A14572  13.270  13.498   6.456 -0.0087  0.0276 -0.5902
 1035YOPC   C3A14573  12.843  13.489   6.567 -0.0735 -0.0255 -0.0453
 1035YOPC   C4A14574  12.402  13.612   6.510  0.0154 -0.0908  0.0991
 1035YOPC   C1B14575  13.081  13.892   5.824 -0.2916 -0.0718 -0.1316
 1035YOPC   C2B14576  13.534  14.018   5.876  0.0699 -0.0060  0.0782
 1035YOPC   D3B14577  13.667  13.750   6.166  0.0197  0.1738 -0.0928
 1035YOPC   C4B14578  13.913  13.376   6.158 -0.0848  0.0410  0.3305
 1036YOPC   NC314579   1.556   1.821   4.685  0.1710 -0.5483 -0.0412
 1036YOPC   PO414580   1.634   2.138   4.972 -0.5311  0.1692  0.1761
 1036YOPC   GL114581   1.651   2.427   5.443  0.0981  0.0228 -0.0039
 1036YOPC   GL214582   1.896   2.712   5.500 -0.1804 -0.0617  0.2168
 1036YOPC   C1A14583   1.696   2.492   5.905  0.6033  0.1796 -0.3425
 1036YOPC   D2A14584   1.513   2.573   6.202 -0.0502 -0.2136 -0.1468
 1036YOPC   C3A14585   1.612   2.428   6.619 -0.0739  0.0195  0.0846
 1036YOPC   C4A14586   1.810   2.563   6.978 -0.0167 -0.0463  0.0146
 1036YOPC   C1B14587   1.876   2.944   5.863 -0.2484 -0.3379  0.0492
 1036YOPC   C2B14588   1.950   2.842   6.319  0.1160 -0.1134  0.1217
 1036YOPC   D3B14589   1.895   3.103   6.656  0.1896 -0.2173 -0.1551
 1036YOPC   C4B14590   2.022   2.986   7.069  0.2301 -0.1064  0.0447
 1037YOPC   NC314591  15.734  11.606   5.423  0.0125  0.1008  0.0283
 1037YOPC   PO414592  15.925  11.080   5.380 -0.4442  0.1640  0.3270
 1037YOPC   GL114593  15.831  11.176   5.806 -0.0228 -0.0169  0.1929
 1037YOPC   GL214594  15.617  10.932   5.957 -0.0815 -0.0432  0.2648
 1037YOPC   C1A14595  15.721  11.470   6.101 -0.1756 -0.1904 -0.1165
 1037YOPC   D2A14596  16.031  11.518   6.429 -0.0901  0.0956  0.0697
 1037YOPC   C3A14597  16.108  11.813   6.880 -0.0250 -0.0378 -0.1252
 1037YOPC   C4A14598  16.189  12.264   6.872  0.1089  0.0609  0.1947
 1037YOPC   C1B14599  15.428  10.949   6.355 -0.0460 -0.1027 -0.2222
 1037YOPC   C2B14600  15.154  11.236   6.564 -0.1510  0.0440 -0.0483
 1037YOPC   D3B14601  15.472  11.400   6.765 -0.0573  0.0545  0.0208
 1037YOPC   C4B14602  15.693  11.458   7.080 -0.0121  0.2872 -0.1233
 1038YOPC   NC314603  13.714   6.103   5.008 -0.1280 -0.2517 -0.4747
 1038YOPC   PO414604  14.032   6.150   5.340 -0.0170  0.0747 -0.0020
 1038YOPC   GL114605  14.484   6.087   5.426  0.1720 -0.0379 -0.2234
 1038YOPC   GL214606  14.555   6.103   5.692 -0.1184 -0.0264  0.0836
 1038YOPC   C1A14607  14.941   6.311   5.411  0.2465  0.3570  0.0475
 1038YOPC   D2A14608  15.239   6.593   5.464  0.1535  0.4650 -0.0274
 1038YOPC   C3A14609  15.499   6.407   5.753  0.0745  0.1726  0.1181
 1038YOPC   C4A14610  15.401   6.268   6.135  0.4042  0.0740  0.1456
 1038YOPC   C1B14611  14.927   6.304   5.888  0.1527  0.0310  0.1010
 1038YOPC   C2B14612  15.126   6.712   6.145 -0.0055 -0.0924 -0.0433
 1038YOPC   D3B14613  15.564   6.684   6.392 -0.3842  0.0302  0.0049
 1038YOPC   C4B14614  15.954   6.492   6.427  0.1105 -0.0748 -0.0835
 1039YOPC   NC314615   3.332   0.239   4.945 -0.2676  0.1220 -0.0916
 1039YOPC   PO414616   3.799   0.059   5.099 -0.2659  0.1345  0.0046
 1039YOPC   GL114617   3.605   0.062   5.429 -0.1745 -0.2350  0.5572
 1039YOPC   GL214618   3.379   0.164   5.446 -0.1348  0.3428 -0.2951
 1039YOPC   C1A14619   3.850   0.200   5.828  0.3982 -0.2530 -0.4245
 1039YOPC   D2A14620   4.027   0.435   6.191 -0.4070  0.1414 -0.0830
 1039YOPC   C3A14621   3.804   0.287   6.633 -0.1467 -0.1605  0.3994
 1039YOPC   C4A14622   3.575   0.278   7.037 -0.4325  0.2526 -0.0014
 1039YOPC   C1B14623   3.407   0.039   5.900  0.3126  0.0702  0.2711
 1039YOPC   C2B14624   3.402   0.200   6.353  0.0259  0.1099 -0.1770
 1039YOPC   D3B14625   3.086   0.342   6.620  0.2193 -0.0334 -0.1443
 1039YOPC   C4B14626   2.624   0.093   6.710  0.3034  0.2884  0.0886
 1040YOPC   NC314627   3.385   9.072   4.840 -0.1966  0.4152  0.0534
 1040YOPC   PO414628   3.007   9.191   5.138 -0.4315  0.0521 -0.0145
 1040YOPC   GL114629   3.091   8.770   5.479  0.1123 -0.1637  0.0193
 1040YOPC   GL214630   2.831   8.864   5.707 -0.2753  0.0249  0.0340
 1040YOPC   C1A14631   3.341   8.640   5.819  0.0496  0.0660  0.1171
 1040YOPC   D2A14632   3.555   8.244   5.785 -0.0343  0.2512  0.0380
 1040YOPC   C3A14633   3.682   8.091   6.219 -0.2985  0.0239  0.0013
 1040YOPC   C4A14634   3.787   7.937   6.645 -0.0442  0.2284  0.3182
 1040YOPC   C1B14635   2.669   8.781   6.092 -0.3476  0.1515  0.0433
 1040YOPC   C2B14636   2.475   8.885   6.501  0.2115 -0.0318 -0.2721
 1040YOPC   D3B14637   2.574   9.156   6.853 -0.0860 -0.0300  0.0937
 1040YOPC   C4B14638   2.805   9.014   7.307  0.0355 -0.0673  0.0778
 1041YOPC   NC314639   7.802   9.355   5.255 -0.2041 -0.2172 -0.0511
 1041YOPC   PO414640   8.219   9.471   5.208  0.1607 -0.0512 -0.0494
 1041YOPC   GL114641   8.336   9.431   5.595  0.2713 -0.0401  0.0381
 1041YOPC   GL214642   8.578   9.569   5.594  0.0556 -0.0451  0.0920
 1041YOPC   C1A14643   8.002   9.064   5.852  0.0148 -0.0155 -0.2150
 1041YOPC   D2A14644   7.881   8.943   6.242 -0.1370  0.0056  0.0038
 1041YOPC   C3A14645   7.620   9.195   6.522  0.4135  0.0075  0.3206
 1041YOPC   C4A14646   7.549   9.163   6.982 -0.1406  0.2818  0.1424
 1041YOPC   C1B14647   8.629   9.636   5.957 -0.1182  0.1393  0.2883
 1041YOPC   C2B14648   8.674   9.573   6.341  0.0690  0.4292 -0.1221
 1041YOPC   D3B14649   8.451   9.771   6.664  0.1301 -0.2033  0.2361
 1041YOPC   C4B14650   8.168   9.957   7.117  0.2179 -0.0706 -0.0006
 1042YOPC   NC314651   2.509  11.997   5.323 -0.1885 -0.3463  0.1889
 1042YOPC   PO414652   2.283  12.116   5.668  0.0687  0.2911 -0.0780
 1042YOPC   GL114653   2.104  12.015   5.951 -0.0414 -0.0430 -0.1330
 1042YOPC   GL214654   1.979  12.160   6.196 -0.0809 -0.1780  0.2342
 1042YOPC   C1A14655   2.354  11.766   6.213  0.1446 -0.0272 -0.0902
 1042YOPC   D2A14656   2.657  11.716   6.441 -0.1813  0.0630 -0.0463
 1042YOPC   C3A14657   2.500  11.763   6.850  0.0478 -0.4274  0.3282
 1042YOPC   C4A14658   2.715  11.806   7.135 -0.1273  0.0982  0.0987
 1042YOPC   C1B14659   2.169  12.082   6.610 -0.1465  0.1068  0.1452
 1042YOPC   C2B14660   2.293  12.126   7.146 -0.1858  0.0074  0.0448
 1042YOPC   D3B14661   2.154  12.431   7.317  0.1185 -0.0982 -0.1751
 1042YOPC   C4B14662   1.986  12.780   7.585 -0.0558  0.3545 -0.0035
 1043YOPC   NC314663  10.270   3.559   5.915  0.1196  0.3255  0.0845
 1043YOPC   PO414664   9.863   3.802   5.690  0.1188  0.0220 -0.2906
 1043YOPC   GL114665   9.504   3.648   6.061  0.0443  0.2360  0.1344
 1043YOPC   GL214666   9.149   3.621   6.252  0.0038 -0.3032  0.1132
 1043YOPC   C1A14667   9.770   3.608   6.380  0.2206  0.0574 -0.0686
 1043YOPC   D2A14668   9.917   3.812   6.773  0.2598  0.2824 -0.0446
 1043YOPC   C3A14669   9.581   4.012   7.117 -0.1417  0.0542  0.1675
 1043YOPC   C4A14670   9.159   4.165   7.382  0.2022  0.0455 -0.0188
 1043YOPC   C1B14671   8.797   3.820   6.350  0.2621  0.0934  0.3595
 1043YOPC   C2B14672   8.238   3.875   6.492 -0.1088  0.2155 -0.1674
 1043YOPC   D3B14673   7.905   3.565   6.494 -0.4938  0.1238 -0.2326
 1043YOPC   C4B14674   7.608   3.695   6.743 -0.0913  0.3040  0.0364
 1044YOPC   NC314675  13.931   0.755   4.901 -0.1484 -0.2737  0.1786
 1044YOPC   PO414676  13.700   0.933   5.284 -0.0482 -0.1448 -0.3183
 1044YOPC   GL114677  13.566   1.040   5.601 -0.5143 -0.4323 -0.0658
 1044YOPC   GL214678  13.729   0.890   5.794  0.0354 -0.0994  0.1291
 1044YOPC   C1A14679  13.582   1.278   6.052 -0.1666 -0.2537  0.1808
 1044YOPC   D2A14680  13.703   1.557   6.393  0.0240  0.1960 -0.0860
 1044YOPC   C3A14681  14.018   1.432   6.567 -0.1091 -0.2358 -0.1388
 1044YOPC   C4A14682  14.327   1.316   6.851 -0.2005  0.0456 -0.2381
 1044YOPC   C1B14683  13.832   0.479   5.821  0.0862 -0.1702 -0.1732
 1044YOPC   C2B14684  13.889   0.087   6.030  0.2348  0.3192  0.0505
 1044YOPC   D3B14685  13.714  -0.273   6.108 -0.2444  0.1717  0.2880
 1044YOPC   C4B14686  13.431  -0.570   6.289 -0.0698 -0.2552  0.0276
 1045YOPC   NC314687  15.546   1.417   4.937 -0.1899  0.1546  0.1287
 1045YOPC   PO414688  15.959   1.479   5.231 -0.1173 -0.4967  0.2062
 1045YOPC   GL114689  16.129   1.496   5.604 -0.1920  0.0358  0.0343
 1045YOPC   GL214690  16.374   1.369   5.521  0.0967  0.1981 -0.1814
 1045YOPC   C1A14691  16.380   1.500   5.959 -0.0692 -0.1909 -0.2995
 1045YOPC   D2A14692  16.451   1.201   6.213 -0.3436  0.3655  0.0126
 1045YOPC   C3A14693  16.066   1.116   6.390  0.1010 -0.1389 -0.2607
 1045YOPC   C4A14694  15.717   1.271   6.585 -0.1209  0.0143 -0.1548
 1045YOPC   C1B14695  16.539   1.054   5.699 -0.1346 -0.3964 -0.1489
 1045YOPC   C2B14696  16.333   0.791   6.084  0.1968  0.0186 -0.1017
 1045YOPC   D3B14697  16.518   0.648   6.457  0.1138  0.2057  0.0320
 1045YOPC   C4B14698  16.292   0.293   6.743  0.3152 -0.3561 -0.3068
 1046YOPC   NC314699  14.277  13.352   5.399 -0.0023  0.1391 -0.1485
 1046YOPC   PO414700  14.357  12.967   5.587  0.2453  0.1330  0.2090
 1046YOPC   GL114701  14.610  12.776   5.931  0.1102 -0.0772 -0.0180
 1046YOPC   GL214702  14.760  12.463   5.946 -0.0901  0.2685  0.0898
 1046YOPC   C1A14703  14.650  12.722   6.422 -0.1625  0.1378  0.1960
 1046YOPC   D2A14704  14.565  12.611   6.874  0.0350  0.0656  0.2608
 1046YOPC   C3A14705  14.653  12.135   6.868  0.2790  0.0785 -0.2146
 1046YOPC   C4A14706  14.488  11.953   7.349  0.2138 -0.1250 -0.1790
 1046YOPC   C1B14707  14.318  12.384   6.075  0.1307 -0.1943 -0.0279
 1046YOPC   C2B14708  14.249  12.417   6.474 -0.2575  0.0732 -0.0601
 1046YOPC   D3B14709  13.788  12.508   6.565 -0.0905  0.0432  0.1396
 1046YOPC   C4B14710  13.488  12.815   6.578 -0.2501  0.1043  0.0626
 1047YOPC   NC314711   5.841  16.446   5.536  0.0025  0.2151 -0.1553
 1047YOPC   PO414712   6.220  16.452   5.340 -0.2919  0.2451  0.1149
 1047YOPC   GL114713   6.380  16.424   5.684 -0.1739  0.2493 -0.2317
 1047YOPC   GL214714   6.620  16.650   5.727 -0.1792  0.2956 -0.0669
 1047YOPC   C1A14715   6.190  16.522   6.022 -0.0475  0.0761  0.2429
 1047YOPC   D2A14716   6.183  16.642   6.408  0.0904  0.1634 -0.1970
 1047YOPC   C3A14717   5.986  16.440   6.764  0.1449  0.1167 -0.0444
 1047YOPC   C4A14718   6.140  16.325   7.140 -0.0077  0.0467 -0.0501
 1047YOPC   C1B14719   6.517  17.018   5.921  0.2620 -0.0362 -0.0368
 1047YOPC   C2B14720   6.410  17.112   6.408  0.0292 -0.0222  0.2031
 1047YOPC   D3B14721   5.956  17.224   6.516  0.2288 -0.2551 -0.0749
 1047YOPC   C4B14722   5.710  17.454   6.726  0.1888  0.0698  0.4122
 1048YOPC   NC314723  14.881  18.275   5.044 -0.1475 -0.3878  0.3610
 1048YOPC   PO414724  15.363  18.135   5.053 -0.2721 -0.0624 -0.0123
 1048YOPC   GL114725  15.296  18.160   5.481 -0.0375 -0.2196 -0.0846
 1048YOPC   GL214726  14.887  18.326   5.523 -0.2205  0.1682 -0.0396
 1048YOPC   C1A14727  15.264  18.200   5.930  0.1735 -0.2683  0.0168
 1048YOPC   D2A14728  15.198  18.010   6.268 -0.0957  0.0169  0.3207
 1048YOPC   C3A14729  15.382  18.160   6.575 -0.0399  0.0162 -0.0657
 1048YOPC   C4A14730  15.702  17.926   6.725 -0.2390  0.0353 -0.1458
 1048YOPC   C1B14731  14.740  18.243   6.007 -0.2748  0.1404 -0.2890
 1048YOPC   C2B14732  14.663  18.311   6.461 -0.1568  0.1514 -0.0393
 1048YOPC   D3B14733  14.300  18.251   6.678  0.1820 -0.0148  0.0669
 1048YOPC   C4B14734  13.897  18.164   6.607  0.0931  0.1320 -0.0871
 1049YOPC   NC314735  17.730  16.892   4.784  0.1179  0.0227 -0.0940
 1049YOPC   PO414736  17.334  17.123   4.867 -0.4515  0.0416 -0.1563
 1049YOPC   GL114737  17.369  17.180   5.326 -0.1826  0.1089 -0.4537
 1049YOPC   GL214738  17.537  17.542   5.451 -0.0385  0.2251  0.0474
 1049YOPC   C1A14739  17.704  16.902   5.596  0.0134  0.1060 -0.0468
 1049YOPC   D2A14740  17.861  17.034   5.969  0.5021  0.1551 -0.0413
 1049YOPC   C3A14741  18.164  17.365   5.764  0.2946  0.1554  0.2237
 1049YOPC   C4A14742  18.283  17.295   5.362  0.3506  0.0942  0.1195
 1049YOPC   C1B14743  17.666  17.448   5.752  0.0198 -0.1877 -0.0587
 1049YOPC   C2B14744  17.899  17.616   6.074  0.0171 -0.1376  0.3980
 1049YOPC   D3B14745  17.935  17.285   6.369  0.0517 -0.2444  0.1368
 1049YOPC   C4B14746  17.626  16.923   6.449 -0.4255  0.1447 -0.2706
 1050YOPC   NC314747  12.484  15.629   5.564  0.0044 -0.3321 -0.1968
 1050YOPC   PO414748  11.986  15.753   5.595  0.1745  0.5162 -0.2535
 1050YOPC   GL114749  12.027  15.645   5.935  0.2439  0.0074 -0.3741
 1050YOPC   GL214750  12.378  15.466   5.998 -0.0260 -0.3959 -0.0869
 1050YOPC   C1A14751  12.144  15.802   6.314 -0.0532  0.1491  0.1224
 1050YOPC   D2A14752  12.063  16.214   6.396  0.1416  0.0775  0.2052
 1050YOPC   C3A14753  11.928  16.331   6.689 -0.1689 -0.0354  0.1660
 1050YOPC   C4A14754  11.881  16.673   6.968 -0.1767  0.3328 -0.0404
 1050YOPC   C1B14755  12.492  15.361   6.328  0.2359 -0.0330 -0.2006
 1050YOPC   C2B14756  12.545  15.151   6.782 -0.1328 -0.1051  0.0972
 1050YOPC   D3B14757  12.699  14.802   6.862  0.1390  0.0107 -0.1873
 1050YOPC   C4B14758  13.114  14.563   6.983 -0.0905  0.0825  0.2444
 1051YOPC   NC314759   9.308   5.628   5.483  0.2078 -0.3972  0.1118
 1051YOPC   PO414760   8.814   5.671   5.676 -0.1592  0.2438 -0.2447
 1051YOPC   GL114761   8.696   5.612   6.099 -0.0899  0.2561 -0.1111
 1051YOPC   GL214762   8.700   5.340   6.244 -0.0814  0.1941  0.2735
 1051YOPC   C1A14763   8.665   5.940   6.441  0.1536 -0.0154 -0.3433
 1051YOPC   D2A14764   8.793   5.898   6.852  0.2383 -0.1492 -0.0283
 1051YOPC   C3A14765   9.073   5.656   7.020  0.1632 -0.1584 -0.2313
 1051YOPC   C4A14766   9.204   5.285   6.795  0.1628  0.0578  0.1184
 1051YOPC   C1B14767   8.642   5.420   6.567  0.0079 -0.0822  0.4104
 1051YOPC   C2B14768   8.527   5.496   6.997  0.2555  0.2105 -0.2094
 1051YOPC   D3B14769   8.733   5.626   7.460 -0.2686  0.2141  0.3338
 1051YOPC   C4B14770   9.237   5.498   7.483  0.0960 -0.0997  0.3053
 1052YOPC   NC314771  18.493  16.494   5.108  0.2026  0.2814  0.0877
 1052YOPC   PO414772  18.758  16.812   5.075  0.0361 -0.2897 -0.1079
 1052YOPC   GL114773  18.862  16.874   5.447  0.1708  0.3946 -0.0012
 1052YOPC   GL214774  19.286  16.872   5.530  0.4252 -0.0544 -0.0085
 1052YOPC   C1A14775  18.910  16.732   5.840 -0.1532 -0.1336  0.0943
 1052YOPC   D2A14776  18.819  16.816   6.248  0.2244 -0.1520  0.2040
 1052YOPC   C3A14777  19.074  16.838   6.635 -0.1949 -0.1809  0.1194
 1052YOPC   C4A14778  19.276  16.555   6.853 -0.0422 -0.3301  0.0346
 1052YOPC   C1B14779  19.161  17.154   5.927 -0.1522  0.2831  0.1683
 1052YOPC   C2B14780  19.437  17.295   6.354  0.2748  0.0727 -0.0807
 1052YOPC   D3B14781  19.781  17.701   6.259  0.0498 -0.0486  0.0596
 1052YOPC   C4B14782  20.225  17.784   6.248  0.0548 -0.2874  0.2645
 1053YOPC   NC314783   9.066   6.926   5.496  0.1126 -0.0431 -0.0944
 1053YOPC   PO414784   9.433   6.785   5.715 -0.0772 -0.4722  0.3565
 1053YOPC   GL114785   9.659   6.942   6.067 -0.2712  0.1928  0.0417
 1053YOPC   GL214786   9.956   7.007   6.017 -0.1091 -0.0402 -0.0469
 1053YOPC   C1A14787   9.957   6.592   6.317 -0.0514 -0.1384  0.1834
 1053YOPC   D2A14788  10.248   6.323   6.499  0.1998  0.1789 -0.3949
 1053YOPC   C3A14789  10.291   6.032   6.735  0.0814 -0.0707 -0.1497
 1053YOPC   C4A14790  10.703   5.824   6.977  0.1376  0.0777  0.2515
 1053YOPC   C1B14791  10.298   7.000   6.079  0.1021 -0.0572 -0.1762
 1053YOPC   C2B14792  10.368   6.815   6.536 -0.2972  0.0753 -0.4608
 1053YOPC   D3B14793  10.804   6.709   6.703 -0.1540 -0.1496  0.4137
 1053YOPC   C4B14794  11.232   6.527   6.886  0.4539 -0.0093 -0.0370
 1054YOPC   NC314795   7.787  16.339   5.365 -0.2239 -0.3874  0.3369
 1054YOPC   PO414796   7.465  16.191   5.610 -0.3057 -0.2353 -0.0336
 1054YOPC   GL114797   7.132  16.256   5.939  0.1410  0.1050  0.0417
 1054YOPC   GL214798   6.970  15.926   6.072 -0.1198  0.0784  0.2049
 1054YOPC   C1A14799   7.090  16.234   6.432  0.0956  0.0077 -0.0261
 1054YOPC   D2A14800   7.409  15.988   6.849 -0.1746 -0.1087 -0.0832
 1054YOPC   C3A14801   7.716  15.738   6.984 -0.3976 -0.1373 -0.1058
 1054YOPC   C4A14802   7.950  15.393   6.944 -0.0979  0.3047 -0.0438
 1054YOPC   C1B14803   6.631  16.279   6.137 -0.1641  0.0449  0.0954
 1054YOPC   C2B14804   6.686  16.622   6.490 -0.0291 -0.1351 -0.4449
 1054YOPC   D3B14805   6.419  16.862   6.840  0.1802  0.2094 -0.2000
 1054YOPC   C4B14806   6.125  16.832   7.031  0.4681 -0.1907 -0.6913
 1055YOPC   NC314807   7.439  10.797   4.878 -0.4054  0.0227  0.0550
 1055YOPC   PO414808   7.701  10.973   5.050 -0.0182 -0.1852  0.4409
 1055YOPC   GL114809   7.848  10.987   5.451  0.1954  0.4274  0.1014
 1055YOPC   GL214810   8.192  10.855   5.461 -0.0839 -0.0114  0.2134
 1055YOPC   C1A14811   7.819  11.044   5.861 -0.2432 -0.0322 -0.1470
 1055YOPC   D2A14812   7.808  10.846   6.238 -0.0407 -0.1389  0.1194
 1055YOPC   C3A14813   7.519  11.003   6.522 -0.0913 -0.0323  0.1377
 1055YOPC   C4A14814   7.223  11.155   6.914 -0.0036 -0.0999 -0.0885
 1055YOPC   C1B14815   8.303  10.395   5.371 -0.0345  0.0803  0.0809
 1055YOPC   C2B14816   8.567  10.053   5.431  0.1270 -0.0322 -0.2865
 1055YOPC   D3B14817   8.708  10.070   5.749  0.0777 -0.3200 -0.2725
 1055YOPC   C4B14818   8.615  10.135   6.172  0.2124 -0.0647 -0.0016
 1056YOPC   NC314819  17.245   5.005   5.129 -0.0698 -0.0707 -0.2960
 1056YOPC   PO414820  17.464   4.612   5.213  0.1691 -0.0765  0.2620
 1056YOPC   GL114821  17.371   4.581   5.632  0.3422  0.0875 -0.3335
 1056YOPC   GL214822  17.353   4.982   5.745 -0.0361 -0.1073  0.0658
 1056YOPC   C1A14823  17.504   4.633   6.030 -0.1156 -0.1087 -0.1548
 1056YOPC   D2A14824  17.479   4.364   6.473  0.1970 -0.0575  0.0636
 1056YOPC   C3A14825  17.838   4.444   6.718  0.3335 -0.0327  0.2035
 1056YOPC   C4A14826  17.901   4.830   6.832  0.2708 -0.1289  0.2014
 1056YOPC   C1B14827  17.524   5.120   6.092 -0.1115 -0.2287 -0.0000
 1056YOPC   C2B14828  17.477   4.899   6.518 -0.1418 -0.0921 -0.2058
 1056YOPC   D3B14829  17.305   4.714   6.839 -0.0572  0.2644  0.1453
 1056YOPC   C4B14830  17.299   4.326   6.959 -0.2892  0.1743  0.2080
 1057YOPC   NC314831  14.604   1.445   5.241 -0.0660  0.0582 -0.1130
 1057YOPC   PO414832  14.820   1.441   4.805 -0.4737 -0.2604  0.1144
 1057YOPC   GL114833  15.080   1.265   5.236 -0.3107 -0.1354  0.2422
 1057YOPC   GL214834  15.167   1.473   5.462  0.0664 -0.0045  0.0593
 1057YOPC   C1A14835  15.172   0.928   5.481  0.1123  0.1983 -0.0211
 1057YOPC   D2A14836  15.495   0.940   5.756 -0.0513  0.2082  0.0033
 1057YOPC   C3A14837  15.472   0.890   6.266  0.1452  0.0440 -0.1293
 1057YOPC   C4A14838  15.353   0.894   6.612  0.1073 -0.1250  0.0846
 1057YOPC   C1B14839  15.079   1.282   5.848 -0.0285 -0.3289 -0.1000
 1057YOPC   C2B14840  15.042   1.172   6.159 -0.1824 -0.0904 -0.1236
 1057YOPC   D3B14841  15.212   1.423   6.457  0.2223 -0.0172  0.0127
 1057YOPC   C4B14842  15.161   1.291   6.945 -0.2984 -0.2092 -0.0782
 1058YOPC   NC314843  13.819  10.115   5.028 -0.0195 -0.0720 -0.0618
 1058YOPC   PO414844  13.864   9.869   5.338  0.0312  0.4812  0.0156
 1058YOPC   GL114845  13.959   9.786   5.728  0.0361  0.2003 -0.0786
 1058YOPC   GL214846  14.252   9.714   5.853  0.2286 -0.0165 -0.0802
 1058YOPC   C1A14847  13.741   9.925   5.999  0.1774 -0.2058 -0.3614
 1058YOPC   D2A14848  13.484  10.195   6.295 -0.0912  0.3362  0.1653
 1058YOPC   C3A14849  13.535  10.209   6.681 -0.2320  0.0710 -0.0432
 1058YOPC   C4A14850  13.751  10.131   7.066 -0.1663 -0.3422  0.1356
 1058YOPC   C1B14851  14.125   9.673   6.257 -0.5324 -0.0404 -0.0586
 1058YOPC   C2B14852  13.737   9.780   6.498 -0.0839 -0.4025  0.1283
 1058YOPC   D3B14853  13.762   9.623   6.906  0.2450 -0.0679 -0.1994
 1058YOPC   C4B14854  13.534   9.484   7.291  0.2450 -0.1184 -0.0024
 1059YOPC   NC314855   5.433  14.802   5.648  0.0001  0.0483 -0.0777
 1059YOPC   PO414856   5.152  15.068   5.482 -0.0852 -0.2400 -0.1619
 1059YOPC   GL114857   5.035  15.258   5.885  0.2704 -0.1316 -0.1634
 1059YOPC   GL214858   4.730  15.541   5.809 -0.3508 -0.4700  0.0916
 1059YOPC   C1A14859   4.849  15.215   6.244 -0.1616  0.2370 -0.3207
 1059YOPC   D2A14860   4.588  15.158   6.543  0.2935  0.3166  0.0666
 1059YOPC   C3A14861   4.765  14.905   6.848 -0.0658 -0.2225 -0.0434
 1059YOPC   C4A14862   4.758  14.819   7.277 -0.2262  0.2475  0.1913
 1059YOPC   C1B14863   4.373  15.446   6.124 -0.1320  0.0890  0.0672
 1059YOPC   C2B14864   4.195  15.515   6.491 -0.2624 -0.1674  0.0384
 1059YOPC   D3B14865   4.544  15.621   6.715 -0.1669 -0.1876  0.0214
 1059YOPC   C4B14866   4.961  15.415   6.697 -0.0978 -0.0192  0.2765
 1060YOPC   NC314867  12.887  11.969   5.104  0.1031  0.2451  0.1424
 1060YOPC   PO414868  12.848  11.635   5.375  0.0879  0.0963  0.1454
 1060YOPC   GL114869  12.822  11.306   5.673  0.2649  0.1761 -0.0524
 1060YOPC   GL214870  12.459  11.261   5.739 -0.1837  0.0324 -0.0007
 1060YOPC   C1A14871  12.847  11.273   6.100 -0.1607  0.0815  0.0498
 1060YOPC   D2A14872  12.909  11.440   6.501  0.0852  0.0628  0.0045
 1060YOPC   C3A14873  12.631  11.688   6.889  0.1929  0.1641 -0.3148
 1060YOPC   C4A14874  12.256  11.707   7.011 -0.0638 -0.2374 -0.1804
 1060YOPC   C1B14875  12.542  11.699   5.966 -0.0235 -0.0138 -0.3184
 1060YOPC   C2B14876  12.462  11.630   6.390 -0.1218  0.2659  0.0216
 1060YOPC   D3B14877  12.047  11.606   6.598  0.0337 -0.1668 -0.0079
 1060YOPC   C4B14878  11.729  11.355   6.626  0.4688  0.2103 -0.0071
 1061YOPC   NC314879  13.491   1.949   4.889  0.2604 -0.3741  0.1481
 1061YOPC   PO414880  13.576   1.961   5.305  0.0990 -0.0283  0.0150
 1061YOPC   GL114881  13.768   2.069   5.630 -0.2835 -0.2137 -0.0064
 1061YOPC   GL214882  14.050   2.179   5.722  0.1540  0.1543  0.1080
 1061YOPC   C1A14883  13.673   2.067   6.168 -0.1366 -0.0666  0.1595
 1061YOPC   D2A14884  13.831   2.113   6.575 -0.0231  0.0886  0.2648
 1061YOPC   C3A14885  13.632   2.241   6.941 -0.0712 -0.2173  0.0440
 1061YOPC   C4A14886  13.518   2.280   7.393 -0.1684 -0.2964 -0.2930
 1061YOPC   C1B14887  14.107   2.440   6.098 -0.3952 -0.1123 -0.2283
 1061YOPC   C2B14888  14.104   2.558   6.566 -0.0614 -0.0420  0.1128
 1061YOPC   D3B14889  14.027   2.477   6.977  0.2338 -0.0827 -0.0206
 1061YOPC   C4B14890  13.992   2.127   7.325  0.1955  0.0642  0.0332
 1062YOPC   NC314891   6.775   8.170   5.218 -0.0947  0.1786 -0.3177
 1062YOPC   PO414892   6.356   8.039   5.363  0.1567 -0.2972  0.3192
 1062YOPC   GL114893   6.345   8.350   5.790  0.0561 -0.0861 -0.1274
 1062YOPC   GL214894   6.441   8.174   5.951  0.0129 -0.0684  0.0764
 1062YOPC   C1A14895   6.225   8.664   6.109 -0.0706  0.0643 -0.1505
 1062YOPC   D2A14896   6.264   8.730   6.627 -0.4703 -0.2254 -0.0965
 1062YOPC   C3A14897   5.884   8.567   6.784  0.0996 -0.2212 -0.1383
 1062YOPC   C4A14898   5.477   8.591   6.623  0.4164 -0.4032  0.0325
 1062YOPC   C1B14899   6.321   7.893   6.252  0.1811 -0.1667 -0.0415
 1062YOPC   C2B14900   6.660   7.854   6.563 -0.2176 -0.0486 -0.0203
 1062YOPC   D3B14901   6.528   7.553   6.815 -0.2480 -0.1874 -0.2622
 1062YOPC   C4B14902   6.313   7.175   6.923 -0.0919  0.1998 -0.1052
 1063YOPC   NC314903   8.165   5.954   5.168 -0.1341 -0.1206 -0.2629
 1063YOPC   PO414904   8.541   6.080   5.360 -0.2570 -0.0958 -0.1391
 1063YOPC   GL114905   8.301   5.787   5.702  0.3135 -0.1163 -0.2796
 1063YOPC   GL214906   7.950   5.698   5.655 -0.2964 -0.2233  0.2451
 1063YOPC   C1A14907   8.257   6.091   6.114 -0.1224 -0.4069 -0.0710
 1063YOPC   D2A14908   7.835   6.270   6.395  0.3074  0.2326  0.1210
 1063YOPC   C3A14909   7.829   6.244   6.781 -0.2163  0.2444  0.2055
 1063YOPC   C4A14910   7.849   5.895   7.030  0.2752 -0.0456  0.1958
 1063YOPC   C1B14911   7.751   5.384   5.873  0.3054  0.1171  0.2359
 1063YOPC   C2B14912   7.418   5.380   6.243 -0.2220 -0.0406  0.2106
 1063YOPC   D3B14913   7.266   5.244   6.591 -0.0023  0.0075  0.1099
 1063YOPC   C4B14914   7.132   5.038   6.998  0.2945 -0.1744 -0.2955
 1064YOPC   NC314915   1.453  17.154   4.816  0.3986 -0.1543 -0.1019
 1064YOPC   PO414916   1.510  17.524   5.126  0.0684 -0.0480 -0.1441
 1064YOPC   GL114917   1.446  17.338   5.530  0.3133 -0.0990  0.0463
 1064YOPC   GL214918   1.499  17.587   5.663  0.0178  0.4193  0.0977
 1064YOPC   C1A14919   1.246  17.005   5.803 -0.0883 -0.0162 -0.0849
 1064YOPC   D2A14920   1.324  16.861   6.171 -0.4311 -0.0210 -0.2679
 1064YOPC   C3A14921   1.703  16.717   6.483  0.0791  0.1297 -0.2692
 1064YOPC   C4A14922   1.901  16.936   6.816 -0.1973  0.0626  0.0732
 1064YOPC   C1B14923   1.464  17.551   6.082  0.1265 -0.0202 -0.1201
 1064YOPC   C2B14924   1.590  17.241   6.407  0.2028  0.1808 -0.0708
 1064YOPC   D3B14925   1.640  17.425   6.819  0.2521 -0.0881  0.0336
 1064YOPC   C4B14926   1.443  17.588   7.089  0.3698  0.1843 -0.0642
 1065YOPC   NC314927   2.409   6.484   5.087  0.2938 -0.2846 -0.0933
 1065YOPC   PO414928   2.249   6.072   5.154  0.1437 -0.1826  0.2727
 1065YOPC   GL114929   2.252   6.196   5.534  0.0627 -0.2254  0.0678
 1065YOPC   GL214930   2.283   6.020   5.805 -0.1021  0.1967  0.0437
 1065YOPC   C1A14931   2.085   6.499   5.837 -0.3259 -0.3667 -0.3076
 1065YOPC   D2A14932   1.647   6.427   6.160  0.3982  0.2671 -0.2137
 1065YOPC   C3A14933   1.641   5.959   6.363 -0.1077  0.1446 -0.3130
 1065YOPC   C4A14934   1.380   5.939   6.738  0.0031  0.0909 -0.0951
 1065YOPC   C1B14935   2.095   6.123   6.193 -0.2684  0.0822 -0.0406
 1065YOPC   C2B14936   2.279   6.558   6.357 -0.1899 -0.2524 -0.2831
 1065YOPC   D3B14937   2.173   6.488   6.798 -0.1623  0.2073 -0.1101
 1065YOPC   C4B14938   2.082   6.476   7.107 -0.2804  0.4234  0.0142
 1066YOPC   NC314939   9.289  11.403   5.218  0.0157 -0.0987 -0.0781
 1066YOPC   PO414940   8.854  11.180   5.017 -0.0529  0.2857  0.0999
 1066YOPC   GL114941   8.687  11.303   5.406  0.0697 -0.3138 -0.0985
 1066YOPC   GL214942   8.998  11.380   5.642 -0.1344  0.1727  0.2322
 1066YOPC   C1A14943   8.648  11.049   5.752  0.3208 -0.0763  0.0438
 1066YOPC   D2A14944   8.756  10.861   6.055 -0.1463 -0.0059  0.1210
 1066YOPC   C3A14945   8.928  11.028   6.412 -0.3759 -0.1972  0.2665
 1066YOPC   C4A14946   9.064  11.406   6.637  0.5567 -0.1453  0.1330
 1066YOPC   C1B14947   8.854  11.416   6.002 -0.0369 -0.1718 -0.2604
 1066YOPC   C2B14948   9.111  11.730   6.266  0.1007 -0.3547 -0.0775
 1066YOPC   D3B14949   8.948  12.030   6.674 -0.2412 -0.1456 -0.0261
 1066YOPC   C4B14950   9.186  12.381   6.785  0.2618 -0.0564  0.0488
 1067YOPC   NC314951   2.798   5.099   5.052  0.0047  0.0105  0.0416
 1067YOPC   PO414952   3.007   5.496   5.280 -0.1384  0.1882 -0.0108
 1067YOPC   GL114953   2.792   5.439   5.735 -0.2845  0.0258 -0.3248
 1067YOPC   GL214954   3.053   5.274   5.872  0.3034 -0.1544 -0.2648
 1067YOPC   C1A14955   2.548   5.579   6.042  0.2148 -0.1400  0.0951
 1067YOPC   D2A14956   2.582   5.548   6.414  0.2039 -0.0479 -0.5805
 1067YOPC   C3A14957   2.712   5.199   6.746  0.1110  0.0186 -0.0204
 1067YOPC   C4A14958   3.156   4.955   6.555  0.0917  0.1282  0.1407
 1067YOPC   C1B14959   3.080   5.338   6.295  0.2411  0.0530 -0.0497
 1067YOPC   C2B14960   3.183   5.393   6.743  0.1192  0.0227  0.2225
 1067YOPC   D3B14961   2.931   5.531   7.083  0.1653  0.0773 -0.1238
 1067YOPC   C4B14962   2.670   5.335   7.455  0.0827  0.1314  0.2410
 1068YOPC   NC314963   3.824   4.691   5.015  0.0053 -0.2397  0.0090
 1068YOPC   PO414964   4.220   4.446   5.107 -0.0606  0.2848 -0.1305
 1068YOPC   GL114965   4.039   4.112   5.345  0.2281  0.0326 -0.1516
 1068YOPC   GL214966   4.252   3.867   5.442  0.1740  0.0894 -0.2698
 1068YOPC   C1A14967   3.671   3.962   5.533  0.1031 -0.1901 -0.5048
 1068YOPC   D2A14968   3.591   3.896   5.985  0.1575  0.4139 -0.1806
 1068YOPC   C3A14969   3.879   3.738   6.273 -0.3289  0.0978 -0.2110
 1068YOPC   C4A14970   4.321   3.666   6.187  0.2067 -0.0184  0.4461
 1068YOPC   C1B14971   4.545   4.185   5.712  0.4048  0.2031  0.1018
 1068YOPC   C2B14972   4.448   4.202   6.152  0.1691  0.1125 -0.0147
 1068YOPC   D3B14973   4.328   4.022   6.511  0.4109 -0.3665 -0.1469
 1068YOPC   C4B14974   3.910   4.003   6.737  0.2444  0.1526  0.4288
 1069YOPC   NC314975   2.521  13.389   5.146  0.0174  0.0395  0.2160
 1069YOPC   PO414976   2.884  13.658   5.378 -0.1147  0.1247 -0.1935
 1069YOPC   GL114977   2.987  13.858   5.824  0.0319  0.1157 -0.2078
 1069YOPC   GL214978   3.128  13.563   5.940  0.0749  0.2054 -0.0042
 1069YOPC   C1A14979   3.032  13.869   6.379 -0.3632  0.2567  0.0977
 1069YOPC   D2A14980   2.956  13.825   6.776 -0.1728 -0.3098 -0.0891
 1069YOPC   C3A14981   2.502  13.858   6.921 -0.0542  0.2370 -0.0247
 1069YOPC   C4A14982   2.187  14.043   6.825 -0.0236  0.0034 -0.1449
 1069YOPC   C1B14983   3.348  13.402   6.253 -0.0685 -0.0539  0.4014
 1069YOPC   C2B14984   3.291  13.439   6.633  0.0096 -0.0299 -0.0190
 1069YOPC   D3B14985   2.870  13.347   6.780 -0.0919 -0.0749  0.2486
 1069YOPC   C4B14986   2.484  13.187   6.790 -0.0517 -0.2559  0.0055
 1070YOPC   NC314987  13.664  11.401   5.292 -0.1923 -0.2643  0.1503
 1070YOPC   PO414988  14.060  11.227   5.407 -0.0039  0.1394  0.0342
 1070YOPC   GL114989  14.130  10.990   5.766 -0.0579  0.0351 -0.1258
 1070YOPC   GL214990  14.186  10.696   6.012  0.1251 -0.2400 -0.0944
 1070YOPC   C1A14991  13.875  11.148   6.173  0.1429 -0.1130  0.1503
 1070YOPC   D2A14992  13.699  11.156   6.619  0.0672  0.4195  0.0458
 1070YOPC   C3A14993  13.317  11.223   6.635 -0.0665 -0.2308 -0.1781
 1070YOPC   C4A14994  13.143  11.321   7.018  0.0368  0.0069 -0.2990
 1070YOPC   C1B14995  14.194  10.900   6.445  0.0113  0.3633 -0.1401
 1070YOPC   C2B14996  14.112  10.988   6.910  0.2024  0.0325  0.2017
 1070YOPC   D3B14997  13.710  11.169   7.119  0.5686 -0.1131  0.1386
 1070YOPC   C4B14998  13.562  11.268   7.508  0.0505 -0.2164 -0.2815
 1071YOPC   NC314999  10.150   5.029   5.020 -0.0249  0.1518 -0.5792
 1071YOPC   PO415000  10.288   5.265   5.349 -0.1430  0.3350  0.1914
 1071YOPC   GL115001  10.481   5.275   5.724 -0.0530 -0.0957 -0.3863
 1071YOPC   GL215002  10.587   5.565   5.841  0.0314 -0.2338  0.0057
 1071YOPC   C1A15003  10.833   5.080   5.946 -0.4238 -0.0333  0.4247
 1071YOPC   D2A15004  10.865   4.628   6.301 -0.0456 -0.0100  0.0666
 1071YOPC   C3A15005  11.140   4.508   6.695  0.2830  0.2731  0.0133
 1071YOPC   C4A15006  11.411   4.817   6.878  0.1705  0.2112  0.1946
 1071YOPC   C1B15007  10.454   5.280   6.267 -0.2693  0.2495  0.1247
 1071YOPC   C2B15008  10.594   5.104   6.566 -0.0956  0.2177  0.0173
 1071YOPC   D3B15009  10.768   5.173   6.935 -0.2616 -0.0677 -0.4503
 1071YOPC   C4B15010  11.015   5.425   7.021  0.0001  0.0008  0.2511
 1072YOPC   NC315011  17.260  12.501   5.449 -0.2205  0.0379  0.0898
 1072YOPC   PO415012  16.953  12.440   5.806 -0.0036  0.2132 -0.1156
 1072YOPC   GL115013  17.142  12.583   6.167  0.0427  0.2884  0.1478
 1072YOPC   GL215014  17.198  12.881   6.129  0.0638  0.0493 -0.0186
 1072YOPC   C1A15015  17.200  12.657   6.561 -0.1535 -0.0283  0.1317
 1072YOPC   D2A15016  17.408  12.740   6.748 -0.0465 -0.1336  0.1070
 1072YOPC   C3A15017  17.437  12.683   7.262 -0.1783  0.1618  0.0315
 1072YOPC   C4A15018  17.503  12.545   7.604  0.0973  0.2135  0.0644
 1072YOPC   C1B15019  17.595  12.993   6.374 -0.0665  0.1153  0.1038
 1072YOPC   C2B15020  17.768  13.122   6.655 -0.0883  0.1788 -0.0955
 1072YOPC   D3B15021  18.120  13.294   6.676  0.2298 -0.1843 -0.0974
 1072YOPC   C4B15022  18.355  13.497   6.337 -0.1768 -0.2655 -0.0597
 1073YOPC   NC315023   3.988  18.899   5.187 -0.2878 -0.0731 -0.2518
 1073YOPC   PO415024   4.356  18.823   5.375  0.1426  0.1323 -0.1504
 1073YOPC   GL115025   4.339  18.594   5.768 -0.1650  0.1593  0.1643
 1073YOPC   GL215026   4.626  18.365   5.630 -0.0160 -0.1615 -0.2132
 1073YOPC   C1A15027   4.079  18.209   5.808  0.2301 -0.1148 -0.2621
 1073YOPC   D2A15028   3.904  17.877   6.095  0.1121 -0.7685 -0.0047
 1073YOPC   C3A15029   3.892  17.479   6.356  0.1929 -0.1752 -0.0074
 1073YOPC   C4A15030   3.706  17.040   6.334 -0.0746 -0.0775 -0.2069
 1073YOPC   C1B15031   4.542  18.100   5.926  0.1759  0.4625  0.0283
 1073YOPC   C2B15032   4.289  18.220   6.264 -0.1361  0.3301  0.3412
 1073YOPC   D3B15033   4.131  17.980   6.599 -0.1902 -0.1388  0.1975
 1073YOPC   C4B15034   3.735  17.830   6.696  0.1291 -0.1602  0.0534
 1074YOPC   NC315035  18.362   9.516   5.036 -0.0643  0.0113  0.0109
 1074YOPC   PO415036  18.697   9.236   5.258 -0.2475 -0.2276  0.3085
 1074YOPC   GL115037  18.629   9.564   5.554 -0.1647 -0.1419  0.3210
 1074YOPC   GL215038  18.894   9.720   5.608 -0.3933 -0.0189 -0.0541
 1074YOPC   C1A15039  18.476   9.889   5.852 -0.1908  0.3774  0.0002
 1074YOPC   D2A15040  18.227  10.280   6.105  0.1374  0.1184 -0.5833
 1074YOPC   C3A15041  18.261  10.519   6.509  0.3032 -0.1472  0.0041
 1074YOPC   C4A15042  18.430  10.320   6.776 -0.1127 -0.3414  0.2809
 1074YOPC   C1B15043  18.964   9.905   6.089 -0.2313 -0.0075  0.0210
 1074YOPC   C2B15044  19.018   9.695   6.506  0.0291  0.3017  0.3717
 1074YOPC   D3B15045  18.719   9.725   6.809  0.1041 -0.2695  0.3294
 1074YOPC   C4B15046  18.367   9.907   7.131  0.2737  0.2196 -0.3141
 1075YOPC   NC315047   2.264  18.646   5.198  0.0215  0.2209  0.1353
 1075YOPC   PO415048   2.768  18.735   5.269 -0.1015  0.1997 -0.0286
 1075YOPC   GL115049   2.993  18.791   5.633 -0.0970 -0.0982 -0.1020
 1075YOPC   GL215050   2.826  18.643   5.958  0.0857  0.0873  0.0606
 1075YOPC   C1A15051   3.266  18.819   5.906 -0.2667 -0.0077  0.0615
 1075YOPC   D2A15052   3.241  18.633   6.336 -0.2270  0.0657  0.1025
 1075YOPC   C3A15053   3.466  18.562   6.644 -0.1013 -0.1353 -0.0463
 1075YOPC   C4A15054   3.413  18.421   7.100  0.2872 -0.1941 -0.3659
 1075YOPC   C1B15055   2.515  18.378   5.937  0.2418 -0.0612 -0.1131
 1075YOPC   C2B15056   2.536  17.941   5.968 -0.1653  0.1936  0.1229
 1075YOPC   D3B15057   2.458  17.753   6.360  0.1816  0.1837  0.1773
 1075YOPC   C4B15058   2.265  17.692   6.744  0.2494 -0.2900 -0.1505
 1076YOPC   NC315059   6.232   4.268   4.638  0.3065 -0.0828 -0.1381
 1076YOPC   PO415060   5.962   4.101   4.889 -0.2292 -0.0987  0.3384
 1076YOPC   GL115061   5.798   4.282   5.274 -0.4854 -0.0272 -0.0250
 1076YOPC   GL215062   5.678   4.566   5.307  0.5292 -0.3209 -0.1502
 1076YOPC   C1A15063   6.194   4.208   5.551  0.0658  0.0775 -0.1582
 1076YOPC   D2A15064   6.366   4.020   5.876  0.1359 -0.2427 -0.0252
 1076YOPC   C3A15065   6.656   4.101   6.233  0.1141  0.5055  0.0350
 1076YOPC   C4A15066   6.759   4.389   6.474  0.0286 -0.0660  0.4238
 1076YOPC   C1B15067   5.571   4.474   5.787  0.1523  0.1251 -0.0099
 1076YOPC   C2B15068   5.376   4.684   6.090 -0.2358 -0.1028 -0.0587
 1076YOPC   D3B15069   5.271   5.181   6.139  0.0143  0.5048  0.4139
 1076YOPC   C4B15070   5.027   5.448   6.354 -0.1387  0.1780 -0.0527
 1077YOPC   NC315071   4.682   5.297   4.981 -0.1284  0.0366  0.3666
 1077YOPC   PO415072   4.914   5.574   5.118 -0.3520  0.0689 -0.1211
 1077YOPC   GL115073   5.392   5.548   5.381  0.1546  0.0443  0.1133
 1077YOPC   GL215074   5.519   5.371   5.709  0.4151  0.1259 -0.0475
 1077YOPC   C1A15075   5.610   5.907   5.737 -0.2422 -0.1293 -0.3112
 1077YOPC   D2A15076   5.597   6.028   6.126  0.1386  0.0075  0.0279
 1077YOPC   C3A15077   5.405   6.013   6.462 -0.0902 -0.0065 -0.0384
 1077YOPC   C4A15078   5.126   5.819   6.705 -0.1220  0.0705  0.4021
 1077YOPC   C1B15079   5.243   5.657   5.947 -0.0230 -0.4204 -0.0598
 1077YOPC   C2B15080   5.065   5.962   6.050  0.2540  0.1894 -0.0566
 1077YOPC   D3B15081   5.177   6.349   6.133 -0.2310 -0.2591  0.1760
 1077YOPC   C4B15082   5.201   6.773   6.057 -0.2127  0.1786  0.0840
 1078YOPC   NC315083  13.726   7.719   5.138 -0.1441  0.2484 -0.0841
 1078YOPC   PO415084  13.612   8.194   5.382  0.0883 -0.0901 -0.1676
 1078YOPC   GL115085  13.675   7.955   5.643 -0.2641  0.1763  0.0257
 1078YOPC   GL215086  13.363   7.995   5.853 -0.1948 -0.0963  0.0068
 1078YOPC   C1A15087  13.816   7.835   6.067 -0.0200 -0.0234  0.0564
 1078YOPC   D2A15088  13.719   7.795   6.527 -0.2450  0.1775  0.2060
 1078YOPC   C3A15089  13.559   8.184   6.576  0.3103  0.1523  0.2318
 1078YOPC   C4A15090  13.297   8.542   6.642  0.1139 -0.0762  0.4219
 1078YOPC   C1B15091  13.266   8.248   6.204  0.3347  0.2264  0.0352
 1078YOPC   C2B15092  12.854   8.529   6.227 -0.0881  0.1382 -0.1989
 1078YOPC   D3B15093  12.777   8.776   6.470 -0.0095  0.1918 -0.3583
 1078YOPC   C4B15094  12.946   8.917   6.925  0.0027 -0.2963 -0.1598
 1079YOPC   NC315095   9.713   4.229   5.595  0.1283 -0.1136 -0.1006
 1079YOPC   PO415096   9.653   4.612   5.929 -0.0895  0.0970 -0.0936
 1079YOPC   GL115097   9.896   4.836   6.208 -0.2970 -0.3695 -0.0976
 1079YOPC   GL215098  10.235   4.830   6.080 -0.0545  0.1857  0.1557
 1079YOPC   C1A15099  10.122   4.911   6.635 -0.3458  0.1010 -0.3415
 1079YOPC   D2A15100  10.195   4.898   7.017  0.1010  0.1920  0.0824
 1079YOPC   C3A15101  10.534   4.907   7.299 -0.2499 -0.0591  0.1285
 1079YOPC   C4A15102  10.715   4.814   7.703 -0.1585  0.0155  0.4545
 1079YOPC   C1B15103  10.329   4.580   6.402 -0.0715  0.1044  0.2975
 1079YOPC   C2B15104  10.538   4.505   6.896  0.1849 -0.0605 -0.0067
 1079YOPC   D3B15105  10.302   4.483   7.355 -0.2440 -0.1784  0.2806
 1079YOPC   C4B15106  10.462   4.289   7.710  0.0903  0.2431  0.3564
 1080YOPC   NC315107  16.427   1.624   5.134 -0.2361  0.3574 -0.2259
 1080YOPC   PO415108  16.521   1.252   4.914  0.1283  0.1861 -0.0060
 1080YOPC   GL115109  16.448   0.943   5.231 -0.2730  0.0140  0.0070
 1080YOPC   GL215110  16.110   0.994   5.369  0.1202 -0.1852 -0.1427
 1080YOPC   C1A15111  16.617   0.601   5.478 -0.3644 -0.2599 -0.1580
 1080YOPC   D2A15112  16.785   0.578   5.846 -0.1706  0.3001  0.0727
 1080YOPC   C3A15113  16.882   0.879   6.272  0.1001  0.0739 -0.1553
 1080YOPC   C4A15114  16.788   1.137   6.619  0.3227  0.2003  0.1337
 1080YOPC   C1B15115  16.070   0.646   5.637 -0.0672 -0.5075 -0.1708
 1080YOPC   C2B15116  15.917   0.487   5.902  0.0023 -0.1901 -0.1098
 1080YOPC   D3B15117  15.936   0.620   6.313  0.1410 -0.2492  0.2265
 1080YOPC   C4B15118  15.894   0.687   6.689  0.0754  0.1822  0.1712
 1081YOPC   NC315119   2.742  17.763   4.928 -0.1757 -0.1737  0.0953
 1081YOPC   PO415120   3.040  17.864   5.257  0.0052 -0.0868  0.0161
 1081YOPC   GL115121   3.149  17.926   5.749 -0.1557 -0.0162  0.4851
 1081YOPC   GL215122   3.004  18.132   5.910 -0.1290  0.3021  0.0594
 1081YOPC   C1A15123   3.407  17.927   6.167  0.1943  0.1471 -0.2536
 1081YOPC   D2A15124   3.306  18.061   6.602 -0.1630  0.0157 -0.0840
 1081YOPC   C3A15125   2.948  18.287   6.733  0.1225 -0.3956  0.1667
 1081YOPC   C4A15126   2.632  18.440   7.005  0.0358  0.1695 -0.0193
 1081YOPC   C1B15127   2.861  18.235   6.298  0.0969 -0.4477 -0.0406
 1081YOPC   C2B15128   2.471  18.241   6.442 -0.1546 -0.1853 -0.2148
 1081YOPC   D3B15129   2.115  18.460   6.271 -0.0552 -0.0226 -0.1571
 1081YOPC   C4B15130   1.775  18.500   6.149  0.1734  0.0598 -0.1925
 1082YOPC   NC315131  17.946   5.994   5.291 -0.2299  0.2406 -0.0179
 1082YOPC   PO415132  17.767   5.672   4.983  0.0171  0.0280 -0.1259
 1082YOPC   GL115133  17.505   5.742   5.425 -0.1434 -0.1971  0.2387
 1082YOPC   GL215134  17.612   5.719   5.794 -0.0515 -0.3975  0.1808
 1082YOPC   C1A15135  17.115   5.596   5.706 -0.1039 -0.5985 -0.2168
 1082YOPC   D2A15136  16.990   5.315   5.974 -0.0111 -0.0808 -0.0188
 1082YOPC   C3A15137  17.055   5.481   6.356  0.3796 -0.1044  0.1281
 1082YOPC   C4A15138  16.681   5.465   6.656  0.3936 -0.1589 -0.0832
 1082YOPC   C1B15139  17.589   5.601   6.224 -0.3366 -0.0948  0.0144
 1082YOPC   C2B15140  17.806   5.325   6.467  0.1373  0.0639 -0.1291
 1082YOPC   D3B15141  17.597   5.241   6.995 -0.3172  0.1782 -0.0252
 1082YOPC   C4B15142  17.238   5.014   7.267 -0.2294 -0.3219 -0.2072
 1083YOPC   NC315143   5.219   2.329   5.184 -0.0609 -0.4066 -0.2462
 1083YOPC   PO415144   5.214   2.276   5.571  0.4794 -0.2944  0.0798
 1083YOPC   GL115145   5.150   2.490   5.926 -0.3430  0.2307  0.2917
 1083YOPC   GL215146   4.845   2.358   5.865 -0.3164  0.0056 -0.1662
 1083YOPC   C1A15147   5.252   2.620   6.335 -0.1439  0.0154  0.0741
 1083YOPC   D2A15148   5.443   2.762   6.762 -0.1604 -0.1283 -0.0969
 1083YOPC   C3A15149   5.469   2.308   6.956  0.1646 -0.0529  0.1198
 1083YOPC   C4A15150   5.578   1.876   7.284  0.0948  0.1605  0.3281
 1083YOPC   C1B15151   4.770   2.705   6.175 -0.0706  0.0080  0.2455
 1083YOPC   C2B15152   4.459   2.738   6.422  0.1226  0.0526 -0.1546
 1083YOPC   D3B15153   4.409   2.488   6.728  0.0578  0.1247 -0.1365
 1083YOPC   C4B15154   4.533   2.100   6.843  0.0655  0.0094 -0.1941
 1084YOPC   NC315155   3.445   6.107   4.416  0.0899 -0.3406  0.3351
 1084YOPC   PO415156   3.509   5.846   4.756 -0.0276  0.2339  0.1525
 1084YOPC   GL115157   3.563   6.083   5.057  0.2037  0.0676 -0.3739
 1084YOPC   GL215158   3.543   5.936   5.339 -0.0917 -0.1993 -0.2071
 1084YOPC   C1A15159   3.855   6.286   5.285 -0.2878  0.0084  0.2111
 1084YOPC   D2A15160   4.231   6.049   5.537 -0.3701 -0.1365  0.0097
 1084YOPC   C3A15161   4.701   6.301   5.634  0.3456  0.1518  0.0934
 1084YOPC   C4A15162   4.796   6.689   5.726  0.0636  0.2429 -0.0471
 1084YOPC   C1B15163   3.704   6.117   5.714 -0.1161  0.3113  0.1322
 1084YOPC   C2B15164   3.734   6.234   6.102 -0.3183 -0.4074  0.2655
 1084YOPC   D3B15165   3.677   6.603   6.263  0.2358  0.3504  0.1072
 1084YOPC   C4B15166   3.589   7.051   6.092 -0.2280 -0.0910 -0.1172
 1085YOPC   NC315167  10.754  14.242   5.317  0.1794 -0.1585 -0.1028
 1085YOPC   PO415168  10.391  14.188   5.625 -0.0105 -0.4019  0.2073
 1085YOPC   GL115169  10.397  14.256   5.970  0.0009 -0.0903  0.1148
 1085YOPC   GL215170  10.586  13.976   6.037 -0.2372 -0.3334  0.0441
 1085YOPC   C1A15171  10.531  14.570   6.160 -0.1967  0.1952 -0.3039
 1085YOPC   D2A15172  10.696  14.772   6.488  0.0072  0.2382 -0.0407
 1085YOPC   C3A15173  10.419  14.825   6.857  0.0671 -0.1605  0.0597
 1085YOPC   C4A15174  10.324  14.791   7.248 -0.1757  0.0545 -0.2429
 1085YOPC   C1B15175  10.712  14.199   6.429 -0.1099  0.2205  0.3221
 1085YOPC   C2B15176  10.789  14.275   6.891  0.0832 -0.0619  0.0444
 1085YOPC   D3B15177  10.698  14.516   7.155  0.0813 -0.0407 -0.2531
 1085YOPC   C4B15178  10.734  15.058   7.190 -0.2076 -0.0431 -0.0051
 1086YOPC   NC315179   6.814   1.042   5.047  0.2048 -0.0068 -0.1841
 1086YOPC   PO415180   7.081   1.402   5.032 -0.1715 -0.2409  0.1338
 1086YOPC   GL115181   6.795   1.351   5.445 -0.0297 -0.2912 -0.3834
 1086YOPC   GL215182   7.101   1.200   5.559 -0.1580 -0.0217 -0.0660
 1086YOPC   C1A15183   6.698   1.612   5.801 -0.2070  0.0180 -0.1691
 1086YOPC   D2A15184   6.661   1.562   6.312 -0.1900  0.3596 -0.0438
 1086YOPC   C3A15185   6.168   1.572   6.422  0.0943 -0.2763  0.0427
 1086YOPC   C4A15186   5.696   1.609   6.511  0.0302  0.0020 -0.0557
 1086YOPC   C1B15187   7.007   1.234   6.027  0.1206 -0.1758 -0.1760
 1086YOPC   C2B15188   7.138   1.676   6.211  0.0073 -0.3551 -0.1095
 1086YOPC   D3B15189   6.903   1.900   6.588  0.0716 -0.2989 -0.4228
 1086YOPC   C4B15190   7.124   2.103   6.795 -0.0958 -0.1327  0.1928
 1087YOPC   NC315191  16.022  17.128   5.150  0.4401 -0.2652 -0.0164
 1087YOPC   PO415192  15.608  17.102   5.404 -0.1927  0.1656  0.1320
 1087YOPC   GL115193  15.813  17.478   5.718 -0.3984  0.3241  0.1475
 1087YOPC   GL215194  15.705  17.376   5.994  0.3955  0.1121  0.0898
 1087YOPC   C1A15195  16.240  17.536   5.704  0.1212  0.3323 -0.1694
 1087YOPC   D2A15196  16.566  17.285   5.872 -0.4111 -0.6051  0.0710
 1087YOPC   C3A15197  16.772  17.380   6.145 -0.1136 -0.0049  0.0464
 1087YOPC   C4A15198  16.847  17.243   6.520  0.2239  0.1424  0.0255
 1087YOPC   C1B15199  15.893  17.757   6.161  0.5987  0.0703 -0.0710
 1087YOPC   C2B15200  16.114  17.959   6.473 -0.1732 -0.2828  0.4225
 1087YOPC   D3B15201  16.307  18.353   6.406  0.0421 -0.2224  0.2002
 1087YOPC   C4B15202  16.572  18.695   6.284  0.1552  0.1031  0.0139
 1088YOPC   NC315203  10.880  12.000   4.890 -0.2058  0.0576  0.0262
 1088YOPC   PO415204  10.910  11.643   4.966 -0.0118  0.1548  0.1124
 1088YOPC   GL115205  10.502  11.807   5.187 -0.1180  0.0550  0.0065
 1088YOPC   GL215206  10.196  11.570   5.315 -0.0771 -0.3236 -0.0139
 1088YOPC   C1A15207  10.521  11.772   5.629 -0.0194 -0.2957 -0.0254
 1088YOPC   D2A15208  10.412  11.878   6.007 -0.1033 -0.5287 -0.1146
 1088YOPC   C3A15209  10.616  11.619   6.274  0.0307  0.0502  0.1198
 1088YOPC   C4A15210  10.410  11.460   6.690  0.5069  0.0222  0.0576
 1088YOPC   C1B15211   9.972  11.528   5.702  0.2449 -0.3141 -0.0467
 1088YOPC   C2B15212   9.688  11.656   5.941 -0.0538 -0.0449 -0.2393
 1088YOPC   D3B15213   9.446  12.064   6.078 -0.0838 -0.2176  0.0318
 1088YOPC   C4B15214   9.466  12.366   6.405  0.1832 -0.4270 -0.0088
 1089YOPC   NC315215   3.768   7.319   4.498  0.0069  0.3516 -0.0292
 1089YOPC   PO415216   3.647   7.418   4.997 -0.0229  0.1534 -0.3969
 1089YOPC   GL115217   3.558   7.402   5.404  0.2617  0.1642  0.0851
 1089YOPC   GL215218   3.271   7.401   5.533 -0.0117  0.0190  0.0394
 1089YOPC   C1A15219   3.681   7.618   5.815  0.1656 -0.0790  0.5152
 1089YOPC   D2A15220   3.543   7.633   6.244 -0.1123 -0.2252 -0.1542
 1089YOPC   C3A15221   3.379   7.314   6.481  0.2650  0.2311  0.4212
 1089YOPC   C4A15222   3.637   7.002   6.617  0.1309 -0.2549 -0.0405
 1089YOPC   C1B15223   3.146   7.404   5.955 -0.3642 -0.0119 -0.0601
 1089YOPC   C2B15224   3.007   7.638   6.380 -0.0475  0.0279 -0.0851
 1089YOPC   D3B15225   3.268   7.931   6.613 -0.2121  0.1350 -0.0198
 1089YOPC   C4B15226   3.266   8.216   7.030 -0.0758  0.1494 -0.2829
 1090YOPC   NC315227  18.129  14.794   4.884 -0.0921  0.0896 -0.1103
 1090YOPC   PO415228  17.983  14.481   5.198 -0.1212 -0.3912  0.0787
 1090YOPC   GL115229  17.996  14.398   5.593 -0.0188 -0.1728  0.2289
 1090YOPC   GL215230  17.762  14.642   5.639  0.0094  0.5054 -0.1092
 1090YOPC   C1A15231  17.886  14.243   5.985  0.3391  0.1666  0.2547
 1090YOPC   D2A15232  17.606  13.969   6.173  0.3865 -0.1782 -0.0055
 1090YOPC   C3A15233  17.464  13.998   6.557 -0.0421 -0.1207 -0.1218
 1090YOPC   C4A15234  17.475  14.212   6.905  0.0537  0.3197 -0.0949
 1090YOPC   C1B15235  17.947  14.753   6.047 -0.3511  0.2119  0.0910
 1090YOPC   C2B15236  18.293  14.841   6.415  0.1571  0.4623  0.0652
 1090YOPC   D3B15237  18.286  15.281   6.613  0.1498  0.1401  0.0131
 1090YOPC   C4B15238  18.633  15.514   6.847 -0.1898 -0.0994 -0.1323
 1091YOPC   NC315239   1.243   7.102   5.112 -0.2149  0.0651  0.1626
 1091YOPC   PO415240   1.434   6.809   5.298 -0.0816 -0.1669 -0.1949
 1091YOPC   GL115241   1.484   6.967   5.750 -0.0157  0.0756  0.0479
 1091YOPC   GL215242   1.250   6.736   5.895 -0.0558 -0.0915 -0.0910
 1091YOPC   C1A15243   1.758   7.327   6.046 -0.2921  0.0350  0.1202
 1091YOPC   D2A15244   1.715   7.295   6.485 -0.0425  0.2829  0.0619
 1091YOPC   C3A15245   1.756   6.787   6.460  0.1256 -0.2787  0.0478
 1091YOPC   C4A15246   1.687   6.470   6.706  0.0019  0.2566  0.0350
 1091YOPC   C1B15247   1.011   6.852   6.282  0.1670  0.4007 -0.1849
 1091YOPC   C2B15248   0.672   6.463   6.388  0.0898  0.0440 -0.2123
 1091YOPC   D3B15249   0.947   6.004   6.441 -0.2731  0.2244 -0.1177
 1091YOPC   C4B15250   1.050   5.573   6.646  0.0487 -0.1558 -0.0836
 1092YOPC   NC315251   0.205   5.251   4.845  0.1535  0.0004  0.2041
 1092YOPC   PO415252   0.450   5.449   5.193  0.0864 -0.2686 -0.0068
 1092YOPC   GL115253   0.327   5.490   5.605  0.3616 -0.1702  0.1075
 1092YOPC   GL215254  -0.046   5.375   5.703 -0.4123 -0.3257  0.2719
 1092YOPC   C1A15255   0.355   5.102   5.903 -0.2311  0.1691 -0.0253
 1092YOPC   D2A15256   0.300   4.777   6.235  0.2075  0.1953  0.0284
 1092YOPC   C3A15257   0.621   4.420   6.203  0.2469  0.1491  0.0362
 1092YOPC   C4A15258   0.922   4.085   6.054  0.1123 -0.0746  0.2175
 1092YOPC   C1B15259  -0.473   5.474   5.954 -0.1755  0.1983 -0.2512
 1092YOPC   C2B15260  -0.630   5.157   6.102  0.0974 -0.0285  0.0519
 1092YOPC   D3B15261  -1.005   5.131   6.186  0.0406  0.2455  0.0427
 1092YOPC   C4B15262  -1.378   5.362   5.957  0.1775 -0.3595  0.0308
 1093YOPC   NC315263   4.423  11.151   5.044 -0.2458  0.0416 -0.0525
 1093YOPC   PO415264   4.147  11.323   5.366  0.1607 -0.1307  0.0940
 1093YOPC   GL115265   4.126  11.229   5.813 -0.1905 -0.0544  0.0464
 1093YOPC   GL215266   4.248  11.531   6.271 -0.2673 -0.0735  0.2135
 1093YOPC   C1A15267   3.768  11.461   6.134  0.2273  0.0222 -0.1535
 1093YOPC   D2A15268   3.382  11.382   6.369 -0.0153  0.1019  0.0610
 1093YOPC   C3A15269   3.420  11.343   6.788  0.0597  0.1184  0.0295
 1093YOPC   C4A15270   3.669  10.942   6.865 -0.1016  0.2225  0.1443
 1093YOPC   C1B15271   4.493  11.382   6.651  0.0572  0.3230  0.0306
 1093YOPC   C2B15272   4.901  11.405   6.882  0.0930  0.0720 -0.0736
 1093YOPC   D3B15273   4.858  11.444   7.253  0.2212 -0.2570 -0.2847
 1093YOPC   C4B15274   4.602  11.763   7.278  0.5063 -0.0725  0.0429
 1094YOPC   NC315275  12.968  17.697   5.473  0.3994 -0.0658  0.1079
 1094YOPC   PO415276  12.826  17.303   5.566 -0.3937  0.1216 -0.0885
 1094YOPC   GL115277  12.629  17.380   5.823  0.0779 -0.1904  0.0830
 1094YOPC   GL215278  12.428  17.154   5.929 -0.3703  0.0600 -0.0326
 1094YOPC   C1A15279  12.797  17.674   6.171  0.0727  0.1546 -0.0309
 1094YOPC   D2A15280  12.801  18.002   6.507 -0.3506 -0.1160 -0.2339
 1094YOPC   C3A15281  12.943  17.876   6.914  0.1972 -0.3439 -0.0997
 1094YOPC   C4A15282  13.105  17.604   7.194 -0.0105 -0.2714 -0.0674
 1094YOPC   C1B15283  12.650  17.123   6.315  0.5634 -0.3534  0.2318
 1094YOPC   C2B15284  12.666  17.203   6.791 -0.1938 -0.0040  0.0266
 1094YOPC   D3B15285  12.442  17.505   7.092  0.2123  0.1348  0.0264
 1094YOPC   C4B15286  12.280  17.601   7.477 -0.0485  0.1361 -0.1813
 1095YOPC   NC315287  18.092   2.438   4.676  0.2412 -0.4581  0.1777
 1095YOPC   PO415288  18.457   2.608   4.952  0.1618 -0.2140 -0.0082
 1095YOPC   GL115289  18.598   2.604   5.267  0.1104  0.0084  0.1306
 1095YOPC   GL215290  18.822   2.363   5.258  0.0291  0.0012  0.0310
 1095YOPC   C1A15291  18.507   2.837   5.787 -0.1558  0.1719  0.0146
 1095YOPC   D2A15292  18.804   3.068   6.120  0.0312  0.2894 -0.1035
 1095YOPC   C3A15293  19.149   2.785   6.112 -0.1639 -0.0075 -0.4548
 1095YOPC   C4A15294  19.286   2.336   6.134  0.0078  0.4347 -0.1979
 1095YOPC   C1B15295  19.083   2.093   5.562  0.0275 -0.1551 -0.2231
 1095YOPC   C2B15296  19.653   2.196   5.664 -0.2101  0.1122  0.2761
 1095YOPC   D3B15297  19.850   2.195   6.063 -0.2071 -0.1264 -0.1584
 1095YOPC   C4B15298  20.051   2.254   6.344 -0.6156 -0.3365  0.0032
 1096YOPC   NC315299   8.432   7.300   5.249  0.3026 -0.0565  0.0593
 1096YOPC   PO415300   8.602   7.060   5.369 -0.0221 -0.1150 -0.0972
 1096YOPC   GL115301   8.613   6.909   5.702 -0.0630  0.1345  0.0942
 1096YOPC   GL215302   8.508   6.594   5.800 -0.1729  0.3840 -0.0104
 1096YOPC   C1A15303   8.580   6.980   6.128  0.0741  0.1129  0.2881
 1096YOPC   D2A15304   8.571   7.032   6.547 -0.3153  0.0726  0.5040
 1096YOPC   C3A15305   8.534   7.310   6.821 -0.2136  0.0176  0.0406
 1096YOPC   C4A15306   8.345   7.402   7.180  0.0720  0.1000  0.1841
 1096YOPC   C1B15307   8.567   6.477   6.216 -0.2257 -0.4505 -0.2324
 1096YOPC   C2B15308   8.323   6.337   6.537 -0.0458 -0.0295 -0.0622
 1096YOPC   D3B15309   8.259   6.504   6.919 -0.0676  0.0315 -0.0300
 1096YOPC   C4B15310   8.120   6.357   7.184 -0.0797 -0.1374  0.1579
 1097YOPC   NC315311  10.180  15.798   5.127  0.3097 -0.0871  0.2041
 1097YOPC   PO415312  10.364  16.161   5.263 -0.0895 -0.1626  0.3070
 1097YOPC   GL115313  10.594  16.138   5.640 -0.2922 -0.0937  0.3671
 1097YOPC   GL215314  10.775  16.413   5.817 -0.0434 -0.1352 -0.3447
 1097YOPC   C1A15315  10.511  16.080   6.057 -0.0184  0.0534 -0.1490
 1097YOPC   D2A15316  10.622  15.882   6.452 -0.0136 -0.1303  0.3307
 1097YOPC   C3A15317  10.301  15.798   6.770 -0.1706 -0.3808 -0.0802
 1097YOPC   C4A15318   9.963  15.852   7.008 -0.0145 -0.0283 -0.3082
 1097YOPC   C1B15319  10.725  16.690   6.067  0.2952 -0.1168  0.1632
 1097YOPC   C2B15320  10.514  16.860   6.313 -0.1133  0.1781 -0.0390
 1097YOPC   D3B15321  10.711  17.144   6.478  0.0175  0.0192 -0.0231
 1097YOPC   C4B15322  10.548  17.248   6.908 -0.0354 -0.3545 -0.0756
 1098YOPC   NC315323   5.009  10.302   5.271 -0.1741 -0.2292 -0.3220
 1098YOPC   PO415324   5.177   9.877   5.398  0.0532 -0.2222 -0.0671
 1098YOPC   GL115325   5.177  10.130   5.751 -0.3728  0.1505 -0.1956
 1098YOPC   GL215326   4.875  10.295   5.824 -0.2485 -0.0070 -0.2052
 1098YOPC   C1A15327   5.385  10.217   6.095  0.3354  0.0156  0.0229
 1098YOPC   D2A15328   5.712   9.986   6.419  0.2190 -0.0279  0.0398
 1098YOPC   C3A15329   5.660   9.628   6.691  0.0183 -0.3501  0.3281
 1098YOPC   C4A15330   5.709   9.539   7.142  0.1009 -0.0853  0.1157
 1098YOPC   C1B15331   4.821  10.155   6.208 -0.0553  0.3534 -0.0710
 1098YOPC   C2B15332   4.794   9.876   6.628  0.2114  0.0841  0.1443
 1098YOPC   D3B15333   4.559   9.822   7.059  0.1145 -0.0081  0.1149
 1098YOPC   C4B15334   4.052   9.628   7.070  0.0170 -0.1003 -0.0482
 1099YOPC   NC315335  16.715   4.261   5.045  0.0053 -0.3252 -0.0537
 1099YOPC   PO415336  16.668   4.726   5.056 -0.1365 -0.1537  0.3279
 1099YOPC   GL115337  16.493   5.006   5.429  0.1953  0.3967  0.0452
 1099YOPC   GL215338  16.600   4.806   5.706  0.2059 -0.1820  0.2196
 1099YOPC   C1A15339  16.137   5.087   5.633  0.1709  0.0433 -0.1482
 1099YOPC   D2A15340  16.188   4.950   6.051  0.4008 -0.2208  0.1455
 1099YOPC   C3A15341  16.495   4.725   6.179  0.2308 -0.0594  0.4348
 1099YOPC   C4A15342  16.409   4.514   6.549 -0.1150  0.0955 -0.2656
 1099YOPC   C1B15343  16.885   4.843   5.856  0.0797 -0.3514  0.2127
 1099YOPC   C2B15344  17.002   4.943   6.314  0.3847 -0.0970 -0.5623
 1099YOPC   D3B15345  16.690   4.887   6.654 -0.1597 -0.2490  0.2631
 1099YOPC   C4B15346  16.435   5.095   6.926 -0.0336 -0.1697  0.2049
 1100YOPC   NC315347   0.567  14.482   5.294 -0.2398  0.0847  0.0156
 1100YOPC   PO415348   1.054  14.475   5.176  0.0134  0.1756  0.3292
 1100YOPC   GL115349   0.954  14.496   5.603 -0.2262 -0.2101 -0.0643
 1100YOPC   GL215350   0.779  14.722   5.667  0.4228  0.0218 -0.1972
 1100YOPC   C1A15351   0.887  14.270   5.950  0.0760 -0.1556  0.1045
 1100YOPC   D2A15352   0.868  14.252   6.290 -0.1211  0.3576 -0.1334
 1100YOPC   C3A15353   0.855  14.521   6.579  0.2216 -0.2283  0.1985
 1100YOPC   C4A15354   0.623  14.420   6.938 -0.1523 -0.0358 -0.2148
 1100YOPC   C1B15355   0.814  14.738   6.052  0.2068  0.1083 -0.3191
 1100YOPC   C2B15356   0.697  14.962   6.393 -0.0413 -0.2275  0.1685
 1100YOPC   D3B15357   0.719  14.904   6.873  0.0072  0.0333  0.0412
 1100YOPC   C4B15358   0.709  14.944   7.216  0.0364  0.1955  0.1672
 1101YOPC   NC315359  11.792   4.556   5.488  0.3594 -0.2775 -0.3225
 1101YOPC   PO415360  11.321   4.322   5.535  0.0543 -0.0905  0.0813
 1101YOPC   GL115361  11.456   4.217   5.887 -0.1556  0.1644  0.1003
 1101YOPC   GL215362  11.779   4.364   5.942 -0.2959  0.1735  0.2614
 1101YOPC   C1A15363  11.840   3.900   5.898  0.1442  0.2489 -0.2540
 1101YOPC   D2A15364  12.154   4.140   6.114 -0.1113 -0.0947 -0.1726
 1101YOPC   C3A15365  12.281   4.286   6.561  0.0542  0.2372 -0.2029
 1101YOPC   C4A15366  12.416   4.212   7.004 -0.0035 -0.0024 -0.0551
 1101YOPC   C1B15367  11.950   4.585   6.226  0.2224  0.2896 -0.1864
 1101YOPC   C2B15368  11.713   4.986   6.429  0.2466  0.0313 -0.3245
 1101YOPC   D3B15369  11.368   5.269   6.125  0.1115 -0.1046 -0.0752
 1101YOPC   C4B15370  11.149   5.475   5.890 -0.2055 -0.3675  0.2943
 1102YOPC   NC315371   8.757   5.144   5.758 -0.0670 -0.1056  0.4148
 1102YOPC   PO415372   9.163   4.959   5.710  0.2489  0.0851 -0.2693
 1102YOPC   GL115373   9.166   4.824   6.049  0.2404  0.0006 -0.1408
 1102YOPC   GL215374   9.378   5.032   6.189  0.0688 -0.2358 -0.4996
 1102YOPC   C1A15375   8.971   5.007   6.483 -0.1788 -0.1174  0.2828
 1102YOPC   D2A15376   8.931   4.851   6.884  0.1024 -0.0825 -0.1701
 1102YOPC   C3A15377   8.941   4.542   6.958  0.1423  0.2236 -0.1949
 1102YOPC   C4A15378   9.194   4.168   6.872  0.1327  0.1216 -0.0618
 1102YOPC   C1B15379   9.599   5.025   6.594 -0.0961  0.1952 -0.0054
 1102YOPC   C2B15380   9.710   5.023   6.966 -0.2652  0.0439 -0.1628
 1102YOPC   D3B15381   9.438   5.111   7.306  0.1443 -0.1978 -0.2450
 1102YOPC   C4B15382   9.544   4.931   7.758  0.1110  0.3423  0.1552
 1103YOPC   NC315383  18.453   8.799   5.444 -0.1214 -0.0845  0.2076
 1103YOPC   PO415384  18.480   8.298   5.572 -0.0072 -0.2163 -0.0855
 1103YOPC   GL115385  18.362   8.129   5.934  0.5262 -0.1636 -0.2823
 1103YOPC   GL215386  18.018   8.241   5.918  0.0030  0.1151  0.0396
 1103YOPC   C1A15387  18.485   8.087   6.409  0.1700  0.0335  0.4923
 1103YOPC   D2A15388  18.385   7.816   6.657 -0.0889 -0.0630  0.3343
 1103YOPC   C3A15389  18.642   7.889   7.047  0.3202 -0.1209  0.1897
 1103YOPC   C4A15390  18.977   8.015   7.298 -0.2264  0.0652  0.1166
 1103YOPC   C1B15391  17.564   8.219   6.103 -0.0224 -0.3136  0.1160
 1103YOPC   C2B15392  17.455   8.092   6.446  0.1020 -0.0594 -0.1456
 1103YOPC   D3B15393  17.616   7.704   6.563 -0.1682 -0.0569  0.0035
 1103YOPC   C4B15394  17.970   7.507   6.713 -0.0468  0.0644 -0.2937
 1104YOPC   NC315395  17.006   6.502   5.342 -0.1982  0.4069 -0.2710
 1104YOPC   PO415396  16.643   6.169   5.345 -0.0612  0.3272 -0.1443
 1104YOPC   GL115397  16.280   6.158   5.607  0.1778 -0.0068  0.2282
 1104YOPC   GL215398  16.405   6.219   5.772 -0.1026 -0.1624 -0.0152
 1104YOPC   C1A15399  16.087   5.753   5.773  0.4021  0.1513  0.1034
 1104YOPC   D2A15400  16.081   5.534   6.155  0.5080  0.0458 -0.0929
 1104YOPC   C3A15401  16.225   5.576   6.596 -0.1495 -0.4159  0.0451
 1104YOPC   C4A15402  16.412   5.623   7.065 -0.0615 -0.0863  0.3473
 1104YOPC   C1B15403  16.179   6.138   6.210  0.0073  0.1940  0.4520
 1104YOPC   C2B15404  15.954   5.995   6.501 -0.0732 -0.0584 -0.1715
 1104YOPC   D3B15405  16.012   6.182   6.825 -0.0274 -0.1009  0.1423
 1104YOPC   C4B15406  15.869   6.274   7.250  0.3197 -0.2333  0.4301
 1105YOPC   NC315407  14.803   4.626   4.861 -0.2815  0.1726 -0.0156
 1105YOPC   PO415408  14.708   4.230   5.051 -0.1040  0.1981 -0.1616
 1105YOPC   GL115409  14.829   4.221   5.550 -0.1445 -0.4120 -0.1254
 1105YOPC   GL215410  14.575   4.394   5.727  0.1786  0.0535 -0.4241
 1105YOPC   C1A15411  15.031   4.157   5.879  0.2042  0.1885  0.0524
 1105YOPC   D2A15412  15.025   3.916   6.234 -0.1477  0.2429 -0.0034
 1105YOPC   C3A15413  14.773   3.565   6.480  0.1299  0.0230 -0.1946
 1105YOPC   C4A15414  14.715   3.186   6.675  0.1297 -0.0438  0.0030
 1105YOPC   C1B15415  14.725   4.755   5.616 -0.2849 -0.2737 -0.2436
 1105YOPC   C2B15416  14.690   5.164   5.489  0.1276  0.0520 -0.0401
 1105YOPC   D3B15417  14.716   5.525   5.720 -0.0939 -0.0768 -0.0438
 1105YOPC   C4B15418  14.543   5.731   6.076  0.0320 -0.0220  0.1013
 1106YOPC   NC315419  11.720   1.830   5.008 -0.1240  0.2073  0.2652
 1106YOPC   PO415420  11.648   1.382   5.225 -0.2375 -0.0123  0.1207
 1106YOPC   GL115421  11.648   1.524   5.714  0.0622  0.0525  0.0596
 1106YOPC   GL215422  12.001   1.266   5.926 -0.1205  0.2013  0.0592
 1106YOPC   C1A15423  11.824   1.769   6.099  0.0499 -0.4420 -0.2136
 1106YOPC   D2A15424  11.748   1.748   6.572  0.1973 -0.1187  0.1540
 1106YOPC   C3A15425  11.740   1.387   7.026  0.0568  0.2779  0.0651
 1106YOPC   C4A15426  11.876   1.325   7.454  0.1021 -0.2362 -0.2384
 1106YOPC   C1B15427  12.169   1.476   6.325  0.1033 -0.0413 -0.3389
 1106YOPC   C2B15428  12.393   1.840   6.541 -0.0350  0.0433  0.1006
 1106YOPC   D3B15429  12.476   1.918   7.004  0.1347  0.0681 -0.1286
 1106YOPC   C4B15430  12.441   1.911   7.474  0.6423  0.1592  0.1658
 1107YOPC   NC315431   9.850  17.661   5.186 -0.2336 -0.1406  0.0540
 1107YOPC   PO415432   9.435  17.416   5.362 -0.1496  0.1623 -0.2499
 1107YOPC   GL115433   9.352  17.386   5.806  0.1270  0.0168  0.1188
 1107YOPC   GL215434   9.112  17.557   5.822  0.0529  0.2480 -0.2784
 1107YOPC   C1A15435   9.099  17.107   6.053  0.3087 -0.0653  0.1550
 1107YOPC   D2A15436   8.999  17.091   6.518 -0.0850 -0.1897 -0.4395
 1107YOPC   C3A15437   8.962  17.565   6.748 -0.2103  0.1832  0.0945
 1107YOPC   C4A15438   8.862  18.079   6.705  0.2662 -0.0958 -0.1238
 1107YOPC   C1B15439   8.803  17.627   6.233 -0.1983 -0.0151 -0.0234
 1107YOPC   C2B15440   8.450  17.690   6.580 -0.0706 -0.2701  0.1273
 1107YOPC   D3B15441   8.573  17.752   7.010 -0.0764 -0.1066 -0.3818
 1107YOPC   C4B15442   8.409  17.893   7.353  0.1965  0.2650  0.0497
 1108YOPC   NC315443  10.107  11.058   4.834  0.1540 -0.2406 -0.2200
 1108YOPC   PO415444   9.644  10.860   4.769 -0.1894 -0.1483  0.0494
 1108YOPC   GL115445   9.561  10.888   5.258  0.0264 -0.0774 -0.1357
 1108YOPC   GL215446   9.651  11.193   5.534 -0.5897  0.4111 -0.1695
 1108YOPC   C1A15447   9.309  10.675   5.669 -0.0968  0.0063 -0.1385
 1108YOPC   D2A15448   9.030  10.461   5.975 -0.1454 -0.1938  0.0394
 1108YOPC   C3A15449   9.076  10.497   6.454 -0.1802  0.0459 -0.1300
 1108YOPC   C4A15450   8.928  10.680   6.822 -0.0725 -0.0359 -0.0079
 1108YOPC   C1B15451   9.400  11.169   5.844  0.0329 -0.0274 -0.2381
 1108YOPC   C2B15452   9.366  11.341   6.248 -0.5190  0.0578 -0.0177
 1108YOPC   D3B15453   9.508  11.595   6.567  0.0045 -0.1054 -0.0866
 1108YOPC   C4B15454   9.692  12.058   6.736 -0.2258 -0.2435 -0.1251
 1109YOPC   NC315455   3.359  15.583   5.022 -0.0508  0.0349 -0.0927
 1109YOPC   PO415456   3.080  15.922   5.101  0.0710 -0.2894  0.1916
 1109YOPC   GL115457   3.147  15.823   5.539  0.1971  0.2452  0.0353
 1109YOPC   GL215458   3.261  16.143   5.565 -0.0891 -0.0920 -0.0211
 1109YOPC   C1A15459   3.021  15.783   5.933  0.2076  0.1321  0.1878
 1109YOPC   D2A15460   2.809  15.656   6.302 -0.1257 -0.1342  0.1448
 1109YOPC   C3A15461   2.951  15.947   6.613  0.1174  0.2336 -0.3112
 1109YOPC   C4A15462   2.895  16.151   7.137 -0.1354 -0.0364  0.1216
 1109YOPC   C1B15463   3.169  16.232   6.021  0.0814 -0.1053  0.1644
 1109YOPC   C2B15464   3.156  16.383   6.465 -0.0125  0.0171 -0.0807
 1109YOPC   D3B15465   3.371  16.143   6.750 -0.1675 -0.2035 -0.4427
 1109YOPC   C4B15466   3.803  16.236   6.900  0.2516 -0.0312  0.0079
 1110YOPC   NC315467  10.139   5.701   5.639  0.2470  0.0767 -0.3819
 1110YOPC   PO415468   9.717   5.685   5.720 -0.0197 -0.1375 -0.0226
 1110YOPC   GL115469   9.871   5.794   6.046 -0.1585  0.0658  0.0061
 1110YOPC   GL215470   9.863   6.124   6.035  0.0230 -0.0774 -0.2429
 1110YOPC   C1A15471  10.276   5.907   6.242  0.0125  0.3638 -0.0177
 1110YOPC   D2A15472  10.573   5.634   6.532  0.1022  0.1054  0.2346
 1110YOPC   C3A15473  10.940   5.430   6.417  0.2909 -0.3543 -0.3522
 1110YOPC   C4A15474  11.139   4.969   6.494 -0.1591 -0.0197 -0.2493
 1110YOPC   C1B15475   9.774   6.121   6.548 -0.0951  0.2005 -0.1927
 1110YOPC   C2B15476   9.856   6.395   6.935 -0.2982  0.2671  0.4691
 1110YOPC   D3B15477   9.990   6.828   6.906  0.0352  0.2700  0.0756
 1110YOPC   C4B15478   9.925   7.171   6.502 -0.0993 -0.1603 -0.0162
 1111YOPC   NC315479  15.078  16.258   5.098 -0.0764  0.1095 -0.0676
 1111YOPC   PO415480  14.795  16.337   5.449  0.0924  0.0224 -0.1093
 1111YOPC   GL115481  14.742  16.232   5.850  0.2865  0.3301  0.0468
 1111YOPC   GL215482  14.905  16.187   6.024  0.1591  0.2142  0.0786
 1111YOPC   C1A15483  14.513  16.042   6.321 -0.4770  0.1355  0.0390
 1111YOPC   D2A15484  14.161  15.973   6.564 -0.1081 -0.0193  0.1123
 1111YOPC   C3A15485  14.024  16.200   6.936  0.0425 -0.1137 -0.1099
 1111YOPC   C4A15486  13.887  16.441   7.371 -0.2308  0.3983  0.2617
 1111YOPC   C1B15487  15.034  16.018   6.435 -0.1276  0.0001  0.1392
 1111YOPC   C2B15488  14.805  16.073   6.765 -0.0043 -0.1666  0.0657
 1111YOPC   D3B15489  14.473  16.055   6.934  0.1368 -0.2966  0.2346
 1111YOPC   C4B15490  14.208  15.697   7.098  0.0262  0.5078  0.1615
 1112YOPC   NC315491   9.240  17.863   5.489 -0.0947  0.1329 -0.3730
 1112YOPC   PO415492   9.053  18.291   5.302  0.0127 -0.2322  0.2266
 1112YOPC   GL115493   8.928  18.309   5.670 -0.0252 -0.2776  0.3305
 1112YOPC   GL215494   8.745  18.038   5.893 -0.2620 -0.1332  0.0820
 1112YOPC   C1A15495   8.977  18.436   6.106 -0.2776  0.0667 -0.3481
 1112YOPC   D2A15496   9.188  18.383   6.467  0.0420 -0.4183  0.1029
 1112YOPC   C3A15497   9.447  18.694   6.643  0.0161  0.1320  0.1126
 1112YOPC   C4A15498   9.707  18.894   6.890 -0.0298  0.1429  0.1762
 1112YOPC   C1B15499   9.211  17.944   6.093 -0.1928 -0.2703  0.0987
 1112YOPC   C2B15500   9.582  18.223   6.244 -0.0873 -0.1052 -0.2486
 1112YOPC   D3B15501   9.885  18.029   6.508  0.1379  0.4804 -0.3566
 1112YOPC   C4B15502  10.169  17.828   6.836 -0.1695 -0.0178  0.2505
 1113YOPC   NC315503  14.449   9.049   5.292  0.0633  0.0032  0.0211
 1113YOPC   PO415504  14.778   9.338   5.340 -0.0948  0.1569 -0.0009
 1113YOPC   GL115505  14.638   9.397   5.771 -0.2504  0.0175 -0.2269
 1113YOPC   GL215506  14.351   9.226   5.720  0.0388  0.2766  0.0305
 1113YOPC   C1A15507  14.794   9.484   6.172  0.3739  0.0140 -0.2275
 1113YOPC   D2A15508  14.897   9.404   6.507  0.0507 -0.3576  0.4044
 1113YOPC   C3A15509  14.467   9.454   6.668 -0.2899  0.0581 -0.3475
 1113YOPC   C4A15510  14.281   9.468   6.983  0.0035  0.1638 -0.0497
 1113YOPC   C1B15511  14.392   9.145   6.155 -0.3498  0.0154  0.0628
 1113YOPC   C2B15512  14.556   8.955   6.414  0.1595  0.0378  0.0599
 1113YOPC   D3B15513  14.876   8.958   6.636  0.1657  0.2052 -0.0825
 1113YOPC   C4B15514  15.294   8.954   6.815 -0.1722  0.1506  0.2730
 1114YOPC   NC315515  14.476   3.930   5.348  0.1639  0.0280 -0.3833
 1114YOPC   PO415516  14.814   3.586   5.246  0.0468  0.2433  0.2198
 1114YOPC   GL115517  14.721   3.536   5.738 -0.3067  0.1222  0.0738
 1114YOPC   GL215518  14.665   3.826   5.837  0.1176 -0.1880  0.0922
 1114YOPC   C1A15519  14.659   3.232   6.104 -0.1309  0.1143  0.0822
 1114YOPC   D2A15520  14.322   2.938   6.321  0.0801  0.3127  0.0658
 1114YOPC   C3A15521  14.579   2.761   6.540 -0.0770 -0.0132 -0.2014
 1114YOPC   C4A15522  14.586   2.486   6.876  0.1053 -0.2334 -0.0262
 1114YOPC   C1B15523  14.560   4.142   6.177 -0.0440  0.1030  0.4023
 1114YOPC   C2B15524  14.732   4.190   6.537  0.2638 -0.2578  0.2009
 1114YOPC   D3B15525  14.847   3.922   6.873 -0.2887 -0.2208  0.2088
 1114YOPC   C4B15526  15.206   3.762   7.149 -0.0826 -0.3478  0.1635
 1115YOPC   NC315527   3.519  18.042   5.489  0.0004 -0.0285 -0.0959
 1115YOPC   PO415528   3.659  18.456   5.298  0.0112  0.1395 -0.1321
 1115YOPC   GL115529   3.864  18.674   5.615  0.0834  0.2573  0.0023
 1115YOPC   GL215530   3.958  18.969   5.682 -0.3368 -0.0030  0.0872
 1115YOPC   C1A15531   3.934  18.582   6.099  0.0642 -0.2677  0.1196
 1115YOPC   D2A15532   3.790  18.234   6.396  0.0656 -0.1380 -0.0430
 1115YOPC   C3A15533   3.851  18.241   6.942  0.3553  0.1979  0.1034
 1115YOPC   C4A15534   3.988  17.904   7.185  0.0456 -0.2514  0.1429
 1115YOPC   C1B15535   3.764  19.076   6.162  0.1155  0.0692  0.2187
 1115YOPC   C2B15536   3.838  19.128   6.599 -0.2033  0.1285 -0.0286
 1115YOPC   D3B15537   4.358  19.039   6.768  0.3799 -0.1574 -0.0975
 1115YOPC   C4B15538   4.686  18.884   6.955  0.0301  0.0593 -0.0717
 1116YOPC   NC315539  13.042   8.887   4.702 -0.3453 -0.0176 -0.1023
 1116YOPC   PO415540  13.256   9.030   5.033  0.0764  0.0465 -0.3999
 1116YOPC   GL115541  12.972   8.999   5.339 -0.1260 -0.1622 -0.1526
 1116YOPC   GL215542  13.060   9.026   5.654 -0.2089  0.2153 -0.0644
 1116YOPC   C1A15543  13.009   8.533   5.633  0.3247 -0.3162 -0.1109
 1116YOPC   D2A15544  12.881   8.099   5.796  0.2915  0.0979 -0.4350
 1116YOPC   C3A15545  12.798   8.034   6.149 -0.2623  0.0683  0.0868
 1116YOPC   C4A15546  12.639   7.794   6.506 -0.2015  0.0754 -0.4826
 1116YOPC   C1B15547  13.380   8.986   5.941 -0.1763  0.2358  0.0964
 1116YOPC   C2B15548  13.606   8.777   6.308  0.0621  0.3083 -0.0422
 1116YOPC   D3B15549  13.606   8.921   6.672  0.0803 -0.0323  0.2333
 1116YOPC   C4B15550  13.742   9.108   6.908  0.1950 -0.0142  0.2627
 1117YOPC   NC315551   5.472  11.023   5.646  0.3579 -0.1249 -0.0430
 1117YOPC   PO415552   5.247  10.624   5.517  0.1847  0.1663 -0.0354
 1117YOPC   GL115553   5.139  10.709   5.932 -0.0623  0.0672 -0.1608
 1117YOPC   GL215554   4.906  10.679   6.131 -0.0802  0.1491  0.0987
 1117YOPC   C1A15555   5.408  10.872   6.210  0.2851  0.3091 -0.1271
 1117YOPC   D2A15556   5.444  10.840   6.692 -0.2203  0.0314 -0.1700
 1117YOPC   C3A15557   5.324  11.092   6.926 -0.1457  0.2262 -0.1778
 1117YOPC   C4A15558   5.390  11.485   7.169  0.0348  0.3962 -0.1798
 1117YOPC   C1B15559   5.083  10.558   6.483  0.0318  0.0533 -0.0099
 1117YOPC   C2B15560   5.369  10.340   6.598 -0.3839 -0.0356  0.1389
 1117YOPC   D3B15561   5.204  10.158   6.909 -0.1659  0.0145 -0.0220
 1117YOPC   C4B15562   4.978  10.134   7.328 -0.0537 -0.2184  0.0124
 1118YOPC   NC315563   6.668   6.070   5.066  0.1614 -0.2720 -0.1052
 1118YOPC   PO415564   6.932   6.236   5.235  0.2717 -0.0922 -0.0631
 1118YOPC   GL115565   7.102   6.041   5.579  0.0096 -0.0580 -0.0296
 1118YOPC   GL215566   7.410   6.219   5.673 -0.1334  0.0107  0.2015
 1118YOPC   C1A15567   7.227   5.901   6.011  0.2519 -0.1623 -0.4001
 1118YOPC   D2A15568   7.316   6.131   6.258 -0.3438 -0.1506 -0.0414
 1118YOPC   C3A15569   7.314   6.154   6.731  0.2251  0.0330  0.1817
 1118YOPC   C4A15570   7.030   6.077   7.097 -0.2130  0.0088  0.0045
 1118YOPC   C1B15571   7.057   6.388   5.932  0.1082  0.0309 -0.1435
 1118YOPC   C2B15572   6.699   6.172   6.004 -0.0157  0.3687 -0.4460
 1118YOPC   D3B15573   6.741   5.953   6.293 -0.2105 -0.4162 -0.1706
 1118YOPC   C4B15574   6.969   5.702   6.559 -0.0906 -0.1929  0.0302
 1119YOPC   NC315575   7.622   0.104   5.362  0.1110 -0.2572 -0.2835
 1119YOPC   PO415576   7.899   0.445   5.415  0.0350 -0.0047 -0.0752
 1119YOPC   GL115577   7.823   0.581   5.868  0.1869 -0.0837  0.1196
 1119YOPC   GL215578   7.758   0.263   5.915 -0.0373 -0.0256  0.0367
 1119YOPC   C1A15579   7.655   0.789   6.317  0.0515  0.0626 -0.1392
 1119YOPC   D2A15580   7.619   1.096   6.670 -0.0465 -0.1560 -0.2161
 1119YOPC   C3A15581   7.735   0.998   7.043 -0.0651 -0.0921 -0.3340
 1119YOPC   C4A15582   7.702   0.967   7.504 -0.2757  0.2671  0.0773
 1119YOPC   C1B15583   7.462   0.134   6.185  0.1820 -0.0756 -0.4681
 1119YOPC   C2B15584   7.404  -0.117   6.638 -0.0362  0.0282  0.2702
 1119YOPC   D3B15585   7.406   0.094   6.959 -0.1846 -0.2612 -0.0582
 1119YOPC   C4B15586   7.316   0.015   7.353  0.0316 -0.2192  0.0748
 1120YOPC   NC315587   9.153  14.868   5.180 -0.0537  0.3769  0.0681
 1120YOPC   PO415588   9.094  15.189   5.474 -0.2572 -0.0416 -0.2919
 1120YOPC   GL115589   9.198  14.905   5.789  0.1731 -0.1100 -0.0510
 1120YOPC   GL215590   9.373  14.678   5.952 -0.0382  0.0536  0.2373
 1120YOPC   C1A15591   9.042  15.057   6.187  0.0736 -0.0607 -0.4171
 1120YOPC   D2A15592   8.794  15.455   6.307  0.1332 -0.1607 -0.2432
 1120YOPC   C3A15593   8.797  15.731   6.707  0.0758  0.0998 -0.1589
 1120YOPC   C4A15594   8.848  15.758   7.219 -0.1341 -0.1052  0.2950
 1120YOPC   C1B15595   9.510  14.686   6.353 -0.2070  0.0700 -0.0179
 1120YOPC   C2B15596   9.505  14.458   6.643  0.1922  0.2713  0.1527
 1120YOPC   D3B15597   9.872  14.239   6.731  0.0295  0.0222  0.0577
 1120YOPC   C4B15598  10.218  14.433   6.649 -0.0734  0.0168 -0.1320
 1121YOPC   NC315599   4.437   2.489   4.820 -0.3093  0.2112  0.1800
 1121YOPC   PO415600   3.988   2.448   4.993  0.0603  0.3727 -0.2001
 1121YOPC   GL115601   3.788   2.371   5.421  0.3469  0.1812 -0.1392
 1121YOPC   GL215602   3.876   2.053   5.412  0.5056  0.0066  0.0831
 1121YOPC   C1A15603   3.400   2.542   5.736  0.0555 -0.1159 -0.1691
 1121YOPC   D2A15604   3.076   2.540   6.085  0.2616  0.2433  0.0140
 1121YOPC   C3A15605   2.834   2.810   6.104 -0.2439  0.0853 -0.2632
 1121YOPC   C4A15606   2.818   2.733   6.586  0.1178 -0.2853  0.0784
 1121YOPC   C1B15607   3.860   2.178   5.888  0.2007 -0.1681 -0.2185
 1121YOPC   C2B15608   3.776   1.847   6.215  0.1123 -0.1703 -0.0923
 1121YOPC   D3B15609   3.740   1.643   6.616 -0.0515 -0.1824  0.2591
 1121YOPC   C4B15610   3.710   1.628   6.988  0.0153  0.0745 -0.1184
 1122YOPC   NC315611   1.195   9.199   5.476  0.4166 -0.4013 -0.0930
 1122YOPC   PO415612   1.621   9.425   5.435  0.2300 -0.1091 -0.1645
 1122YOPC   GL115613   1.723   9.244   5.761 -0.1318  0.1283 -0.1870
 1122YOPC   GL215614   1.589   9.620   5.895 -0.1374  0.1026  0.1667
 1122YOPC   C1A15615   1.758   9.286   6.237  0.3499 -0.0604  0.0824
 1122YOPC   D2A15616   1.513   9.071   6.487  0.0345 -0.1995  0.0250
 1122YOPC   C3A15617   1.233   9.152   6.857 -0.1375 -0.0572 -0.2847
 1122YOPC   C4A15618   1.202   9.095   7.272 -0.0342  0.2956  0.0318
 1122YOPC   C1B15619   1.703   9.801   6.213  0.1015 -0.1595  0.1148
 1122YOPC   C2B15620   1.794   9.743   6.690 -0.0958  0.0184  0.2537
 1122YOPC   D3B15621   1.591   9.530   7.055  0.5119  0.2298  0.0219
 1122YOPC   C4B15622   1.412   9.509   7.480 -0.2471 -0.1384  0.0986
 1123YOPC   NC315623   6.324   5.696   5.056 -0.1337 -0.0752  0.1718
 1123YOPC   PO415624   6.194   6.004   5.107 -0.5630 -0.1965 -0.0920
 1123YOPC   GL115625   6.065   6.338   5.281  0.1210  0.0786 -0.0023
 1123YOPC   GL215626   5.816   6.303   5.561 -0.2671 -0.0099 -0.1343
 1123YOPC   C1A15627   6.284   6.310   5.724 -0.3354 -0.0691 -0.2163
 1123YOPC   D2A15628   6.117   6.012   5.987 -0.0186 -0.1940 -0.1481
 1123YOPC   C3A15629   5.843   5.634   6.194 -0.0395 -0.4005 -0.1421
 1123YOPC   C4A15630   5.491   5.519   6.425  0.1254  0.2683 -0.2883
 1123YOPC   C1B15631   5.673   6.524   5.946  0.1180  0.0896 -0.0770
 1123YOPC   C2B15632   5.769   6.414   6.303 -0.3805 -0.0900 -0.1725
 1123YOPC   D3B15633   5.570   6.486   6.605 -0.2145 -0.2571 -0.2935
 1123YOPC   C4B15634   5.617   6.574   7.054 -0.5241  0.3432 -0.2041
 1124YOPC   NC315635  15.666   4.798   4.885 -0.1399 -0.1244  0.0020
 1124YOPC   PO415636  15.191   4.954   4.848 -0.0142 -0.2362 -0.2209
 1124YOPC   GL115637  15.201   4.950   5.284  0.1445 -0.2404 -0.2435
 1124YOPC   GL215638  15.154   5.187   5.606  0.2876  0.2963 -0.0627
 1124YOPC   C1A15639  15.206   4.611   5.560  0.2351  0.0080  0.3329
 1124YOPC   D2A15640  15.128   4.657   5.951 -0.1540 -0.1957 -0.2050
 1124YOPC   C3A15641  14.981   4.488   6.252 -0.2843  0.1694 -0.3042
 1124YOPC   C4A15642  15.045   4.554   6.714 -0.0143 -0.1728 -0.2749
 1124YOPC   C1B15643  14.928   5.140   5.950 -0.1312  0.0703 -0.2077
 1124YOPC   C2B15644  15.084   4.980   6.359 -0.0755  0.1010  0.0533
 1124YOPC   D3B15645  15.366   5.028   6.639 -0.2387  0.2414  0.2820
 1124YOPC   C4B15646  15.492   5.242   6.987 -0.0391  0.1753  0.1258
 1125YOPC   NC315647   0.295   7.854   5.445  0.0511 -0.0797 -0.2950
 1125YOPC   PO415648  -0.169   7.869   5.310 -0.3810  0.4982 -0.0782
 1125YOPC   GL115649  -0.153   7.981   5.699 -0.0916 -0.0965  0.3832
 1125YOPC   GL215650  -0.439   8.027   5.811 -0.0460 -0.2007  0.0497
 1125YOPC   C1A15651   0.007   7.896   6.148  0.2677 -0.1130  0.2445
 1125YOPC   D2A15652  -0.115   8.101   6.496 -0.2787 -0.3216  0.0329
 1125YOPC   C3A15653  -0.120   8.599   6.553 -0.3581 -0.2079  0.1762
 1125YOPC   C4A15654  -0.296   8.870   6.250  0.0410  0.1987  0.3934
 1125YOPC   C1B15655  -0.436   7.810   6.207 -0.2284 -0.1238  0.3004
 1125YOPC   C2B15656  -0.498   7.747   6.579 -0.0015  0.2732 -0.0038
 1125YOPC   D3B15657  -0.221   7.768   6.855  0.1648  0.1844 -0.0336
 1125YOPC   C4B15658   0.044   7.937   7.067 -0.0307 -0.0703  0.0881
 1126YOPC   NC315659   5.097   0.088   5.290 -0.0831 -0.1019 -0.0913
 1126YOPC   PO415660   5.404   0.354   5.063  0.0007  0.2560 -0.1734
 1126YOPC   GL115661   5.312   0.490   5.487 -0.3907 -0.0698  0.1362
 1126YOPC   GL215662   4.990   0.494   5.600 -0.1251 -0.0009  0.1257
 1126YOPC   C1A15663   5.348   0.453   5.910  0.0039 -0.2060 -0.1722
 1126YOPC   D2A15664   5.631   0.391   6.217 -0.1792 -0.1350  0.0799
 1126YOPC   C3A15665   6.048   0.538   6.275  0.0005 -0.0944  0.0445
 1126YOPC   C4A15666   6.029   0.435   6.697 -0.1728  0.1849 -0.0670
 1126YOPC   C1B15667   4.857   0.240   5.949  0.1216 -0.0864 -0.2778
 1126YOPC   C2B15668   4.555   0.496   6.217 -0.1084  0.0971 -0.2215
 1126YOPC   D3B15669   4.663   0.975   6.173  0.3927  0.1547 -0.1330
 1126YOPC   C4B15670   4.844   1.369   6.128  0.1690  0.0536  0.1919
 1127YOPC   NC315671   9.756   9.311   5.195  0.0390  0.2238 -0.1283
 1127YOPC   PO415672  10.211   9.290   5.370 -0.1747  0.1337  0.0793
 1127YOPC   GL115673  10.554   9.374   5.623 -0.3188 -0.2795 -0.1667
 1127YOPC   GL215674  10.619   9.641   5.617 -0.0782  0.5031 -0.3673
 1127YOPC   C1A15675  10.728   9.475   6.056 -0.1482 -0.2268  0.0511
 1127YOPC   D2A15676  10.901   9.550   6.478  0.2331 -0.1046 -0.0449
 1127YOPC   C3A15677  11.102   9.703   6.706 -0.1848 -0.2455 -0.1084
 1127YOPC   C4A15678  11.365  10.044   6.757 -0.1380  0.1215  0.0849
 1127YOPC   C1B15679  11.104   9.675   5.652  0.2208 -0.1521  0.1265
 1127YOPC   C2B15680  11.182   9.936   5.930  0.0892 -0.1163  0.3364
 1127YOPC   D3B15681  10.832  10.010   6.220  0.1278  0.4333  0.2216
 1127YOPC   C4B15682  10.803  10.115   6.602 -0.0165  0.1971  0.3010
 1128YOPC   NC315683  14.886  14.062   5.313 -0.7596  0.2207  0.3656
 1128YOPC   PO415684  15.279  14.083   5.064 -0.2226 -0.0746  0.0129
 1128YOPC   GL115685  15.359  13.995   5.519  0.0795  0.0220 -0.2535
 1128YOPC   GL215686  15.135  13.974   5.830 -0.3580  0.0318 -0.2831
 1128YOPC   C1A15687  15.679  14.305   5.710  0.1042 -0.4048  0.0511
 1128YOPC   D2A15688  15.995  14.215   5.985  0.0151  0.2162 -0.3261
 1128YOPC   C3A15689  16.098  13.828   6.039 -0.0459  0.3252 -0.1468
 1128YOPC   C4A15690  15.880  13.411   6.245  0.0708  0.0174 -0.2993
 1128YOPC   C1B15691  15.587  13.904   6.013 -0.1800  0.0967  0.2449
 1128YOPC   C2B15692  15.718  13.926   6.426  0.2942 -0.0521 -0.2460
 1128YOPC   D3B15693  15.438  13.895   6.899 -0.1501  0.2302  0.2718
 1128YOPC   C4B15694  15.108  13.584   6.817  0.0585  0.0510  0.1415
 1129YOPC   NC315695  12.912  17.257   4.952  0.1637  0.1225 -0.3387
 1129YOPC   PO415696  12.545  17.102   5.185 -0.2498 -0.1142 -0.0973
 1129YOPC   GL115697  12.565  16.834   5.572  0.2384  0.1457  0.4820
 1129YOPC   GL215698  12.323  16.603   5.687 -0.1785  0.0352 -0.0401
 1129YOPC   C1A15699  13.025  16.697   5.831  0.4058  0.0515  0.2083
 1129YOPC   D2A15700  13.208  16.490   6.198 -0.0137  0.0618  0.1348
 1129YOPC   C3A15701  13.609  16.586   6.334 -0.0951  0.0660 -0.0286
 1129YOPC   C4A15702  13.878  16.696   6.798 -0.0130 -0.0512 -0.2047
 1129YOPC   C1B15703  12.609  16.661   6.161  0.2671 -0.1540 -0.2090
 1129YOPC   C2B15704  12.887  16.651   6.577 -0.0415  0.0525  0.3362
 1129YOPC   D3B15705  13.318  16.560   6.824 -0.3829  0.0668 -0.0038
 1129YOPC   C4B15706  13.503  16.219   6.924 -0.3969 -0.0250  0.0327
 1130YOPC   NC315707   4.938   8.946   5.000  0.2519  0.1898 -0.2361
 1130YOPC   PO415708   4.696   9.263   4.816  0.0133  0.4034  0.1864
 1130YOPC   GL115709   4.615   9.293   5.243  0.0015  0.3044  0.0075
 1130YOPC   GL215710   4.397   9.050   5.476  0.4338 -0.3249 -0.3903
 1130YOPC   C1A15711   4.854   9.279   5.662 -0.0664  0.0066 -0.2043
 1130YOPC   D2A15712   4.777   9.200   6.153  0.1204  0.1767 -0.1852
 1130YOPC   C3A15713   4.529   9.285   6.329 -0.2483 -0.2717 -0.0710
 1130YOPC   C4A15714   4.379   9.573   6.642 -0.1057 -0.0084  0.0909
 1130YOPC   C1B15715   4.285   8.965   5.914 -0.1743 -0.0438  0.1864
 1130YOPC   C2B15716   4.106   8.916   6.380  0.1991  0.4721 -0.0088
 1130YOPC   D3B15717   4.074   9.220   6.778  0.1998  0.0343 -0.0320
 1130YOPC   C4B15718   4.303   9.249   7.283 -0.0187  0.0068 -0.1623
 1131YOPC   NC315719  11.812  14.384   5.316 -0.1418 -0.4001  0.0870
 1131YOPC   PO415720  12.101  14.062   5.154  0.2437 -0.2729  0.0805
 1131YOPC   GL115721  11.989  13.898   5.476  0.2799  0.4167  0.0029
 1131YOPC   GL215722  11.765  13.678   5.385 -0.1104 -0.2415 -0.0760
 1131YOPC   C1A15723  11.882  13.826   5.949 -0.3270  0.1508 -0.1268
 1131YOPC   D2A15724  12.210  14.019   6.237  0.1578 -0.1045 -0.1521
 1131YOPC   C3A15725  12.652  13.864   6.202 -0.1216 -0.0858  0.3064
 1131YOPC   C4A15726  12.995  13.889   6.379 -0.0655  0.1032  0.1910
 1131YOPC   C1B15727  11.585  13.407   5.733 -0.2001  0.0635  0.0559
 1131YOPC   C2B15728  11.610  13.413   6.223 -0.0939 -0.2968 -0.2895
 1131YOPC   D3B15729  11.730  13.750   6.448  0.2152  0.0235  0.2189
 1131YOPC   C4B15730  11.576  14.119   6.692 -0.2297  0.0645  0.2356
 1132YOPC   NC315731  17.090   9.457   5.255  0.0862 -0.2236 -0.1748
 1132YOPC   PO415732  17.001   8.979   5.318  0.2929  0.0326  0.0934
 1132YOPC   GL115733  16.848   8.940   5.730 -0.1113  0.0692  0.4173
 1132YOPC   GL215734  16.522   9.053   5.622  0.0680 -0.1430 -0.2094
 1132YOPC   C1A15735  16.953   8.812   6.037  0.0113  0.1432  0.1745
 1132YOPC   D2A15736  16.941   8.771   6.452 -0.1454 -0.2068 -0.1630
 1132YOPC   C3A15737  16.676   8.594   6.689  0.0690  0.0063 -0.0088
 1132YOPC   C4A15738  16.492   8.683   7.043 -0.0456 -0.1031 -0.0368
 1132YOPC   C1B15739  16.835   9.405   5.792  0.3523  0.2594 -0.1893
 1132YOPC   C2B15740  16.829   9.721   6.137 -0.4782 -0.2022  0.0557
 1132YOPC   D3B15741  16.701   9.668   6.539 -0.0378  0.1387  0.0224
 1132YOPC   C4B15742  16.759   9.509   6.946  0.1686 -0.1594 -0.0439
 1133YOPC   NC315743   3.789   1.820   4.863  0.1471  0.2178 -0.2684
 1133YOPC   PO415744   3.567   1.573   4.862 -0.4727 -0.0715 -0.0372
 1133YOPC   GL115745   3.452   1.539   5.293 -0.1679 -0.1142  0.2537
 1133YOPC   GL215746   3.546   1.184   5.426  0.2923 -0.1020  0.4659
 1133YOPC   C1A15747   3.107   1.538   5.589  0.0216 -0.0513  0.1024
 1133YOPC   D2A15748   2.804   1.353   5.829 -0.0826  0.2109 -0.1848
 1133YOPC   C3A15749   2.773   1.553   6.230  0.0134 -0.1319  0.0611
 1133YOPC   C4A15750   2.464   1.443   6.609 -0.1662  0.3650  0.1578
 1133YOPC   C1B15751   3.452   1.204   5.813  0.0081 -0.2055  0.3602
 1133YOPC   C2B15752   3.175   1.200   6.143  0.4307 -0.1805 -0.5590
 1133YOPC   D3B15753   3.253   1.432   6.532 -0.1475 -0.2418 -0.0999
 1133YOPC   C4B15754   3.400   1.225   6.924  0.1088 -0.0401  0.0454
 1134YOPC   NC315755   6.031   8.410   5.242 -0.0798  0.0556 -0.0892
 1134YOPC   PO415756   5.528   8.502   5.129  0.2633 -0.0062  0.0864
 1134YOPC   GL115757   5.552   8.534   5.610 -0.1609 -0.1317 -0.1285
 1134YOPC   GL215758   5.867   8.476   5.748 -0.1896  0.1157 -0.2953
 1134YOPC   C1A15759   5.221   8.545   5.888 -0.0707  0.0140 -0.0345
 1134YOPC   D2A15760   5.048   8.526   6.326  0.0528  0.1434 -0.0260
 1134YOPC   C3A15761   5.124   8.928   6.480  0.5729  0.0753 -0.0358
 1134YOPC   C4A15762   4.932   9.356   6.619  0.3567  0.2251  0.1242
 1134YOPC   C1B15763   5.621   8.456   6.153  0.0748  0.3370  0.1411
 1134YOPC   C2B15764   5.615   8.094   6.512 -0.0398  0.0498 -0.0538
 1134YOPC   D3B15765   5.908   8.004   6.725 -0.0194  0.1954  0.0911
 1134YOPC   C4B15766   6.307   8.004   6.882  0.0903 -0.3734  0.1403
 1135YOPC   NC315767   9.674  12.215   5.003 -0.1073 -0.1330 -0.0038
 1135YOPC   PO415768   9.996  12.607   5.154  0.0562  0.0135  0.1711
 1135YOPC   GL115769  10.119  12.645   5.570  0.0955  0.0993  0.0990
 1135YOPC   GL215770   9.787  12.643   5.714 -0.0009 -0.2708  0.1225
 1135YOPC   C1A15771  10.018  12.194   5.905  0.2064  0.0218 -0.1875
 1135YOPC   D2A15772   9.924  12.006   6.266  0.0356 -0.1016 -0.1291
 1135YOPC   C3A15773  10.050  11.562   6.409 -0.1500  0.0639  0.2738
 1135YOPC   C4A15774   9.903  11.210   6.635  0.1784  0.1908  0.0073
 1135YOPC   C1B15775   9.921  12.539   6.241  0.1389  0.0369 -0.0457
 1135YOPC   C2B15776  10.092  12.350   6.626 -0.0863 -0.0514  0.1919
 1135YOPC   D3B15777  10.266  11.927   6.659 -0.2034  0.2150 -0.4605
 1135YOPC   C4B15778  10.450  11.903   7.158  0.5364  0.1047  0.0461
 1136YOPC   NC315779  12.687   0.017   5.554 -0.0733 -0.1669 -0.0896
 1136YOPC   PO415780  12.624  -0.292   5.607 -0.0291  0.2476  0.0154
 1136YOPC   GL115781  12.604  -0.565   6.032 -0.0324  0.0346 -0.2515
 1136YOPC   GL215782  12.574  -0.800   5.952  0.2219  0.3339 -0.0141
 1136YOPC   C1A15783  12.614  -0.580   6.526 -0.3249 -0.1523 -0.1276
 1136YOPC   D2A15784  12.680  -0.402   6.875  0.0463 -0.1073 -0.1059
 1136YOPC   C3A15785  12.873  -0.029   6.945 -0.3078 -0.0365  0.0716
 1136YOPC   C4A15786  13.023   0.120   7.382  0.0901 -0.0148  0.0593
 1136YOPC   C1B15787  12.932  -0.939   6.237 -0.1955 -0.2498 -0.1591
 1136YOPC   C2B15788  13.074  -0.816   6.543 -0.0234 -0.2145 -0.3184
 1136YOPC   D3B15789  12.741  -0.956   6.937 -0.2325 -0.0871  0.0885
 1136YOPC   C4B15790  12.443  -0.774   7.199 -0.2440 -0.0226 -0.0695
 1137YOPC   NC315791   9.776   7.166   5.034 -0.3972 -0.0974  0.0551
 1137YOPC   PO415792   9.487   7.038   5.296 -0.1279 -0.1410  0.0174
 1137YOPC   GL115793   9.426   7.330   5.601 -0.1579 -0.1744  0.2126
 1137YOPC   GL215794   9.708   7.460   5.873 -0.3349  0.0488 -0.1007
 1137YOPC   C1A15795   9.190   7.489   5.887 -0.3250  0.0717 -0.0626
 1137YOPC   D2A15796   9.114   7.830   5.995  0.0233 -0.0937  0.1112
 1137YOPC   C3A15797   9.152   8.206   5.938  0.0823  0.2594  0.5021
 1137YOPC   C4A15798   9.347   8.585   6.133 -0.2297  0.3052  0.0282
 1137YOPC   C1B15799   9.700   7.492   6.192  0.0563  0.1700 -0.3048
 1137YOPC   C2B15800   9.600   7.588   6.535  0.0632 -0.4653 -0.0558
 1137YOPC   D3B15801   9.979   7.768   6.860  0.0586 -0.1468 -0.2123
 1137YOPC   C4B15802  10.427   7.852   6.938 -0.2020 -0.0877  0.0595
 1138YOPC   NC315803   5.773  12.547   5.638 -0.1656 -0.1217  0.0057
 1138YOPC   PO415804   5.427  12.423   5.801 -0.0030 -0.2304  0.3241
 1138YOPC   GL115805   5.437  12.431   6.246  0.1419  0.0268 -0.0398
 1138YOPC   GL215806   5.749  12.492   6.223 -0.0891  0.1200  0.2573
 1138YOPC   C1A15807   5.334  12.273   6.621 -0.0983  0.1055 -0.2595
 1138YOPC   D2A15808   5.482  12.318   7.080 -0.1488  0.1712  0.0312
 1138YOPC   C3A15809   5.600  11.983   7.402 -0.4025 -0.1311 -0.2136
 1138YOPC   C4A15810   5.884  11.632   7.276  0.0047 -0.4680  0.1567
 1138YOPC   C1B15811   5.763  11.982   6.350 -0.1799  0.1819  0.1448
 1138YOPC   C2B15812   5.681  11.487   6.158  0.1344  0.0723  0.2943
 1138YOPC   D3B15813   5.897  11.186   6.445 -0.3658  0.1429 -0.0312
 1138YOPC   C4B15814   6.264  11.326   6.803  0.0659 -0.1675 -0.1518
 1139YOPC   NC315815  16.182  12.494   5.518  0.0666 -0.4132  0.1905
 1139YOPC   PO415816  16.425  12.215   5.686 -0.0231 -0.0639 -0.2174
 1139YOPC   GL115817  16.273  12.288   6.054  0.3495 -0.0338  0.4177
 1139YOPC   GL215818  16.531  12.276   6.167 -0.1904 -0.4722  0.1008
 1139YOPC   C1A15819  15.983  12.035   6.409 -0.1225  0.7992  0.1111
 1139YOPC   D2A15820  15.542  11.893   6.560 -0.1559  0.0599 -0.1418
 1139YOPC   C3A15821  15.374  11.851   6.978 -0.2664  0.0391  0.0086
 1139YOPC   C4A15822  15.286  11.958   7.405 -0.0757  0.0193  0.2375
 1139YOPC   C1B15823  16.582  12.267   6.578  0.3175 -0.1246 -0.1476
 1139YOPC   C2B15824  16.652  12.279   6.987 -0.0187  0.2713  0.0759
 1139YOPC   D3B15825  16.911  12.624   7.059 -0.2072 -0.0347 -0.1240
 1139YOPC   C4B15826  17.086  12.996   7.067  0.1063 -0.0901 -0.3012
 1140YOPC   NC315827   9.366  18.323   4.918 -0.2942 -0.0792  0.0614
 1140YOPC   PO415828   9.624  18.091   5.318 -0.2271  0.1709 -0.0999
 1140YOPC   GL115829   9.703  17.728   5.706  0.0856 -0.3617 -0.2420
 1140YOPC   GL215830   9.876  17.516   5.759 -0.0417 -0.0990  0.1371
 1140YOPC   C1A15831   9.636  17.730   6.152  0.0414  0.0168 -0.0502
 1140YOPC   D2A15832   9.379  17.872   6.590  0.1323  0.3128  0.2388
 1140YOPC   C3A15833   9.489  18.224   6.781  0.1430 -0.1305 -0.3594
 1140YOPC   C4A15834   9.391  18.341   7.092 -0.2487  0.0757 -0.0054
 1140YOPC   C1B15835  10.030  17.439   6.214  0.0789 -0.3289  0.0535
 1140YOPC   C2B15836  10.218  17.291   6.467  0.0923 -0.0914 -0.0810
 1140YOPC   D3B15837  10.026  17.261   6.891  0.2040  0.1004  0.0250
 1140YOPC   C4B15838   9.708  17.408   7.158 -0.1590 -0.1216  0.1752
 1141YOPC   NC315839   5.417  17.942   4.887 -0.0634  0.1305  0.2119
 1141YOPC   PO415840   4.972  17.919   5.008 -0.0287 -0.0881  0.2353
 1141YOPC   GL115841   4.941  17.914   5.440  0.1346 -0.1852 -0.2585
 1141YOPC   GL215842   5.194  18.098   5.617 -0.1579 -0.3579  0.2358
 1141YOPC   C1A15843   4.838  17.630   5.800 -0.0597 -0.2663  0.3040
 1141YOPC   D2A15844   4.975  17.401   6.061 -0.0646 -0.0778 -0.4003
 1141YOPC   C3A15845   5.151  17.495   6.461  0.1246 -0.4529 -0.2498
 1141YOPC   C4A15846   5.436  17.843   6.598 -0.2702  0.1336 -0.0459
 1141YOPC   C1B15847   5.313  17.581   5.548  0.1353  0.0333 -0.1167
 1141YOPC   C2B15848   5.244  17.219   5.664 -0.2004 -0.0400  0.2051
 1141YOPC   D3B15849   5.699  17.185   5.806 -0.2058  0.0731 -0.2461
 1141YOPC   C4B15850   6.028  17.178   6.041 -0.2723  0.0975 -0.0952
 1142YOPC   NC315851  18.877  14.692   5.208 -0.0482 -0.0401 -0.2083
 1142YOPC   PO415852  18.587  15.054   5.054  0.0477  0.4707  0.1698
 1142YOPC   GL115853  18.743  15.070   5.512 -0.0084 -0.1479 -0.0361
 1142YOPC   GL215854  18.729  15.411   5.457  0.1832  0.0087  0.1402
 1142YOPC   C1A15855  18.835  15.276   5.947  0.0758  0.0726  0.2909
 1142YOPC   D2A15856  19.129  15.376   6.058 -0.0168 -0.0972 -0.3089
 1142YOPC   C3A15857  19.179  15.391   6.526  0.1393  0.0034 -0.1772
 1142YOPC   C4A15858  19.269  15.323   6.939 -0.0209  0.3222  0.2611
 1142YOPC   C1B15859  19.078  15.599   5.609 -0.0390  0.3360 -0.2595
 1142YOPC   C2B15860  19.294  15.870   5.751  0.0204 -0.0887 -0.2088
 1142YOPC   D3B15861  19.368  15.780   6.241  0.3672 -0.0132 -0.2226
 1142YOPC   C4B15862  19.566  15.676   6.667  0.1981  0.1523  0.2030
 1143ERGO   ROH15863  10.900  14.338   5.888 -0.2190 -0.1723  0.0139
 1143ERGO    R115864  11.108  14.369   6.078 -0.1861 -0.0574 -0.0398
 1143ERGO    R215865  11.137  14.598   6.230 -0.1641  0.0332 -0.1763
 1143ERGO    R315866  11.132  14.422   6.437 -0.1249  0.1517 -0.0735
 1143ERGO    R415867  11.198  14.679   6.560  0.1545  0.1751 -0.2659
 1143ERGO    R515868  11.310  14.494   6.581  0.0401  0.1081 -0.2528
 1143ERGO    C115869  11.228  14.562   6.947  0.3767  0.3690 -0.2214
 1143ERGO    C215870  11.358  14.823   7.109  0.2628  0.0077  0.1934
 1144ERGO   ROH15871  10.214  12.811   9.013  0.0579  0.1297 -0.1397
 1144ERGO    R115872  10.044  12.698   8.817  0.0050  0.1630 -0.1132
 1144ERGO    R215873   9.949  12.843   8.602  0.0256  0.1728 -0.1152
 1144ERGO    R315874  10.057  12.639   8.458 -0.0490  0.1288 -0.1099
 1144ERGO    R415875   9.947  12.822   8.257 -0.2128  0.0367 -0.1078
 1144ERGO    R515876   9.906  12.608   8.275 -0.1745  0.0375  0.0065
 1144ERGO    C115877  10.048  12.618   7.921 -0.4215 -0.0837 -0.0984
 1144ERGO    C215878  10.100  12.570   7.510  0.2949  0.1602  0.1125
 1145ERGO   ROH15879  12.118   3.368   7.032  0.1424 -0.1090  0.0203
 1145ERGO    R115880  11.911   3.337   7.223  0.0920 -0.1722 -0.0439
 1145ERGO    R215881  11.664   3.230   7.159  0.1075 -0.1529 -0.1443
 1145ERGO    R315882  11.720   3.061   7.365  0.0557 -0.2198 -0.1851
 1145ERGO    R415883  11.455   2.978   7.270 -0.0970  0.0703 -0.0134
 1145ERGO    R515884  11.510   3.030   7.475  0.0921  0.0068 -0.0484
 1145ERGO    C115885  11.386   2.673   7.527 -0.2647  0.1374  0.0244
 1145ERGO    C215886  11.119   2.478   7.584 -0.2804 -0.1271  0.2137
 1146ERGO   ROH15887  15.971  16.959   5.730  0.1885 -0.2555 -0.0886
 1146ERGO    R115888  16.014  16.941   6.009  0.1887 -0.2399 -0.0877
 1146ERGO    R215889  16.260  16.992   6.125  0.1534 -0.0953 -0.0768
 1146ERGO    R315890  16.117  17.166   6.276  0.0418 -0.1878 -0.0740
 1146ERGO    R415891  16.306  17.042   6.463  0.2110  0.0177 -0.1010
 1146ERGO    R515892  16.089  17.054   6.486  0.2040 -0.1696 -0.0403
 1146ERGO    C115893  16.199  17.236   6.803  0.1397 -0.0032 -0.1125
 1146ERGO    C215894  16.444  17.213   7.074  0.1600  0.2009  0.0551
 1147ERGO   ROH15895   3.805  14.654   5.989  0.0913 -0.1869 -0.0903
 1147ERGO    R115896   3.734  14.598   6.257  0.1124 -0.0371 -0.0526
 1147ERGO    R215897   3.918  14.514   6.445  0.0920 -0.1336 -0.0721
 1147ERGO    R315898   3.822  14.726   6.587  0.3098 -0.0013 -0.1191
 1147ERGO    R415899   3.911  14.533   6.790 -0.0435 -0.1126 -0.0753
 1147ERGO    R515900   3.713  14.626   6.776  0.0881  0.1509 -0.1664
 1147ERGO    C115901   3.817  14.743   7.124  0.0820  0.0238 -0.1212
 1147ERGO    C215902   3.905  14.524   7.340 -0.4148 -0.0233 -0.1323
 1148ERGO   ROH15903   7.528   9.517   8.992 -0.1756  0.0617 -0.0004
 1148ERGO    R115904   7.444   9.581   8.730 -0.0321  0.2029 -0.0149
 1148ERGO    R215905   7.617   9.678   8.537  0.1534 -0.0283  0.0231
 1148ERGO    R315906   7.522   9.468   8.392 -0.1198  0.1108 -0.0034
 1148ERGO    R415907   7.669   9.631   8.199  0.3521 -0.2134  0.0779
 1148ERGO    R515908   7.463   9.564   8.181  0.2368  0.1696 -0.0782
 1148ERGO    C115909   7.610   9.407   7.866  0.2113 -0.1905  0.0849
 1148ERGO    C215910   7.753   9.371   7.571 -0.0532 -0.0787  0.4611
 1149ERGO   ROH15911  11.539  11.875   5.495  0.1151  0.1424  0.1010
 1149ERGO    R115912  11.455  11.884   5.765  0.0913 -0.0066  0.0999
 1149ERGO    R215913  11.563  11.722   5.961  0.2505  0.0579  0.0694
 1149ERGO    R315914  11.606  11.959   6.087  0.0009  0.0769  0.1228
 1149ERGO    R415915  11.649  11.756   6.294  0.3439  0.0683  0.0443
 1149ERGO    R515916  11.515  11.927   6.306  0.1299 -0.1048  0.1504
 1149ERGO    C115917  11.739  11.997   6.607  0.1639  0.0921  0.0798
 1149ERGO    C215918  11.829  12.088   6.865  0.1910  0.0538  0.3438
 1150ERGO   ROH15919   7.955  16.459   9.164 -0.2004  0.0331  0.0980
 1150ERGO    R115920   7.956  16.271   8.952  0.0542  0.1376  0.0021
 1150ERGO    R215921   7.724  16.181   8.831  0.1548 -0.2415  0.0714
 1150ERGO    R315922   7.850  16.263   8.604 -0.1034  0.1180  0.0507
 1150ERGO    R415923   7.613  16.117   8.511  0.0909 -0.2220  0.0899
 1150ERGO    R515924   7.820  16.081   8.451  0.1226  0.1641 -0.0491
 1150ERGO    C115925   7.665  16.156   8.111 -0.1888  0.1266  0.0811
 1150ERGO    C215926   7.521  16.051   7.827 -0.3517  0.0374 -0.0629
 1151ERGO   ROH15927   8.461   9.283   9.203 -0.1708  0.0240  0.0847
 1151ERGO    R115928   8.595   9.276   8.954 -0.1296 -0.0019  0.1069
 1151ERGO    R215929   8.553   9.075   8.768 -0.0014 -0.0977  0.1723
 1151ERGO    R315930   8.501   9.284   8.602 -0.0865 -0.1821  0.0921
 1151ERGO    R415931   8.626   9.082   8.430 -0.0905 -0.2155  0.1502
 1151ERGO    R515932   8.688   9.290   8.453 -0.1321 -0.1989  0.0431
 1151ERGO    C115933   8.619   9.283   8.078 -0.2221 -0.3633  0.0620
 1151ERGO    C215934   8.594   9.243   7.772  0.0011  0.2146  0.3928
 1152ERGO   ROH15935   6.361   6.597   9.043  0.1827 -0.1262  0.1729
 1152ERGO    R115936   6.382   6.738   8.799  0.2049 -0.0773  0.2023
 1152ERGO    R215937   6.506   6.631   8.575 -0.0120 -0.1435  0.1066
 1152ERGO    R315938   6.269   6.690   8.456 -0.0157  0.1317  0.2451
 1152ERGO    R415939   6.472   6.758   8.256 -0.0616 -0.0535  0.1475
 1152ERGO    R515940   6.314   6.889   8.330  0.1215  0.1025  0.2541
 1152ERGO    C115941   6.229   6.888   7.958 -0.0938  0.2572  0.3014
 1152ERGO    C215942   6.252   6.845   7.648 -0.4274  0.3637 -0.1550
 1153ERGO   ROH15943   5.797  17.774   9.040 -0.0029  0.3278  0.1141
 1153ERGO    R115944   5.642  17.810   8.806  0.0268  0.3600  0.0990
 1153ERGO    R215945   5.727  17.965   8.593  0.2180  0.0957 -0.0238
 1153ERGO    R315946   5.678  17.739   8.452 -0.0886  0.0494  0.1470
 1153ERGO    R415947   5.704  17.948   8.249  0.2973 -0.1511 -0.0188
 1153ERGO    R515948   5.537  17.810   8.272  0.0739  0.1209  0.0475
 1153ERGO    C115949   5.645  17.726   7.915  0.0556 -0.3382  0.1445
 1153ERGO    C215950   5.709  17.788   7.605  0.0077 -0.0141  0.1185
 1154ERGO   ROH15951  13.489   3.014   5.718  0.0651 -0.0899 -0.0521
 1154ERGO    R115952  13.320   3.101   5.927  0.1781  0.1618 -0.0617
 1154ERGO    R215953  13.242   2.935   6.134 -0.2780  0.1937 -0.1963
 1154ERGO    R315954  13.343   3.135   6.289  0.1253 -0.1251 -0.0295
 1154ERGO    R415955  13.178   2.975   6.471 -0.3409  0.1426 -0.2020
 1154ERGO    R515956  13.164   3.190   6.438  0.1784  0.2067 -0.0826
 1154ERGO    C115957  13.235   3.186   6.813  0.0011 -0.1864 -0.0488
 1154ERGO    C215958  13.153   3.140   7.117  0.2414 -0.0559  0.0033
 1155ERGO   ROH15959   2.177  18.178   6.854 -0.0074  0.2323  0.1004
 1155ERGO    R115960   2.064  18.080   7.095  0.1483  0.1229  0.1309
 1155ERGO    R215961   1.894  17.862   7.102 -0.1500  0.3477  0.0861
 1155ERGO    R315962   2.074  17.770   7.284 -0.0492 -0.1086 -0.2277
 1155ERGO    R415963   1.819  17.648   7.362 -0.1890  0.3425  0.0700
 1155ERGO    R515964   1.952  17.764   7.490  0.2352  0.0166 -0.0488
 1155ERGO    C115965   1.944  17.436   7.684 -0.1171 -0.0893 -0.2339
 1155ERGO    C215966   1.814  17.323   8.049  0.0512 -0.0094  0.0354
 1156ERGO   ROH15967  14.764  15.597   5.927 -0.2039 -0.1748  0.1812
 1156ERGO    R115968  14.813  15.649   6.201 -0.1470 -0.1200  0.1601
 1156ERGO    R215969  14.649  15.553   6.402 -0.0501 -0.1555  0.2145
 1156ERGO    R315970  14.882  15.452   6.499  0.0148 -0.0511  0.1715
 1156ERGO    R415971  14.686  15.404   6.712  0.1194  0.1085  0.3252
 1156ERGO    R515972  14.878  15.506   6.732  0.1292  0.1502  0.1358
 1156ERGO    C115973  14.927  15.223   6.983  0.2791  0.3603  0.3493
 1156ERGO    C215974  15.032  15.283   7.333 -0.1951  0.0909  0.2335
 1157ERGO   ROH15975   9.649   5.415   6.285  0.1331 -0.0304  0.0741
 1157ERGO    R115976   9.889   5.382   6.431  0.1271 -0.0458  0.0811
 1157ERGO    R215977   9.995   5.582   6.591  0.1840 -0.0196  0.0136
 1157ERGO    R315978   9.988   5.388   6.781  0.1336  0.0452  0.0778
 1157ERGO    R415979  10.195   5.575   6.872  0.2283 -0.0134 -0.0180
 1157ERGO    R515980  10.217   5.360   6.845  0.1320 -0.0315  0.0482
 1157ERGO    C115981  10.305   5.389   7.215  0.2068  0.0511  0.0238
 1157ERGO    C215982  10.562   5.421   7.479  0.1223 -0.0922 -0.0243
 1158ERGO   ROH15983   0.682   2.498   8.836 -0.0980  0.0004  0.0426
 1158ERGO    R115984   0.730   2.527   8.559 -0.0094  0.2074  0.0783
 1158ERGO    R215985   0.542   2.461   8.368  0.1935 -0.0281 -0.0390
 1158ERGO    R315986   0.585   2.715   8.283 -0.1972  0.0899  0.0930
 1158ERGO    R415987   0.448   2.583   8.059  0.3515 -0.1424 -0.1340
 1158ERGO    R515988   0.638   2.691   8.050  0.1629  0.2454  0.1477
 1158ERGO    C115989   0.434   2.893   7.799  0.0768 -0.0980 -0.0656
 1158ERGO    C215990   0.492   3.099   7.533  0.4307 -0.0105  0.1092
 1159ERGO   ROH15991  12.204  16.169   9.202  0.0995 -0.2666 -0.1437
 1159ERGO    R115992  12.204  16.254   8.932  0.0620 -0.0764 -0.0856
 1159ERGO    R215993  12.436  16.322   8.798  0.0417  0.0424 -0.0644
 1159ERGO    R315994  12.348  16.138   8.618  0.0413  0.1577 -0.1832
 1159ERGO    R415995  12.537  16.305   8.468  0.3455  0.0091  0.0275
 1159ERGO    R515996  12.331  16.260   8.412  0.3542  0.2124 -0.1806
 1159ERGO    C115997  12.513  16.122   8.107  0.5219  0.0980 -0.0305
 1159ERGO    C215998  12.588  16.177   7.854 -0.1173 -0.1732  0.1920
 1160ERGO   ROH15999  15.304  18.451   8.956 -0.0304 -0.2735 -0.1525
 1160ERGO    R116000  15.279  18.673   8.783 -0.4437 -0.3445 -0.1935
 1160ERGO    R216001  15.497  18.803   8.674 -0.6574  0.2373  0.0313
 1160ERGO    R316002  15.370  18.753   8.439 -0.2838 -0.1335 -0.1045
 1160ERGO    R416003  15.571  18.955   8.372 -0.5028  0.1319  0.0151
 1160ERGO    R516004  15.357  18.966   8.331 -0.4763 -0.2258 -0.2720
 1160ERGO    C116005  15.494  18.996   7.976 -0.0618 -0.2776 -0.1219
 1160ERGO    C216006  15.579  19.152   7.694  0.0004 -0.0223  0.1335
 1161ERGO   ROH16007   0.389  11.975   9.106 -0.1271  0.0258 -0.0085
 1161ERGO    R116008   0.454  12.115   8.868  0.1619 -0.1215 -0.0199
 1161ERGO    R216009   0.589  11.996   8.658 -0.1408 -0.4436 -0.0394
 1161ERGO    R316010   0.376  12.084   8.514  0.0304  0.0539 -0.0075
 1161ERGO    R416011   0.566  11.986   8.314 -0.3026 -0.6130 -0.0257
 1161ERGO    R516012   0.473  12.183   8.319  0.2368 -0.3370 -0.1146
 1161ERGO    C116013   0.352  12.063   7.978 -0.2360 -0.2447  0.0121
 1161ERGO    C216014   0.110  11.948   7.726 -0.1341 -0.5899 -0.2973
 1162ERGO   ROH16015   9.111   9.637   5.625  0.0366 -0.1255  0.1129
 1162ERGO    R116016   9.129   9.506   5.875  0.1611 -0.1849  0.0745
 1162ERGO    R216017   9.370   9.438   5.991  0.2302 -0.0119  0.0436
 1162ERGO    R316018   9.271   9.577   6.202  0.1162 -0.1540  0.0869
 1162ERGO    R416019   9.494   9.424   6.314  0.1824 -0.0676  0.0592
 1162ERGO    R516020   9.289   9.427   6.387  0.1710 -0.2155  0.0289
 1162ERGO    C116021   9.472   9.547   6.699  0.0476 -0.2335  0.1091
 1162ERGO    C216022   9.479   9.627   7.078 -0.4996  0.1370  0.2042
 1163ERGO   ROH16023   3.285  15.341   5.484 -0.1216  0.2502 -0.0251
 1163ERGO    R116024   3.272  15.250   5.751 -0.0883  0.0929 -0.0762
 1163ERGO    R216025   3.327  15.413   5.967 -0.1148 -0.0190  0.0150
 1163ERGO    R316026   3.081  15.333   6.050 -0.0926 -0.1219 -0.0168
 1163ERGO    R416027   3.243  15.336   6.294 -0.1605  0.0926  0.0302
 1163ERGO    R516028   3.125  15.170   6.219 -0.0431 -0.0147  0.0768
 1163ERGO    C116029   2.963  15.216   6.561 -0.1662  0.0611  0.0092
 1163ERGO    C216030   3.022  15.168   6.935 -0.0332  0.1455  0.1419
 1164ERGO   ROH16031   7.802  10.507   5.240  0.4919 -0.0501 -0.1552
 1164ERGO    R116032   7.764  10.457   5.516  0.1954  0.0604 -0.1704
 1164ERGO    R216033   7.909  10.266   5.654 -0.0430  0.0140  0.0385
 1164ERGO    R316034   7.968  10.475   5.817 -0.0794  0.0396  0.0168
 1164ERGO    R416035   8.012  10.237   5.983 -0.0992  0.0867  0.0619
 1164ERGO    R516036   7.886  10.408   6.032 -0.1081  0.0820  0.0112
 1164ERGO    C116037   8.127  10.417   6.327 -0.1661  0.1532  0.0552
 1164ERGO    C216038   8.267  10.206   6.516 -0.0962 -0.2719  0.2975
 1165ERGO   ROH16039  15.596   7.274   8.908 -0.0002  0.0843  0.1678
 1165ERGO    R116040  15.762   7.408   8.721 -0.0151  0.1031  0.1676
 1165ERGO    R216041  15.694   7.436   8.455  0.0516 -0.0391  0.1317
 1165ERGO    R316042  15.736   7.700   8.506 -0.1115  0.0048  0.0456
 1165ERGO    R416043  15.773   7.674   8.217 -0.0694 -0.0669  0.0630
 1165ERGO    R516044  15.914   7.762   8.358 -0.1368  0.0649  0.0441
 1165ERGO    C116045  15.859   8.059   8.126 -0.2929 -0.0418 -0.0579
 1165ERGO    C216046  15.716   8.160   7.870 -0.0798  0.3096 -0.1101
 1166ERGO   ROH16047  11.002   2.312   6.526  0.2022 -0.0124 -0.1847
 1166ERGO    R116048  11.087   2.080   6.664  0.2149 -0.0081 -0.1848
 1166ERGO    R216049  11.353   2.028   6.716  0.2062  0.0909 -0.0348
 1166ERGO    R316050  11.265   2.007   6.973  0.0584 -0.0023 -0.0922
 1166ERGO    R416051  11.447   1.780   6.938  0.1543  0.0657 -0.0411
 1166ERGO    R516052  11.241   1.771   7.008  0.1136 -0.0195 -0.1668
 1166ERGO    C116053  11.419   1.616   7.308 -0.0149 -0.0365 -0.0988
 1166ERGO    C216054  11.468   1.461   7.654 -0.0036 -0.1800  0.1104
 1167ERGO   ROH16055  11.948   4.180   9.540  0.0624  0.0303  0.0501
 1167ERGO    R116056  11.850   4.292   9.299  0.1697  0.0546  0.0178
 1167ERGO    R216057  12.017   4.387   9.101  0.2591 -0.0664  0.0379
 1167ERGO    R316058  11.874   4.217   8.944  0.1911 -0.0042  0.0306
 1167ERGO    R416059  11.893   4.464   8.787  0.2311  0.0248  0.0704
 1167ERGO    R516060  11.711   4.356   8.838  0.2090  0.0602  0.0813
 1167ERGO    C116061  11.687   4.348   8.458  0.1511  0.1363  0.0825
 1167ERGO    C216062  11.413   4.208   8.131 -0.2009 -0.2063  0.1536
 1168ERGO   ROH16063   9.980   0.202   6.557  0.0720  0.2030  0.0798
 1168ERGO    R116064   9.922   0.219   6.833 -0.2234  0.2329  0.0194
 1168ERGO    R216065   9.664   0.219   6.931 -0.3285 -0.2654 -0.2243
 1168ERGO    R316066   9.755   0.012   7.082 -0.0167  0.0033 -0.0295
 1168ERGO    R416067   9.647   0.203   7.276 -0.3928 -0.0146 -0.2134
 1168ERGO    R516068   9.847   0.116   7.277 -0.2414  0.3193 -0.0849
 1168ERGO    C116069   9.723  -0.001   7.618 -0.1375  0.3838 -0.0242
 1168ERGO    C216070   9.729   0.074   7.908 -0.2356 -0.3607 -0.1202
 1169ERGO   ROH16071   1.739   9.918   8.592 -0.0025 -0.0938  0.0189
 1169ERGO    R116072   1.934   9.763   8.457 -0.0179 -0.0448 -0.0613
 1169ERGO    R216073   1.885   9.640   8.215 -0.1494 -0.2131  0.0469
 1169ERGO    R316074   2.107   9.775   8.138 -0.3008 -0.1108 -0.2197
 1169ERGO    R416075   2.082   9.557   7.944 -0.1951 -0.3753  0.0623
 1169ERGO    R516076   2.258   9.605   8.063 -0.1835 -0.0709 -0.0724
 1169ERGO    C116077   2.406   9.636   7.713 -0.3639 -0.3736 -0.1789
 1169ERGO    C216078   2.824   9.472   7.529 -0.0235 -0.0574 -0.0136
 1170ERGO   ROH16079  16.195  10.900   6.010 -0.0411  0.0522 -0.1078
 1170ERGO    R116080  16.037  10.997   6.224 -0.0102  0.0746 -0.0958
 1170ERGO    R216081  15.908  10.830   6.402  0.0039  0.0946 -0.0707
 1170ERGO    R316082  16.043  10.976   6.587  0.0308  0.1004 -0.0940
 1170ERGO    R416083  15.870  10.798   6.744  0.0939  0.0573 -0.0635
 1170ERGO    R516084  15.881  11.015   6.760  0.0658  0.0610 -0.0491
 1170ERGO    C116085  15.973  10.916   7.117  0.1717  0.0410 -0.0812
 1170ERGO    C216086  15.869  11.048   7.399  0.1255 -0.0490  0.0124
 1171ERGO   ROH16087   9.489   6.441   6.077 -0.1539 -0.2453  0.1165
 1171ERGO    R116088   9.412   6.590   6.305 -0.0948 -0.1232  0.0573
 1171ERGO    R216089   9.360   6.472   6.549 -0.2408 -0.0158  0.0779
 1171ERGO    R316090   9.545   6.650   6.639 -0.1272 -0.1296  0.0718
 1171ERGO    R416091   9.401   6.564   6.880 -0.2424  0.0311  0.0651
 1171ERGO    R516092   9.433   6.770   6.814 -0.0775 -0.0052  0.0213
 1171ERGO    C116093   9.599   6.785   7.157 -0.1367 -0.0484  0.0520
 1171ERGO    C216094   9.633   7.136   7.395  0.1292 -0.0505 -0.0296
 1172ERGO   ROH16095  11.718   6.596   5.770 -0.2092  0.0612  0.0288
 1172ERGO    R116096  11.928   6.613   5.960 -0.1974  0.1228  0.0111
 1172ERGO    R216097  11.953   6.826   6.136 -0.2797  0.1010  0.0515
 1172ERGO    R316098  11.955   6.629   6.323 -0.1681  0.0643  0.0115
 1172ERGO    R416099  12.096   6.853   6.449 -0.0017  0.0063 -0.0648
 1172ERGO    R516100  12.170   6.649   6.428 -0.0708 -0.0092 -0.1687
 1172ERGO    C116101  12.182   6.685   6.807  0.2650 -0.0833 -0.1701
 1172ERGO    C216102  11.988   6.993   7.016 -0.0263 -0.2344 -0.2559
 1173ERGO   ROH16103  14.141   0.383   9.249  0.2082  0.2463 -0.1172
 1173ERGO    R116104  14.203   0.436   8.978  0.1633  0.1132 -0.1529
 1173ERGO    R216105  14.239   0.236   8.792  0.0136  0.0283 -0.0829
 1173ERGO    R316106  14.049   0.373   8.654  0.0486  0.0698 -0.0926
 1173ERGO    R416107  14.163   0.186   8.458 -0.2025 -0.2014 -0.0039
 1173ERGO    R516108  14.144   0.403   8.436 -0.0368 -0.1945 -0.1750
 1173ERGO    C116109  13.941   0.286   8.135 -0.2954 -0.2962  0.0331
 1173ERGO    C216110  13.988   0.120   7.747  0.1799 -0.1558  0.1932
 1174ERGO   ROH16111   3.005   5.177   8.650 -0.1824 -0.1547  0.1013
 1174ERGO    R116112   2.845   5.165   8.418 -0.0389 -0.0446 -0.0042
 1174ERGO    R216113   2.952   5.153   8.163  0.1207 -0.1459  0.0709
 1174ERGO    R316114   2.796   4.932   8.142 -0.0421 -0.0256 -0.0211
 1174ERGO    R416115   2.843   5.017   7.865  0.4341 -0.2199 -0.0149
 1174ERGO    R516116   2.649   4.980   7.959  0.2589  0.0009 -0.2668
 1174ERGO    C116117   2.632   4.729   7.672  0.4637 -0.1500 -0.1513
 1174ERGO    C216118   2.542   4.722   7.329 -0.2196  0.2033 -0.0113
 1175ERGO   ROH16119  13.130  15.717   9.126 -0.0436  0.0265  0.1314
 1175ERGO    R116120  13.250  15.906   8.953 -0.1288 -0.0820 -0.0483
 1175ERGO    R216121  13.524  15.941   8.938 -0.1519  0.1264  0.0305
 1175ERGO    R316122  13.482  15.899   8.672 -0.0018 -0.2316  0.0581
 1175ERGO    R416123  13.751  16.016   8.688 -0.2178  0.3078  0.0224
 1175ERGO    R516124  13.585  16.087   8.565 -0.3306 -0.1338 -0.1038
 1175ERGO    C116125  13.844  16.019   8.293 -0.1152  0.0773  0.0436
 1175ERGO    C216126  14.164  15.935   8.058  0.0806 -0.0993 -0.1386
 1176ERGO   ROH16127  11.799   3.131   9.703 -0.0921 -0.2824 -0.1805
 1176ERGO    R116128  11.688   3.246   9.469 -0.0112 -0.2282 -0.1920
 1176ERGO    R216129  11.844   3.332   9.257  0.0647 -0.1380 -0.0988
 1176ERGO    R316130  11.683   3.168   9.113  0.1513 -0.1195 -0.2195
 1176ERGO    R416131  11.769   3.374   8.923  0.1067  0.0193 -0.0903
 1176ERGO    R516132  11.564   3.315   8.967  0.1208 -0.0829 -0.1584
 1176ERGO    C116133  11.575   3.243   8.592  0.2125  0.1283 -0.1988
 1176ERGO    C216134  11.556   3.309   8.304  0.1007  0.1917 -0.0326
 1177ERGO   ROH16135  10.021  18.038   6.021 -0.1811 -0.1369  0.1507
 1177ERGO    R116136  10.242  18.032   6.198  0.0143 -0.0242 -0.0857
 1177ERGO    R216137  10.294  17.819   6.364  0.0822  0.1611  0.1336
 1177ERGO    R316138  10.538  17.826   6.244 -0.0422 -0.1213 -0.1506
 1177ERGO    R416139  10.578  17.662   6.484  0.1582  0.2707  0.0987
 1177ERGO    R516140  10.694  17.837   6.426  0.1601  0.1416 -0.3302
 1177ERGO    C116141  10.972  17.577   6.441  0.0858  0.0689 -0.1883
 1177ERGO    C216142  11.265  17.285   6.533 -0.2059  0.4392 -0.0184
 1178ERGO   ROH16143  16.940   6.173   5.734 -0.1789 -0.2388 -0.0128
 1178ERGO    R116144  17.077   6.136   5.979  0.0515 -0.3354 -0.1538
 1178ERGO    R216145  16.976   6.225   6.221  0.4415 -0.1158 -0.0716
 1178ERGO    R316146  17.014   5.966   6.295  0.1810 -0.1430 -0.0183
 1178ERGO    R416147  16.973   6.109   6.547  0.0554 -0.0780 -0.0551
 1178ERGO    R516148  17.141   5.979   6.497  0.0135 -0.2139  0.1028
 1178ERGO    C116149  17.008   5.798   6.805 -0.4139 -0.0816  0.0045
 1178ERGO    C216150  16.886   5.825   7.143 -0.0205  0.0436  0.0631
 1179ERGO   ROH16151   2.877  10.572   9.420 -0.2988 -0.1204  0.0774
 1179ERGO    R116152   2.833  10.622   9.145 -0.1183 -0.0323  0.0657
 1179ERGO    R216153   2.969  10.819   9.006  0.0471 -0.0641  0.1978
 1179ERGO    R316154   3.032  10.613   8.840  0.0492 -0.0448  0.1710
 1179ERGO    R416155   3.006  10.845   8.663  0.2704  0.0400  0.2259
 1179ERGO    R516156   2.904  10.654   8.643  0.1839  0.0889  0.1013
 1179ERGO    C116157   3.086  10.666   8.309  0.4024  0.1185  0.2170
 1179ERGO    C216158   3.271  10.653   7.890  0.0932  0.1480 -0.0277
 1180ERGO   ROH16159  13.296   0.332   9.602 -0.0599  0.0093 -0.1003
 1180ERGO    R116160  13.123   0.276   9.385  0.0188  0.0479 -0.1721
 1180ERGO    R216161  13.062   0.464   9.192  0.0709  0.0870 -0.1439
 1180ERGO    R316162  13.148   0.270   9.022  0.1398  0.1362 -0.1673
 1180ERGO    R416163  12.973   0.439   8.859  0.2845  0.2538 -0.2168
 1180ERGO    R516164  12.958   0.223   8.884  0.2148  0.2412 -0.3154
 1180ERGO    C116165  13.002   0.242   8.506  0.4735  0.3971 -0.2811
 1180ERGO    C216166  12.902   0.178   8.239 -0.0350 -0.2273 -0.0165
 1181ERGO   ROH16167   8.044  17.917   9.283 -0.1372  0.0246 -0.0381
 1181ERGO    R116168   7.927  17.970   9.031  0.0624  0.0814 -0.1226
 1181ERGO    R216169   8.072  17.968   8.795  0.1861 -0.2209 -0.0530
 1181ERGO    R316170   7.882  17.790   8.718 -0.0242  0.0047 -0.0657
 1181ERGO    R416171   7.990  17.896   8.467  0.2742 -0.2812 -0.0613
 1181ERGO    R516172   7.780  17.890   8.526  0.2288  0.0474 -0.1791
 1181ERGO    C116173   7.764  17.687   8.204  0.1281 -0.1045 -0.0782
 1181ERGO    C216174   7.628  17.543   7.978  0.1329  0.2010 -0.2329
 1182ERGO   ROH16175  12.105   8.811   8.912  0.0576 -0.0537  0.0626
 1182ERGO    R116176  12.101   8.704   8.650  0.1593  0.0223  0.0285
 1182ERGO    R216177  11.885   8.561   8.551  0.3031 -0.1774 -0.0057
 1182ERGO    R316178  11.897   8.745   8.351  0.0992 -0.0993  0.0523
 1182ERGO    R416179  11.766   8.511   8.231  0.3253 -0.1975 -0.0104
 1182ERGO    R516180  11.942   8.615   8.155  0.2149  0.0077  0.0067
 1182ERGO    C116181  11.707   8.654   7.856  0.1469 -0.1358  0.0413
 1182ERGO    C216182  11.812   8.665   7.522 -0.1600 -0.1521  0.3358
 1183ERGO   ROH16183  16.370   4.438   5.371 -0.2076  0.0787  0.1468
 1183ERGO    R116184  16.400   4.264   5.592  0.0443  0.0921  0.1277
 1183ERGO    R216185  16.580   4.311   5.796 -0.0599  0.3654  0.1676
 1183ERGO    R316186  16.360   4.285   5.953 -0.0543 -0.0178  0.1226
 1183ERGO    R416187  16.572   4.146   6.100  0.1134  0.2227  0.0960
 1183ERGO    R516188  16.378   4.065   6.045  0.2393 -0.0321  0.0314
 1183ERGO    C116189  16.361   4.026   6.424  0.2193 -0.2201  0.0121
 1183ERGO    C216190  16.542   3.885   6.689  0.1773 -0.1219  0.0679
 1184ERGO   ROH16191  10.698   3.291   6.021  0.3758  0.1888  0.0160
 1184ERGO    R116192  10.799   3.339   6.281  0.1877  0.2313  0.0829
 1184ERGO    R216193  10.789   3.588   6.401 -0.0023  0.2269  0.0825
 1184ERGO    R316194  10.664   3.451   6.600 -0.0695  0.1663 -0.0007
 1184ERGO    R416195  10.763   3.696   6.728 -0.1421  0.1412  0.1004
 1184ERGO    R516196  10.800   3.491   6.793 -0.1504  0.1292  0.0634
 1184ERGO    C116197  10.631   3.630   7.106 -0.2865  0.0345  0.0327
 1184ERGO    C216198  10.587   3.908   7.294  0.3002 -0.0438  0.1278
 1185ERGO   ROH16199   5.734  14.676   6.226  0.1267  0.1041  0.0165
 1185ERGO    R116200   5.597  14.859   6.395  0.0580 -0.0063  0.0820
 1185ERGO    R216201   5.616  14.849   6.670  0.2473  0.0451  0.0733
 1185ERGO    R316202   5.689  15.109   6.642 -0.0222  0.1145 -0.0098
 1185ERGO    R416203   5.513  15.107   6.876  0.2688 -0.0568  0.2123
 1185ERGO    R516204   5.492  15.233   6.700 -0.0656 -0.0655  0.2402
 1185ERGO    C116205   5.522  15.501   6.970  0.0283 -0.0511  0.2153
 1185ERGO    C216206   5.357  15.608   7.256  0.1415 -0.1008 -0.1382
 1186ERGO   ROH16207  15.843  15.642   5.782 -0.2050 -0.2489  0.0992
 1186ERGO    R116208  15.747  15.617   6.047 -0.2901 -0.0204  0.0928
 1186ERGO    R216209  15.852  15.436   6.227 -0.4363  0.0354  0.2447
 1186ERGO    R316210  15.883  15.657   6.382 -0.3537  0.1262  0.0999
 1186ERGO    R416211  15.863  15.436   6.573 -0.1497  0.2394  0.2393
 1186ERGO    R516212  15.742  15.617   6.572 -0.1845  0.2079  0.2391
 1186ERGO    C116213  15.897  15.643   6.919  0.0947  0.4433  0.1004
 1186ERGO    C216214  15.915  15.498   7.144 -0.0446  0.1511 -0.0381
 1187ERGO   ROH16215   8.936  16.621   9.122 -0.4805  0.5077  0.1198
 1187ERGO    R116216   8.915  16.590   8.842 -0.2493  0.2445  0.1263
 1187ERGO    R216217   8.758  16.755   8.685 -0.3154 -0.0462 -0.1309
 1187ERGO    R316218   8.990  16.789   8.547 -0.2473  0.0747  0.0117
 1187ERGO    R416219   8.783  16.766   8.341 -0.1140  0.0568 -0.1141
 1187ERGO    R516220   8.966  16.648   8.355 -0.0823  0.1206 -0.0412
 1187ERGO    C116221   9.015  16.804   8.010  0.0671  0.2303  0.0295
 1187ERGO    C216222   8.807  16.893   7.791  0.2123  0.4023  0.3027
 1188ERGO   ROH16223   4.763   8.307   9.085 -0.0656  0.0569 -0.0302
 1188ERGO    R116224   4.729   8.159   8.846  0.0839 -0.1516  0.0774
 1188ERGO    R216225   4.644   8.275   8.610 -0.1064 -0.4251  0.0226
 1188ERGO    R316226   4.871   8.162   8.511  0.0190 -0.2035  0.0443
 1188ERGO    R416227   4.721   8.248   8.274 -0.0539 -0.2986  0.0223
 1188ERGO    R516228   4.800   8.048   8.313  0.1331 -0.2479  0.0129
 1188ERGO    C116229   4.979   8.127   7.986  0.0945 -0.0168  0.0425
 1188ERGO    C216230   5.090   8.158   7.645 -0.1504  0.0394 -0.0268
 1189ERGO   ROH16231  11.782  19.235   6.234  0.0470 -0.0511  0.0445
 1189ERGO    R116232  11.611  19.073   6.391 -0.1071  0.0636 -0.0008
 1189ERGO    R216233  11.686  18.972   6.637 -0.1239 -0.2388 -0.1097
 1189ERGO    R316234  11.457  19.093   6.720  0.0836  0.0286  0.0902
 1189ERGO    R416235  11.487  18.861   6.897 -0.2766 -0.2719 -0.2402
 1189ERGO    R516236  11.312  18.911   6.778 -0.2130  0.1878 -0.1467
 1189ERGO    C116237  11.156  18.909   7.126 -0.1706 -0.0399 -0.1285
 1189ERGO    C216238  10.941  18.949   7.473  0.0393  0.1533 -0.1768
 1190ERGO   ROH16239   1.770  19.215   5.515 -0.0171 -0.0198 -0.0068
 1190ERGO    R116240   1.874  19.265   5.773  0.0931  0.1637 -0.0858
 1190ERGO    R216241   1.894  19.068   5.966 -0.1255  0.3712  0.1479
 1190ERGO    R316242   2.155  19.145   5.972 -0.0191  0.0486  0.0079
 1190ERGO    R416243   2.115  18.997   6.222 -0.0819  0.1031  0.0412
 1190ERGO    R516244   2.195  19.199   6.202  0.1630  0.0111 -0.0091
 1190ERGO    C116245   2.488  19.029   6.378  0.0434 -0.3559 -0.1522
 1190ERGO    C216246   2.736  18.768   6.451 -0.0984 -0.1546  0.1132
 1191ERGO   ROH16247  16.719  14.990   5.803  0.0728 -0.0695  0.0774
 1191ERGO    R116248  16.658  15.187   5.997  0.0844 -0.0386  0.0498
 1191ERGO    R216249  16.742  15.168   6.260  0.1838  0.0522  0.0252
 1191ERGO    R316250  16.845  15.415   6.211  0.0945  0.0704 -0.0737
 1191ERGO    R416251  16.797  15.411   6.500  0.2777  0.0961 -0.0401
 1191ERGO    R516252  16.725  15.560   6.359  0.1522  0.0607 -0.0159
 1191ERGO    C116253  16.926  15.783   6.594  0.2485  0.1388 -0.1710
 1191ERGO    C216254  16.967  15.894   7.007 -0.2110 -0.1577 -0.0758
 1192ERGO   ROH16255   2.737   1.794   5.465  0.0094  0.0477  0.1191
 1192ERGO    R116256   2.525   1.862   5.640  0.0131  0.1611  0.0804
 1192ERGO    R216257   2.438   1.693   5.841 -0.1672  0.1712  0.0142
 1192ERGO    R316258   2.483   1.911   5.998 -0.0436  0.0981  0.0824
 1192ERGO    R416259   2.299   1.745   6.153  0.0136  0.0673  0.1137
 1192ERGO    R516260   2.271   1.954   6.101  0.0214  0.0933  0.2171
 1192ERGO    C116261   2.259   1.979   6.482  0.2348 -0.0618  0.2356
 1192ERGO    C216262   2.304   2.216   6.806  0.0255  0.1012  0.1122
 1193ERGO   ROH16263   2.715   6.357   5.530 -0.0334 -0.1377  0.0350
 1193ERGO    R116264   2.722   6.227   5.782 -0.1284 -0.0336  0.0916
 1193ERGO    R216265   2.813   6.352   6.011 -0.0579  0.0065  0.0381
 1193ERGO    R316266   2.571   6.277   6.109 -0.1105  0.2050  0.0667
 1193ERGO    R416267   2.755   6.248   6.335 -0.1255  0.1832  0.0842
 1193ERGO    R516268   2.621   6.095   6.257 -0.2259  0.2331  0.1458
 1193ERGO    C116269   2.494   6.117   6.616 -0.2143  0.4723  0.1379
 1193ERGO    C216270   2.474   5.834   6.868  0.0378 -0.4481 -0.3022
 1194ERGO   ROH16271  18.141   4.325   5.402  0.2118  0.0739  0.1239
 1194ERGO    R116272  18.130   4.374   5.680 -0.1314  0.0699  0.1153
 1194ERGO    R216273  17.895   4.359   5.825 -0.2518 -0.3049 -0.1049
 1194ERGO    R316274  18.038   4.186   5.978 -0.1114 -0.0696  0.0334
 1194ERGO    R416275  17.801   4.246   6.138 -0.2801 -0.3208 -0.1192
 1194ERGO    R516276  18.008   4.265   6.202 -0.3373 -0.0317 -0.0091
 1194ERGO    C116277  17.881   4.018   6.464 -0.1647 -0.1091  0.0024
 1194ERGO    C216278  17.640   3.995   6.724  0.2394  0.1488 -0.3906
 1195ERGO   ROH16279   1.199   3.069   5.488  0.1681  0.0278 -0.0003
 1195ERGO    R116280   1.368   3.071   5.716  0.1171  0.0111  0.0384
 1195ERGO    R216281   1.462   3.304   5.830  0.1556  0.0018  0.0305
 1195ERGO    R316282   1.352   3.200   6.055  0.0738  0.0598  0.0173
 1195ERGO    R416283   1.520   3.421   6.150  0.2633 -0.0989  0.0482
 1195ERGO    R516284   1.527   3.215   6.219  0.0898 -0.1147  0.0152
 1195ERGO    C116285   1.451   3.392   6.548  0.2491 -0.1030  0.0461
 1195ERGO    C216286   1.331   3.538   6.783  0.2646 -0.3646  0.3747
 1196ERGO   ROH16287   3.268  15.576   9.213 -0.0487 -0.1417 -0.0103
 1196ERGO    R116288   3.177  15.572   8.945 -0.0937 -0.1065  0.0045
 1196ERGO    R216289   3.124  15.803   8.802  0.0592 -0.0842 -0.0163
 1196ERGO    R316290   3.296  15.692   8.623 -0.0520 -0.2380 -0.0296
 1196ERGO    R416291   3.129  15.871   8.463  0.2237  0.0701  0.0153
 1196ERGO    R516292   3.165  15.659   8.426 -0.0575  0.0338 -0.0747
 1196ERGO    C116293   3.293  15.806   8.098  0.2151  0.0154  0.0212
 1196ERGO    C216294   3.395  15.728   7.706  0.1889  0.0429  0.1861
 1197ERGO   ROH16295   5.439  11.606   9.513  0.2073 -0.1472 -0.1070
 1197ERGO    R116296   5.282  11.698   9.296  0.0073 -0.1462  0.0353
 1197ERGO    R216297   5.379  11.870   9.103 -0.2641  0.1140  0.1168
 1197ERGO    R316298   5.293  11.676   8.933 -0.1316  0.1470  0.0114
 1197ERGO    R416299   5.276  11.923   8.778 -0.0773  0.1789  0.0674
 1197ERGO    R516300   5.116  11.779   8.810 -0.0718  0.1474 -0.0689
 1197ERGO    C116301   5.135  11.772   8.429  0.1560  0.2475 -0.0604
 1197ERGO    C216302   5.289  11.706   8.225 -0.2692 -0.0470 -0.2105
 1198ERGO   ROH16303  10.007  15.252   8.973  0.0834 -0.0999 -0.0392
 1198ERGO    R116304  10.017  15.118   8.723 -0.1845  0.0270 -0.1204
 1198ERGO    R216305   9.945  15.241   8.486  0.1989  0.3714 -0.0664
 1198ERGO    R316306  10.192  15.160   8.407  0.0312 -0.2217 -0.0377
 1198ERGO    R416307  10.063  15.255   8.161  0.3648  0.3692 -0.0080
 1198ERGO    R516308  10.156  15.060   8.192 -0.1613  0.0715 -0.1493
 1198ERGO    C116309  10.363  15.188   7.898  0.3038 -0.1890  0.0529
 1198ERGO    C216310  10.559  15.174   7.670  0.0512  0.0972 -0.1652
 1199ERGO   ROH16311   5.995   1.976   8.837  0.0066  0.0512 -0.0147
 1199ERGO    R116312   6.117   2.099   8.612  0.0668  0.0613  0.0230
 1199ERGO    R216313   6.363   2.020   8.515  0.0115 -0.0540 -0.0234
 1199ERGO    R316314   6.226   1.995   8.281 -0.0199  0.1186 -0.0246
 1199ERGO    R416315   6.506   2.038   8.201  0.0408 -0.2094 -0.0192
 1199ERGO    R516316   6.332   2.152   8.134  0.1725  0.0036 -0.0158
 1199ERGO    C116317   6.460   2.025   7.798  0.0285 -0.1378 -0.0181
 1199ERGO    C216318   6.679   2.061   7.630 -0.0531 -0.3178  0.0954
 1200ERGO   ROH16319   9.858  15.982   5.555 -0.0339  0.4062 -0.1592
 1200ERGO    R116320   9.841  15.933   5.833 -0.5280  0.3085 -0.1953
 1200ERGO    R216321  10.063  15.931   5.997 -0.6834 -0.5702  0.0740
 1200ERGO    R316322   9.920  16.114   6.139 -0.2163 -0.1109 -0.0216
 1200ERGO    R416323  10.085  15.979   6.339 -0.5592 -0.4083  0.0430
 1200ERGO    R516324   9.869  16.004   6.345 -0.4965  0.1490  0.0448
 1200ERGO    C116325   9.964  16.179   6.671 -0.0483  0.1170 -0.0648
 1200ERGO    C216326  10.164  16.336   7.014  0.0299  0.0728 -0.1117
 1201ERGO   ROH16327   4.613   3.084   8.438  0.0042  0.0372 -0.0263
 1201ERGO    R116328   4.852   3.225   8.379 -0.0012  0.1737  0.2574
 1201ERGO    R216329   4.907   3.325   8.127  0.4262 -0.1797  0.1963
 1201ERGO    R316330   4.940   3.558   8.263 -0.0965  0.0846 -0.0889
 1201ERGO    R416331   5.079   3.600   8.007  0.4676 -0.2274  0.1466
 1201ERGO    R516332   5.163   3.628   8.207 -0.0134  0.1758  0.3171
 1201ERGO    C116333   5.211   3.979   8.065  0.0010 -0.0070 -0.1499
 1201ERGO    C216334   5.220   4.317   8.044 -0.1720  0.1975  0.2163
 1202ERGO   ROH16335  15.149  16.755   8.949 -0.0684 -0.2255 -0.0790
 1202ERGO    R116336  15.142  16.578   8.729 -0.1726 -0.1294 -0.1541
 1202ERGO    R216337  14.969  16.612   8.516 -0.1510  0.0638 -0.1418
 1202ERGO    R316338  15.198  16.600   8.370 -0.1563 -0.0118 -0.1448
 1202ERGO    R416339  14.983  16.563   8.174 -0.1728  0.0572 -0.1419
 1202ERGO    R516340  15.155  16.432   8.205 -0.2143  0.0007 -0.1433
 1202ERGO    C116341  15.206  16.523   7.838 -0.1904 -0.0176 -0.1447
 1202ERGO    C216342  15.015  16.485   7.681  0.0028  0.0699 -0.0489
 1203ERGO   ROH16343   5.813   5.435   8.741 -0.0317 -0.0478 -0.0186
 1203ERGO    R116344   5.747   5.636   8.552 -0.0284  0.0510  0.0841
 1203ERGO    R216345   5.934   5.812   8.451 -0.0078  0.0451  0.1109
 1203ERGO    R316346   5.843   5.720   8.211 -0.0952  0.1708  0.0946
 1203ERGO    R416347   6.056   5.910   8.143  0.0970 -0.0297  0.1282
 1203ERGO    R516348   5.851   5.912   8.067  0.0985  0.1859  0.1235
 1203ERGO    C116349   6.042   5.881   7.739  0.0760  0.0448  0.1230
 1203ERGO    C216350   6.191   5.859   7.387 -0.0537  0.0271 -0.3761
 1204ERGO   ROH16351   0.929   0.072   8.917  0.0937  0.0425  0.0169
 1204ERGO    R116352   0.854   0.130   8.650  0.1263  0.0550  0.0100
 1204ERGO    R216353   1.002   0.296   8.487  0.2005 -0.0144  0.0026
 1204ERGO    R316354   0.998   0.082   8.319  0.1203 -0.0255  0.0191
 1204ERGO    R416355   1.046   0.313   8.144 -0.1125 -0.0218 -0.0402
 1204ERGO    R516356   0.889   0.164   8.122 -0.0837 -0.0745  0.1106
 1204ERGO    C116357   1.067   0.122   7.787 -0.3700 -0.0365 -0.0496
 1204ERGO    C216358   1.294   0.200   7.567 -0.1855  0.2574  0.0086
 1205ERGO   ROH16359  17.882   8.240   8.859  0.4656  0.3407 -0.1391
 1205ERGO    R116360  17.773   8.080   8.652  0.2731  0.1636  0.0931
 1205ERGO    R216361  17.683   8.187   8.414 -0.1144 -0.0169  0.1497
 1205ERGO    R316362  17.854   8.005   8.305 -0.1533  0.0235  0.0185
 1205ERGO    R416363  17.697   8.105   8.078 -0.0280  0.3279  0.0643
 1205ERGO    R516364  17.724   7.896   8.136 -0.1379  0.2545 -0.1451
 1205ERGO    C116365  17.865   7.886   7.781 -0.0144  0.5666 -0.1086
 1205ERGO    C216366  17.791   7.951   7.428  0.2031  0.1050  0.2460
 1206ERGO   ROH16367   5.056  12.897   9.288  0.1991 -0.0678 -0.0200
 1206ERGO    R116368   5.087  12.841   9.012  0.0876 -0.0669 -0.0331
 1206ERGO    R216369   4.887  12.726   8.860  0.0158 -0.0396  0.0415
 1206ERGO    R316370   4.927  12.943   8.702 -0.0176 -0.0419  0.0289
 1206ERGO    R416371   4.807  12.745   8.524  0.1400 -0.1173  0.0064
 1206ERGO    R516372   4.993  12.853   8.491  0.1060 -0.0402  0.0660
 1206ERGO    C116373   4.799  12.960   8.181  0.1810 -0.1648 -0.0257
 1206ERGO    C216374   4.836  12.943   7.888 -0.1722  0.0058  0.4063
 1207ERGO   ROH16375   6.727   0.133   9.280 -0.1138 -0.4076 -0.2652
 1207ERGO    R116376   6.962   0.177   9.129 -0.0796 -0.2212 -0.1613
 1207ERGO    R216377   6.982   0.109   8.862  0.0979 -0.2187 -0.1517
 1207ERGO    R316378   7.054   0.370   8.834 -0.1052 -0.1588 -0.1283
 1207ERGO    R416379   7.189   0.230   8.614  0.2360 -0.0807  0.0286
 1207ERGO    R516380   7.282   0.360   8.762 -0.0241  0.0312  0.0968
 1207ERGO    C116381   7.378   0.545   8.442  0.1258  0.0559  0.1556
 1207ERGO    C216382   7.518   0.461   8.113 -0.0783 -0.2596  0.2923
 1208ERGO   ROH16383   4.486  10.943   5.956  0.2189 -0.1132 -0.0825
 1208ERGO    R116384   4.571  11.045   6.206  0.1618 -0.0056 -0.1060
 1208ERGO    R216385   4.475  10.947   6.447  0.0664  0.1338 -0.0857
 1208ERGO    R316386   4.739  10.914   6.501  0.0433  0.1054  0.0126
 1208ERGO    R416387   4.605  10.855   6.754 -0.0538  0.1762 -0.0216
 1208ERGO    R516388   4.766  10.998   6.723 -0.0216  0.1463  0.0054
 1208ERGO    C116389   4.929  10.771   6.983 -0.1455  0.1742  0.1080
 1208ERGO    C216390   5.061  10.572   7.075 -0.1427 -0.0974  0.1595
 1209ERGO   ROH16391   0.400   7.774   9.038  0.0731 -0.1520  0.0901
 1209ERGO    R116392   0.512   7.825   8.783  0.0947 -0.0784  0.1135
 1209ERGO    R216393   0.473   7.656   8.567  0.1035 -0.0119  0.0569
 1209ERGO    R316394   0.386   7.884   8.447  0.1214  0.0295  0.1228
 1209ERGO    R416395   0.452   7.704   8.226 -0.1367 -0.0007  0.0721
 1209ERGO    R516396   0.526   7.906   8.254 -0.0167 -0.0381  0.0152
 1209ERGO    C116397   0.358   7.945   7.914 -0.2598  0.0447  0.1427
 1209ERGO    C216398   0.275   8.083   7.558 -0.1652  0.0972  0.1670
 1210ERGO   ROH16399  19.211   0.703   5.661 -0.0909 -0.0398  0.0415
 1210ERGO    R116400  19.267   0.619   5.926 -0.0387 -0.0481  0.0282
 1210ERGO    R216401  19.427   0.764   6.098 -0.0544 -0.0228  0.0213
 1210ERGO    R316402  19.210   0.748   6.261 -0.0313 -0.0898  0.0456
 1210ERGO    R416403  19.437   0.789   6.443  0.0026 -0.2171  0.0343
 1210ERGO    R516404  19.290   0.628   6.453 -0.0142 -0.2070 -0.0329
 1210ERGO    C116405  19.240   0.787   6.797  0.0577 -0.3931  0.0647
 1210ERGO    C216406  19.391   0.775   6.983  0.1188  0.3623 -0.4035
 1211ERGO   ROH16407  19.190  16.570   9.034 -0.1252 -0.1718  0.0479
 1211ERGO    R116408  19.223  16.383   8.824  0.1150 -0.1127  0.0319
 1211ERGO    R216409  19.055  16.373   8.606  0.0664 -0.3736  0.0813
 1211ERGO    R316410  19.286  16.397   8.466 -0.0064  0.0024  0.0136
 1211ERGO    R416411  19.100  16.265   8.281  0.1669 -0.3861  0.0987
 1211ERGO    R516412  19.299  16.195   8.337  0.3166 -0.0193  0.0674
 1211ERGO    C116413  19.344  16.226   7.960  0.1569 -0.0401  0.0453
 1211ERGO    C216414  19.433  16.231   7.641  0.0335  0.0243  0.2560
 1212ERGO   ROH16415   8.611  12.414   5.804  0.1545 -0.1893 -0.1697
 1212ERGO    R116416   8.639  12.582   6.030 -0.0149 -0.1791 -0.1564
 1212ERGO    R216417   8.755  12.831   6.017  0.1008 -0.2334 -0.0603
 1212ERGO    R316418   8.522  12.911   6.132  0.0133 -0.1192 -0.3079
 1212ERGO    R416419   8.718  13.117   6.208  0.1640 -0.4340  0.2589
 1212ERGO    R516420   8.589  13.003   6.343 -0.1814 -0.4745 -0.0753
 1212ERGO    C116421   8.478  13.358   6.428  0.1187 -0.4434  0.2123
 1212ERGO    C216422   8.431  13.749   6.274 -0.1317 -0.3151  0.5026
 1213ERGO   ROH16423  18.152   6.542   5.664 -0.1913 -0.0544  0.1414
 1213ERGO    R116424  18.211   6.523   5.940  0.1057 -0.1119  0.0747
 1213ERGO    R216425  18.036   6.412   6.123  0.1688  0.1451  0.2783
 1213ERGO    R316426  18.250   6.256   6.185  0.0317 -0.1449  0.0565
 1213ERGO    R416427  18.088   6.262   6.430  0.5179  0.5426  0.4259
 1213ERGO    R516428  18.300   6.312   6.413  0.6056  0.1472 -0.1088
 1213ERGO    C116429  18.319   6.028   6.667  0.5922  0.5017  0.3036
 1213ERGO    C216430  18.419   6.022   7.083  0.2302 -0.0965  0.0177
 1214ERGO   ROH16431   3.792   0.143   8.942  0.0875 -0.0781  0.1980
 1214ERGO    R116432   3.688   0.156   8.680  0.1645  0.1033  0.1751
 1214ERGO    R216433   3.831   0.074   8.458  0.1155 -0.0357  0.1952
 1214ERGO    R316434   3.612  -0.080   8.413 -0.0708  0.2462  0.1124
 1214ERGO    R416435   3.736  -0.050   8.150  0.0939  0.0573  0.1640
 1214ERGO    R516436   3.529  -0.005   8.201  0.1234  0.3365  0.0651
 1214ERGO    C116437   3.475  -0.266   7.928 -0.0935  0.3763  0.0681
 1214ERGO    C216438   3.465  -0.520   7.499  0.2596 -0.0421  0.0709
 1215ERGO   ROH16439  17.523   0.125   8.434  0.0646 -0.1114 -0.0563
 1215ERGO    R116440  17.680   0.199   8.210 -0.1128 -0.1239 -0.1881
 1215ERGO    R216441  17.945   0.126   8.183  0.0013  0.2459 -0.1766
 1215ERGO    R316442  17.860   0.028   7.944  0.0698 -0.1610 -0.0411
 1215ERGO    R416443  18.132   0.127   7.893 -0.1496  0.3388 -0.2741
 1215ERGO    R516444  17.951   0.180   7.783 -0.3185 -0.1312 -0.2384
 1215ERGO    C116445  18.161   0.035   7.499 -0.1731  0.0109 -0.2035
 1215ERGO    C216446  18.237  -0.198   7.261 -0.4888  0.1945  0.2037
 1216ERGO   ROH16447  15.498  18.064   8.750  0.0946  0.1395  0.0374
 1216ERGO    R116448  15.378  18.230   8.554 -0.0956 -0.0302  0.0064
 1216ERGO    R216449  15.526  18.372   8.369 -0.2407  0.2650  0.1113
 1216ERGO    R316450  15.366  18.244   8.191  0.0725  0.0131  0.0014
 1216ERGO    R416451  15.430  18.500   8.063 -0.2828  0.1442  0.0733
 1216ERGO    R516452  15.231  18.418   8.096 -0.1706 -0.1979 -0.0518
 1216ERGO    C116453  15.224  18.455   7.717 -0.0131 -0.1625 -0.0520
 1216ERGO    C216454  15.317  18.736   7.529  0.1523  0.0444 -0.3526
 1217ERGO   ROH16455  16.933   8.977   8.930  0.0313 -0.1656 -0.0109
 1217ERGO    R116456  17.003   8.850   8.686 -0.1945 -0.3110 -0.0025
 1217ERGO    R216457  16.824   8.695   8.543 -0.5420  0.1453 -0.0860
 1217ERGO    R316458  16.891   8.863   8.340 -0.0466  0.0188 -0.0417
 1217ERGO    R416459  16.840   8.607   8.209 -0.5219  0.1244 -0.0801
 1217ERGO    R516460  17.019   8.728   8.190 -0.2376 -0.2578  0.0350
 1217ERGO    C116461  16.911   8.714   7.824 -0.0452 -0.0066 -0.0351
 1217ERGO    C216462  17.043   8.743   7.494 -0.2963 -0.0525  0.0803
 1218ERGO   ROH16463  14.856   8.928   5.612  0.2649 -0.0638 -0.1489
 1218ERGO    R116464  14.710   8.820   5.828  0.1708  0.0239 -0.1678
 1218ERGO    R216465  14.625   8.557   5.834  0.1647  0.0265 -0.0996
 1218ERGO    R316466  14.756   8.554   6.072  0.0638  0.1194 -0.0423
 1218ERGO    R416467  14.560   8.338   6.093  0.0523  0.1325 -0.0373
 1218ERGO    R516468  14.586   8.502   6.233 -0.0041  0.1876 -0.0926
 1218ERGO    C116469  14.644   8.207   6.468 -0.1078  0.2813  0.0526
 1218ERGO    C216470  14.751   8.044   6.719 -0.1582  0.1323  0.0356
 1219ERGO   ROH16471  17.785  11.325   9.110 -0.2970 -0.2100 -0.2050
 1219ERGO    R116472  17.844  11.287   8.836 -0.2253 -0.1548 -0.1973
 1219ERGO    R216473  17.649  11.239   8.647 -0.1858 -0.0089 -0.2755
 1219ERGO    R316474  17.763  11.453   8.522 -0.0474 -0.0230 -0.1758
 1219ERGO    R416475  17.658  11.287   8.305 -0.3868  0.2708 -0.2454
 1219ERGO    R516476  17.862  11.361   8.325 -0.2895  0.0344 -0.3288
 1219ERGO    C116477  17.770  11.516   7.989 -0.3739  0.4204 -0.1342
 1219ERGO    C216478  17.792  11.542   7.686 -0.1827  0.2206  0.2624
 1220ERGO   ROH16479  13.201  14.036   9.248 -0.0264 -0.0118 -0.0404
 1220ERGO    R116480  13.251  13.880   9.017  0.0673 -0.0302 -0.0082
 1220ERGO    R216481  13.064  13.848   8.816  0.1339 -0.0794 -0.0629
 1220ERGO    R316482  13.267  13.936   8.658  0.1701 -0.0676 -0.0096
 1220ERGO    R416483  13.036  13.919   8.479  0.1842  0.0513 -0.0400
 1220ERGO    R516484  13.231  13.827   8.448  0.1662  0.0180 -0.0537
 1220ERGO    C116485  13.210  14.043   8.135  0.2475  0.1384  0.0235
 1220ERGO    C216486  13.183  14.335   7.876 -0.0086 -0.1934 -0.1388
 1221ERGO   ROH16487  15.640  17.755   8.449 -0.1887  0.0760  0.0912
 1221ERGO    R116488  15.633  17.911   8.213 -0.2093  0.1177  0.1187
 1221ERGO    R216489  15.703  17.811   7.966  0.0904  0.2509  0.1413
 1221ERGO    R316490  15.457  17.901   7.895  0.0261 -0.0326 -0.0080
 1221ERGO    R416491  15.629  17.964   7.665  0.1216  0.3008  0.1593
 1221ERGO    R516492  15.500  18.103   7.774 -0.1440  0.0828  0.1258
 1221ERGO    C116493  15.354  18.138   7.423  0.0793  0.0636  0.0296
 1221ERGO    C216494  15.359  17.963   7.046 -0.1431  0.1558  0.3377
 1222ERGO   ROH16495   4.345   2.068   5.056  0.0128 -0.1727  0.0287
 1222ERGO    R116496   4.297   1.938   5.303  0.0220 -0.0870  0.0766
 1222ERGO    R216497   4.489   1.919   5.500  0.0242 -0.0050  0.0836
 1222ERGO    R316498   4.295   2.031   5.655  0.0192  0.0393  0.0439
 1222ERGO    R416499   4.436   1.845   5.834 -0.1419 -0.0993  0.0367
 1222ERGO    R516500   4.221   1.852   5.796 -0.1264  0.0235 -0.0484
 1222ERGO    C116501   4.224   1.908   6.173 -0.2434 -0.1126 -0.0279
 1222ERGO    C216502   4.246   1.782   6.552  0.0753  0.2911 -0.2483
 1223ERGO   ROH16503  19.153   4.648   8.958  0.1415 -0.0420 -0.0084
 1223ERGO    R116504  18.972   4.785   8.790  0.0772 -0.1083  0.0073
 1223ERGO    R216505  19.050   4.907   8.555  0.0133 -0.0780  0.0050
 1223ERGO    R316506  18.852   4.754   8.447  0.0603 -0.1481  0.0159
 1223ERGO    R416507  18.949   4.920   8.224 -0.1951  0.0937  0.0728
 1223ERGO    R516508  18.742   4.900   8.293 -0.1442 -0.1103  0.1889
 1223ERGO    C116509  18.704   4.783   7.931 -0.2722  0.1280  0.1224
 1223ERGO    C216510  18.790   4.619   7.568  0.0397  0.2178 -0.1487
 1224ERGO   ROH16511  11.601   0.818   6.450 -0.2223  0.1358 -0.0376
 1224ERGO    R116512  11.585   0.890   6.723 -0.0612  0.0619 -0.0086
 1224ERGO    R216513  11.585   0.704   6.927  0.0382  0.0087 -0.0635
 1224ERGO    R316514  11.793   0.852   7.019  0.1029 -0.0359 -0.1328
 1224ERGO    R416515  11.756   0.640   7.220  0.2233 -0.1323 -0.1987
 1224ERGO    R516516  11.762   0.856   7.257  0.2513 -0.1429 -0.1060
 1224ERGO    C116517  12.052   0.742   7.478  0.3920 -0.2562 -0.3426
 1224ERGO    C216518  12.332   0.539   7.614 -0.0373 -0.3159 -0.0021
 1225ERGO   ROH16519  12.730   0.849   5.807  0.1203  0.0399 -0.3236
 1225ERGO    R116520  12.955   0.936   5.955  0.1045  0.1636 -0.3703
 1225ERGO    R216521  13.045   0.803   6.180  0.0536  0.3757 -0.2223
 1225ERGO    R316522  13.280   0.800   6.045  0.0759  0.2173 -0.1809
 1225ERGO    R416523  13.347   0.700   6.313  0.0010  0.3880 -0.0930
 1225ERGO    R516524  13.443   0.866   6.208  0.0634  0.2905 -0.1957
 1225ERGO    C116525  13.744   0.638   6.263 -0.0086  0.2465  0.0212
 1225ERGO    C216526  14.015   0.463   6.424 -0.1070  0.2552 -0.0279
 1226ERGO   ROH16527   4.027  11.595   9.513  0.2412  0.2053  0.0194
 1226ERGO    R116528   4.170  11.555   9.272  0.0548 -0.0443 -0.0535
 1226ERGO    R216529   4.094  11.368   9.083 -0.4942  0.2293 -0.1158
 1226ERGO    R316530   4.101  11.582   8.916 -0.0157  0.3013 -0.0184
 1226ERGO    R416531   4.179  11.355   8.748 -0.6654  0.1486 -0.1574
 1226ERGO    R516532   4.289  11.541   8.774 -0.1659 -0.1292 -0.1148
 1226ERGO    C116533   4.234  11.549   8.396 -0.3160  0.1693 -0.0902
 1226ERGO    C216534   3.956  11.638   8.110 -0.0062  0.0296 -0.3936
 1227ERGO   ROH16535   6.305   1.230   5.576 -0.2994  0.2288 -0.1683
 1227ERGO    R116536   6.317   1.082   5.817 -0.1416  0.1834 -0.2027
 1227ERGO    R216537   6.449   1.173   6.042 -0.1415  0.2201 -0.2154
 1227ERGO    R316538   6.209   1.127   6.161 -0.0832  0.0402 -0.1651
 1227ERGO    R416539   6.405   1.095   6.376 -0.0215  0.2769 -0.1863
 1227ERGO    R516540   6.252   0.951   6.318  0.0970  0.1237 -0.1206
 1227ERGO    C116541   6.154   1.006   6.682  0.1032  0.1412 -0.1221
 1227ERGO    C216542   5.956   1.163   6.890  0.0318 -0.1311 -0.0096
 1228ERGO   ROH16543   6.566   9.741   5.558 -0.0091  0.0177 -0.2057
 1228ERGO    R116544   6.400   9.897   5.726  0.1150  0.1114 -0.1681
 1228ERGO    R216545   6.273   9.794   5.948 -0.0703  0.1240 -0.2653
 1228ERGO    R316546   6.397  10.000   6.075  0.1265 -0.0851 -0.1092
 1228ERGO    R416547   6.184   9.916   6.259 -0.1728  0.1907 -0.3204
 1228ERGO    R516548   6.219  10.118   6.184  0.1994  0.1596 -0.2481
 1228ERGO    C116549   6.247  10.180   6.559 -0.0476  0.0330 -0.2060
 1228ERGO    C216550   6.162  10.152   6.868 -0.2902 -0.1212 -0.0629
 1229ERGO   ROH16551   5.815   1.323   5.643  0.2841 -0.2302  0.0262
 1229ERGO    R116552   5.875   1.190   5.885  0.2791  0.0606  0.1921
 1229ERGO    R216553   5.792   1.283   6.132 -0.1781  0.0865  0.0343
 1229ERGO    R316554   5.688   1.033   6.154  0.2771 -0.1087  0.0951
 1229ERGO    R416555   5.754   1.111   6.429 -0.4010  0.3455  0.1605
 1229ERGO    R516556   5.818   0.930   6.327  0.1702  0.3433  0.4716
 1229ERGO    C116557   5.634   0.776   6.624 -0.1035  0.3132  0.2910
 1229ERGO    C216558   5.339   0.563   6.733 -0.1719  0.0862  0.2460
 1230ERGO   ROH16559  10.542   9.016   9.313  0.2224 -0.1676 -0.0591
 1230ERGO    R116560  10.559   8.983   9.032 -0.0628 -0.0918 -0.0889
 1230ERGO    R216561  10.342   9.018   8.864 -0.1932  0.1458  0.1191
 1230ERGO    R316562  10.508   9.192   8.739 -0.1594  0.0482  0.0273
 1230ERGO    R416563  10.388   9.038   8.522 -0.3544  0.1159  0.0948
 1230ERGO    R516564  10.600   9.067   8.557 -0.3226 -0.0035 -0.0173
 1230ERGO    C116565  10.571   9.212   8.205 -0.4167  0.0069 -0.0054
 1230ERGO    C216566  10.571   9.152   8.005 -0.4908 -0.0113  0.0678
 1231ERGO   ROH16567   3.458   5.416   5.622 -0.1474  0.2107 -0.2276
 1231ERGO    R116568   3.566   5.491   5.873 -0.0821 -0.1995 -0.1252
 1231ERGO    R216569   3.535   5.745   5.978  0.5803 -0.1331 -0.0466
 1231ERGO    R316570   3.436   5.609   6.192  0.0417  0.0497 -0.1651
 1231ERGO    R416571   3.540   5.858   6.305  0.3937 -0.1518 -0.0362
 1231ERGO    R516572   3.590   5.656   6.369 -0.0810 -0.2566  0.0293
 1231ERGO    C116573   3.450   5.796   6.695 -0.2205  0.0089 -0.1415
 1231ERGO    C216574   3.422   5.783   6.905 -0.3611 -0.0103  0.1842
 1232ERGO   ROH16575   3.698  16.491   9.057  0.3480  0.1051  0.0540
 1232ERGO    R116576   3.635  16.590   8.799  0.1299  0.0115  0.0683
 1232ERGO    R216577   3.808  16.750   8.655 -0.0418  0.0720 -0.0862
 1232ERGO    R316578   3.771  16.560   8.463 -0.0671  0.0016 -0.0102
 1232ERGO    R416579   3.817  16.809   8.314 -0.1624 -0.0524 -0.1110
 1232ERGO    R516580   3.649  16.672   8.291 -0.1395 -0.0881 -0.0108
 1232ERGO    C116581   3.789  16.665   7.936 -0.2563 -0.1910 -0.0540
 1232ERGO    C216582   3.790  16.561   7.580  0.0945  0.0703 -0.0892
 1233ERGO   ROH16583   7.547   8.164   6.122  0.0396 -0.0656  0.0281
 1233ERGO    R116584   7.819   8.227   6.170  0.0716 -0.2317  0.0720
 1233ERGO    R216585   7.896   8.416   6.357  0.1483 -0.1571 -0.0345
 1233ERGO    R316586   8.047   8.212   6.453 -0.0331 -0.2032  0.1590
 1233ERGO    R416587   8.104   8.437   6.632  0.1286 -0.0950 -0.0242
 1233ERGO    R516588   8.251   8.316   6.524  0.0450 -0.3096  0.0958
 1233ERGO    C116589   8.367   8.257   6.883 -0.0534 -0.1024  0.1635
 1233ERGO    C216590   8.546   8.368   7.236 -0.2724  0.1225  0.1065
 1234ERGO   ROH16591  15.191   9.275   5.623 -0.0301  0.1300  0.0973
 1234ERGO    R116592  15.225   9.091   5.835 -0.0250 -0.1343 -0.1268
 1234ERGO    R216593  15.179   9.158   6.099  0.4545 -0.3075  0.0138
 1234ERGO    R316594  15.015   8.942   6.092  0.0874 -0.0376  0.0223
 1234ERGO    R416595  15.207   8.883   6.306  0.1378 -0.4542 -0.1335
 1234ERGO    R516596  15.160   8.756   6.135 -0.1893 -0.3026 -0.1605
 1234ERGO    C116597  15.068   8.519   6.420 -0.3913 -0.2864 -0.2113
 1234ERGO    C216598  15.134   8.439   6.841 -0.0015 -0.0813  0.0029
 1235ERGO   ROH16599   9.855   4.105   6.139  0.2397 -0.0961  0.1112
 1235ERGO    R116600   9.977   4.240   6.356  0.1806 -0.1596  0.1836
 1235ERGO    R216601   9.862   4.459   6.480  0.2676 -0.0410  0.0438
 1235ERGO    R316602   9.897   4.309   6.704 -0.0390 -0.0218  0.1099
 1235ERGO    R416603   9.809   4.570   6.802  0.2499  0.1454 -0.0219
 1235ERGO    R516604   9.987   4.462   6.864  0.0873 -0.0772  0.1019
 1235ERGO    C116605   9.811   4.495   7.201 -0.0483  0.2721  0.0020
 1235ERGO    C216606   9.615   4.420   7.470 -0.0194 -0.0123 -0.1239
 1236ERGO   ROH16607  17.217   4.425   9.090 -0.0957 -0.1726 -0.0333
 1236ERGO    R116608  17.249   4.418   8.808 -0.1408 -0.2024 -0.0377
 1236ERGO    R216609  17.038   4.458   8.633 -0.1273  0.0106 -0.0075
 1236ERGO    R316610  17.201   4.650   8.532  0.0528 -0.1501 -0.0288
 1236ERGO    R416611  17.056   4.547   8.300 -0.3524  0.2396  0.0386
 1236ERGO    R516612  17.272   4.563   8.321 -0.2992 -0.0972 -0.1748
 1236ERGO    C116613  17.219   4.779   8.011 -0.3143  0.2220  0.0454
 1236ERGO    C216614  17.179   4.901   7.773 -0.1196 -0.1748  0.0735
 1237ERGO   ROH16615  16.265  14.969   8.927  0.0285  0.0308 -0.1985
 1237ERGO    R116616  16.395  15.114   8.722 -0.1115  0.0837 -0.2475
 1237ERGO    R216617  16.578  14.998   8.551  0.0171  0.2112 -0.1754
 1237ERGO    R316618  16.414  15.098   8.359 -0.0629 -0.0389 -0.2449
 1237ERGO    R416619  16.667  15.042   8.220  0.2183  0.5819 -0.0792
 1237ERGO    R516620  16.559  15.232   8.222 -0.2161  0.3670 -0.0505
 1237ERGO    C116621  16.565  15.162   7.847  0.2604  0.5630 -0.0885
 1237ERGO    C216622  16.573  15.234   7.460  0.1253  0.2068  0.0905
 1238ERGO   ROH16623   2.704   7.376   5.367 -0.0178  0.0969 -0.0735
 1238ERGO    R116624   2.582   7.363   5.622 -0.1292  0.1149 -0.1246
 1238ERGO    R216625   2.703   7.238   5.837 -0.3097 -0.0452 -0.1123
 1238ERGO    R316626   2.661   7.477   5.958 -0.1688 -0.0464 -0.0599
 1238ERGO    R416627   2.632   7.280   6.173  0.0452 -0.0469 -0.0330
 1238ERGO    R516628   2.488   7.435   6.118 -0.0039 -0.0381  0.1227
 1238ERGO    C116629   2.551   7.531   6.482  0.3842 -0.0490  0.0623
 1238ERGO    C216630   2.581   7.426   6.793 -0.0467  0.3244  0.4055
 1239ERGO   ROH16631   6.184  15.994   9.412 -0.0339 -0.0712  0.0620
 1239ERGO    R116632   6.230  16.025   9.135  0.1081 -0.1482  0.0761
 1239ERGO    R216633   6.323  15.819   8.975 -0.1031 -0.2834  0.1222
 1239ERGO    R316634   6.103  15.878   8.827  0.0236 -0.0014  0.0402
 1239ERGO    R416635   6.294  15.770   8.634  0.0686  0.0513  0.0552
 1239ERGO    R516636   6.190  15.960   8.620  0.2032  0.1344  0.1666
 1239ERGO    C116637   6.070  15.797   8.297  0.2875  0.5108 -0.0607
 1239ERGO    C216638   5.785  15.871   8.070 -0.0570  0.2159 -0.2581
 1240ERGO   ROH16639   0.707   9.116   5.675 -0.2179 -0.0911 -0.0958
 1240ERGO    R116640   0.760   8.995   5.925  0.0068  0.0746 -0.0612
 1240ERGO    R216641   0.885   9.130   6.132 -0.1484  0.3342 -0.1378
 1240ERGO    R316642   0.665   9.054   6.272 -0.0127  0.0613 -0.0627
 1240ERGO    R416643   0.884   9.043   6.466  0.0468  0.5579 -0.0750
 1240ERGO    R516644   0.744   8.883   6.419  0.2990  0.2843  0.0474
 1240ERGO    C116645   0.676   8.921   6.792  0.2880  0.4322  0.0320
 1240ERGO    C216646   0.651   9.090   7.113  0.2778 -0.0262 -0.3302
 1241ERGO   ROH16647  13.131  17.335   9.083 -0.3519 -0.0078 -0.1513
 1241ERGO    R116648  13.214  17.493   8.863 -0.3365  0.0324 -0.1176
 1241ERGO    R216649  13.369  17.391   8.658  0.0312  0.1716  0.0773
 1241ERGO    R316650  13.169  17.488   8.502  0.0522 -0.1661 -0.1687
 1241ERGO    R416651  13.415  17.580   8.372  0.0603  0.2705  0.1480
 1241ERGO    R516652  13.246  17.704   8.433 -0.2357 -0.0243 -0.0541
 1241ERGO    C116653  13.254  17.782   8.060  0.0971  0.0111 -0.0418
 1241ERGO    C216654  12.985  17.957   7.790  0.1386 -0.0422  0.2147
 1242ERGO   ROH16655  10.276  17.004   5.725  0.0713 -0.0237 -0.1748
 1242ERGO    R116656  10.037  16.918   5.850  0.1928 -0.0381  0.0551
 1242ERGO    R216657  10.002  16.924   6.124  0.3314  0.2736  0.0738
 1242ERGO    R316658   9.780  17.067   6.059  0.2016  0.0458  0.0050
 1242ERGO    R416659   9.781  17.060   6.352  0.0029 -0.1144 -0.0006
 1242ERGO    R516660   9.617  17.001   6.222  0.1633 -0.2386 -0.1459
 1242ERGO    C116661   9.445  17.275   6.425 -0.3104 -0.5542 -0.1085
 1242ERGO    C216662   9.606  17.440   6.651 -0.2283 -0.0336  0.2527
 1243ERGO   ROH16663   3.035   2.775   8.853  0.4926 -0.0080  0.0762
 1243ERGO    R116664   2.965   2.840   8.587  0.1174 -0.0749  0.1522
 1243ERGO    R216665   3.149   2.930   8.402 -0.1932  0.1974 -0.0454
 1243ERGO    R316666   3.054   2.723   8.254 -0.0742  0.0749  0.0483
 1243ERGO    R416667   3.189   2.896   8.060  0.0281 -0.0734  0.0044
 1243ERGO    R516668   2.984   2.824   8.048  0.0498 -0.0995 -0.0755
 1243ERGO    C116669   3.122   2.682   7.722  0.2687 -0.3461  0.1214
 1243ERGO    C216670   3.403   2.815   7.441  0.0573  0.1486  0.0907
 1244ERGO   ROH16671   1.242   9.334   5.987 -0.0796  0.0217  0.0006
 1244ERGO    R116672   1.170   9.504   6.202 -0.0633 -0.0180  0.0366
 1244ERGO    R216673   1.158   9.415   6.463  0.0425 -0.0435  0.0294
 1244ERGO    R316674   1.327   9.624   6.508 -0.0062  0.0035  0.0004
 1244ERGO    R416675   1.147   9.622   6.740 -0.1519  0.1264 -0.1014
 1244ERGO    R516676   1.189   9.792   6.609 -0.0914  0.0524 -0.1861
 1244ERGO    C116677   1.299   9.938   6.943 -0.3107  0.2692 -0.2047
 1244ERGO    C216678   1.152   9.869   7.300 -0.1662 -0.0189  0.2498
 1245ERGO   ROH16679   8.272   0.014   9.537  0.0662 -0.0080 -0.1846
 1245ERGO    R116680   8.197  -0.019   9.266 -0.1333  0.0667 -0.1397
 1245ERGO    R216681   8.139   0.194   9.101  0.1414  0.1374 -0.1438
 1245ERGO    R316682   8.328   0.081   8.942 -0.1303 -0.2145 -0.2292
 1245ERGO    R416683   8.199   0.283   8.773  0.3314  0.2314 -0.0855
 1245ERGO    R516684   8.225   0.072   8.725 -0.1783  0.1835 -0.2341
 1245ERGO    C116685   8.411   0.229   8.432  0.1870 -0.0441 -0.1317
 1245ERGO    C216686   8.429   0.252   8.142  0.3118  0.0215  0.3462
 1246ERGO   ROH16687  17.219  10.126   5.949  0.0477 -0.0122 -0.1240
 1246ERGO    R116688  17.367   9.888   5.985 -0.0160 -0.0941 -0.3782
 1246ERGO    R216689  17.329   9.720   6.201  0.3390 -0.0117 -0.2398
 1246ERGO    R316690  17.295   9.532   6.007 -0.1954 -0.0432 -0.1292
 1246ERGO    R416691  17.433   9.391   6.225  0.2855 -0.0438 -0.4320
 1246ERGO    R516692  17.496   9.401   6.016 -0.2137 -0.1117 -0.5919
 1246ERGO    C116693  17.462   9.023   6.058 -0.2474 -0.0922 -0.4401
 1246ERGO    C216694  17.432   8.796   6.216  0.0425 -0.1786 -0.1350
 1247ERGO   ROH16695  11.875   7.539   9.036 -0.1442  0.1180 -0.0090
 1247ERGO    R116696  11.776   7.443   8.789 -0.1429  0.0990 -0.0007
 1247ERGO    R216697  11.649   7.606   8.605  0.0371  0.1243 -0.0961
 1247ERGO    R316698  11.838   7.508   8.437  0.0107 -0.0832 -0.0104
 1247ERGO    R416699  11.654   7.654   8.263  0.3193  0.2573 -0.0779
 1247ERGO    R516700  11.717   7.447   8.239  0.0408  0.1658 -0.1142
 1247ERGO    C116701  11.834   7.590   7.906  0.4589  0.1400  0.0133
 1247ERGO    C216702  12.002   7.803   7.697  0.1127 -0.1831  0.3101
 1248ERGO   ROH16703   2.694  16.025   5.488 -0.1197  0.0117 -0.0684
 1248ERGO    R116704   2.765  16.180   5.714  0.1279 -0.1069 -0.0612
 1248ERGO    R216705   2.576  16.306   5.873  0.3257  0.2323 -0.0892
 1248ERGO    R316706   2.700  16.169   6.072  0.0597  0.0106 -0.0687
 1248ERGO    R416707   2.483  16.314   6.205  0.2982  0.4213 -0.0998
 1248ERGO    R516708   2.694  16.318   6.260  0.3102  0.0393 -0.0773
 1248ERGO    C116709   2.545  16.190   6.586  0.0323  0.3232 -0.0867
 1248ERGO    C216710   2.495  16.006   6.861 -0.0149  0.1705  0.1197
 1249ERGO   ROH16711   6.215  11.229   9.167  0.0228 -0.1926 -0.0213
 1249ERGO    R116712   6.305  11.385   8.949 -0.1869  0.0854  0.0849
 1249ERGO    R216713   6.351  11.278   8.698  0.1762  0.2693  0.0652
 1249ERGO    R316714   6.181  11.474   8.618 -0.2060 -0.0542  0.0541
 1249ERGO    R416715   6.241  11.324   8.374  0.1914  0.1219  0.0385
 1249ERGO    R516716   6.262  11.539   8.403 -0.2602  0.1661  0.0987
 1249ERGO    C116717   6.017  11.535   8.110 -0.1586 -0.2676  0.0126
 1249ERGO    C216718   5.839  11.682   7.807  0.0322 -0.0066 -0.0490
 1250ERGO   ROH16719   2.370  11.226   6.371 -0.0490 -0.2858  0.1947
 1250ERGO    R116720   2.279  11.353   6.606 -0.1142 -0.1390  0.0910
 1250ERGO    R216721   2.138  11.591   6.602 -0.0422 -0.1019 -0.0911
 1250ERGO    R316722   1.957  11.449   6.748 -0.1481  0.0281 -0.0927
 1250ERGO    R416723   1.958  11.717   6.869  0.1970 -0.0206  0.0364
 1250ERGO    R516724   1.988  11.527   6.972  0.0259 -0.1091 -0.0643
 1250ERGO    C116725   1.683  11.657   7.160  0.2369  0.1487  0.1092
 1250ERGO    C216726   1.318  11.719   7.258  0.3300  0.2892 -0.1096
 1251ERGO   ROH16727   8.171   7.447   9.025 -0.1042  0.2656 -0.0321
 1251ERGO    R116728   8.134   7.615   8.800 -0.0456  0.0842 -0.1792
 1251ERGO    R216729   8.268   7.576   8.562 -0.0273 -0.1436 -0.1298
 1251ERGO    R316730   8.017   7.577   8.458 -0.0145 -0.1793 -0.1638
 1251ERGO    R416731   8.182   7.714   8.256 -0.0280 -0.0176 -0.0743
 1251ERGO    R516732   7.999   7.790   8.348 -0.0704 -0.1264 -0.0589
 1251ERGO    C116733   7.896   7.795   7.981 -0.0162  0.0221 -0.0739
 1251ERGO    C216734   7.790   8.002   7.743 -0.1827 -0.1769 -0.2783
 1252ERGO   ROH16735   8.313   5.294   5.928 -0.2803  0.2407 -0.2230
 1252ERGO    R116736   8.176   5.472   6.101 -0.1715  0.2250 -0.1144
 1252ERGO    R216737   8.152   5.428   6.372 -0.2904  0.0199 -0.1396
 1252ERGO    R316738   8.260   5.677   6.390 -0.0580 -0.0939  0.0771
 1252ERGO    R416739   8.156   5.622   6.658 -0.2097 -0.1503 -0.0252
 1252ERGO    R516740   8.111   5.796   6.535  0.0153 -0.0365  0.0822
 1252ERGO    C116741   8.259   5.970   6.840  0.0554 -0.3562  0.2449
 1252ERGO    C216742   8.314   5.925   7.205  0.2614 -0.0252  0.2581
 1253ERGO   ROH16743   8.905   8.022   9.314 -0.0992 -0.0731 -0.0383
 1253ERGO    R116744   9.058   8.123   9.098 -0.0514 -0.0941 -0.0134
 1253ERGO    R216745   9.067   7.999   8.851 -0.1333 -0.0242 -0.0488
 1253ERGO    R316746   8.992   8.244   8.761  0.0034  0.0472  0.0250
 1253ERGO    R416747   9.089   8.104   8.523 -0.1336  0.0369 -0.0303
 1253ERGO    R516748   9.154   8.299   8.595  0.0072 -0.0188  0.0036
 1253ERGO    C116749   9.030   8.395   8.247 -0.0053  0.1394  0.0500
 1253ERGO    C216750   8.954   8.248   8.004  0.0769  0.1868  0.0428
 1254ERGO   ROH16751   4.888   7.200   8.952 -0.2313  0.0585  0.0663
 1254ERGO    R116752   4.832   7.126   8.685 -0.1426  0.0431  0.0515
 1254ERGO    R216753   4.598   7.195   8.557 -0.0702  0.0985 -0.0550
 1254ERGO    R316754   4.767   7.298   8.371  0.0392  0.0256  0.0035
 1254ERGO    R416755   4.574   7.139   8.217  0.0667  0.0567 -0.0582
 1254ERGO    R516756   4.791   7.122   8.210  0.0642 -0.0026  0.0396
 1254ERGO    C116757   4.719   7.202   7.844  0.2491 -0.0361 -0.0051
 1254ERGO    C216758   4.639   7.156   7.426 -0.0567  0.1658  0.1172
 1255ERGO   ROH16759  14.847  17.161   6.072 -0.4670 -0.0810  0.1521
 1255ERGO    R116760  14.871  17.097   6.346 -0.2589 -0.0223  0.1506
 1255ERGO    R216761  15.061  16.921   6.442 -0.3112 -0.1638  0.0199
 1255ERGO    R316762  15.126  17.129   6.605  0.0229 -0.1640 -0.1068
 1255ERGO    R416763  15.214  16.890   6.751 -0.5198 -0.2215  0.1188
 1255ERGO    R516764  15.083  17.048   6.826 -0.2453  0.0950 -0.0648
 1255ERGO    C116765  15.364  17.068   7.083 -0.3277 -0.2555  0.0574
 1255ERGO    C216766  15.555  17.014   7.423  0.1553 -0.1334 -0.3270
 1256ERGO   ROH16767  15.818   8.804   8.996 -0.1466 -0.2150 -0.0176
 1256ERGO    R116768  15.867   8.670   8.752 -0.1421 -0.0887 -0.0872
 1256ERGO    R216769  15.664   8.600   8.577 -0.1368  0.0243 -0.1408
 1256ERGO    R316770  15.815   8.737   8.398 -0.1103  0.1075 -0.0552
 1256ERGO    R416771  15.637   8.571   8.234  0.0780  0.0054 -0.1576
 1256ERGO    R516772  15.854   8.580   8.221  0.0807  0.1282 -0.0322
 1256ERGO    C116773  15.762   8.684   7.866  0.2280  0.0725 -0.0870
 1256ERGO    C216774  15.560   8.734   7.549  0.0170  0.3819  0.0877
 1257ERGO   ROH16775  12.021  16.663   6.169  0.2001  0.1026  0.0590
 1257ERGO    R116776  12.072  16.746   6.435  0.1830  0.1787  0.0386
 1257ERGO    R216777  12.231  16.965   6.494  0.1416  0.2233 -0.0149
 1257ERGO    R316778  12.012  17.045   6.634  0.1261  0.2178 -0.0361
 1257ERGO    R416779  12.191  17.277   6.636  0.2352  0.1370  0.2054
 1257ERGO    R516780  12.101  17.181   6.810  0.1258  0.0457  0.1013
 1257ERGO    C116781  11.963  17.534   6.851  0.2750  0.0814  0.3138
 1257ERGO    C216782  11.925  17.848   7.021 -0.3135 -0.2271 -0.0508
 1258ERGO   ROH16783  16.722   6.587   5.719 -0.0300 -0.4347 -0.0732
 1258ERGO    R116784  16.743   6.489   5.984 -0.1173 -0.3343 -0.0292
 1258ERGO    R216785  16.786   6.654   6.202  0.0293 -0.2741 -0.1063
 1258ERGO    R316786  16.562   6.533   6.297 -0.0793 -0.0345 -0.0462
 1258ERGO    R416787  16.657   6.697   6.520  0.2337 -0.2301 -0.0271
 1258ERGO    R516788  16.613   6.484   6.525 -0.0274 -0.1826 -0.0870
 1258ERGO    C116789  16.372   6.607   6.794  0.2508  0.0206  0.0756
 1258ERGO    C216790  16.252   6.843   7.076 -0.0442 -0.3775 -0.0628
 1259ERGO   ROH16791   6.952   7.494   9.075 -0.1469 -0.0766 -0.0414
 1259ERGO    R116792   7.063   7.611   8.842 -0.0389 -0.0289  0.0327
 1259ERGO    R216793   7.111   7.466   8.612 -0.0191  0.0366 -0.0078
 1259ERGO    R316794   6.960   7.660   8.497  0.0775  0.1291  0.0205
 1259ERGO    R416795   7.066   7.506   8.271  0.0301  0.1391 -0.0021
 1259ERGO    R516796   7.081   7.722   8.300  0.1209  0.1235  0.0482
 1259ERGO    C116797   6.897   7.712   7.966  0.1493  0.2857  0.0276
 1259ERGO    C216798   6.811   7.669   7.665  0.1499  0.3140 -0.1870
 1260ERGO   ROH16799  17.211  16.231   9.027 -0.1157  0.1636 -0.1275
 1260ERGO    R116800  17.298  16.333   8.777  0.0136  0.1041 -0.1070
 1260ERGO    R216801  17.403  16.172   8.579 -0.1411  0.0165 -0.1172
 1260ERGO    R316802  17.209  16.288   8.427 -0.0080  0.2437 -0.1201
 1260ERGO    R416803  17.409  16.196   8.234 -0.0384  0.1562 -0.1073
 1260ERGO    R516804  17.329  16.398   8.251  0.1274  0.2179 -0.0451
 1260ERGO    C116805  17.231  16.318   7.891  0.1465  0.4508 -0.1043
 1260ERGO    C216806  17.376  16.099   7.529 -0.0344 -0.1310 -0.2939
 1261ERGO   ROH16807   7.265  17.960   6.040 -0.0789  0.0376  0.1011
 1261ERGO    R116808   7.102  17.983   6.271 -0.0844  0.0599  0.0956
 1261ERGO    R216809   7.149  17.836   6.501 -0.1374  0.0212  0.0857
 1261ERGO    R316810   7.149  18.081   6.619 -0.0715  0.0103  0.1067
 1261ERGO    R416811   7.125  17.892   6.841  0.0395  0.0013  0.1020
 1261ERGO    R516812   6.994  18.061   6.799  0.0242  0.0040  0.1848
 1261ERGO    C116813   7.112  18.154   7.150  0.2044 -0.0205  0.1312
 1261ERGO    C216814   7.121  18.036   7.513 -0.0093  0.0444 -0.1044
 1262ERGO   ROH16815   8.746   2.897   9.692 -0.1412 -0.0206  0.0309
 1262ERGO    R116816   8.642   2.875   9.429 -0.0540  0.0915 -0.0135
 1262ERGO    R216817   8.718   3.045   9.225  0.2281  0.0008  0.0140
 1262ERGO    R316818   8.775   2.812   9.097  0.0177 -0.0692  0.0442
 1262ERGO    R416819   8.720   3.003   8.882  0.2289 -0.0303  0.0176
 1262ERGO    R516820   8.625   2.809   8.909  0.0344  0.0606  0.0260
 1262ERGO    C116821   8.774   2.761   8.562  0.0318 -0.1141  0.0483
 1262ERGO    C216822   8.814   2.749   8.199 -0.1703 -0.0833  0.0605
 1263ERGO   ROH16823   6.716  17.449   9.029 -0.1134 -0.0428 -0.0591
 1263ERGO    R116824   6.628  17.307   8.801 -0.0680 -0.1060 -0.0371
 1263ERGO    R216825   6.623  17.419   8.548 -0.1897 -0.1159 -0.0385
 1263ERGO    R316826   6.771  17.200   8.484 -0.0628 -0.0240 -0.0624
 1263ERGO    R416827   6.701  17.321   8.226 -0.1420 -0.0440 -0.0495
 1263ERGO    R516828   6.668  17.114   8.286 -0.0185 -0.0690 -0.0662
 1263ERGO    C116829   6.886  17.059   7.978  0.0050  0.0841 -0.0784
 1263ERGO    C216830   6.969  17.221   7.723  0.1482 -0.0433 -0.0642
 1264ERGO   ROH16831  16.997  12.100   6.177 -0.0145  0.0235 -0.0092
 1264ERGO    R116832  17.113  12.012   6.420  0.1617  0.1357 -0.0501
 1264ERGO    R216833  17.271  12.175   6.577 -0.0175  0.3248 -0.0590
 1264ERGO    R316834  17.094  12.105   6.772  0.1156  0.0526 -0.0308
 1264ERGO    R416835  17.295  12.269   6.909 -0.0172  0.2109 -0.0266
 1264ERGO    R516836  17.230  12.069   6.966  0.2152  0.1163 -0.0889
 1264ERGO    C116837  17.142  12.259   7.285  0.1081 -0.1109  0.0188
 1264ERGO    C216838  16.999  12.598   7.526 -0.0621  0.0646 -0.0421
 1265ERGO   ROH16839  10.390   6.539   7.005 -0.2516  0.2650  0.1489
 1265ERGO    R116840  10.348   6.412   7.255 -0.1772  0.1823  0.1202
 1265ERGO    R216841  10.218   6.537   7.464 -0.1063  0.1169  0.2039
 1265ERGO    R316842  10.061   6.315   7.456 -0.1172  0.1254  0.1785
 1265ERGO    R416843  10.101   6.368   7.742 -0.2633  0.1949  0.1864
 1265ERGO    R516844  10.140   6.180   7.638 -0.2211  0.1660  0.2542
 1265ERGO    C116845   9.885   6.061   7.896 -0.3648  0.2482  0.1524
 1265ERGO    C216846   9.897   5.773   8.115  0.2116 -0.0250  0.0332
 1266ERGO   ROH16847  13.510   7.367   9.614 -0.3249  0.2507  0.0779
 1266ERGO    R116848  13.547   7.347   9.334 -0.0980  0.2478  0.1051
 1266ERGO    R216849  13.387   7.188   9.174  0.2095  0.0160  0.0099
 1266ERGO    R316850  13.351   7.419   9.036  0.0196 -0.0461 -0.0457
 1266ERGO    R416851  13.397   7.216   8.830  0.0176 -0.0805 -0.0042
 1266ERGO    R516852  13.505   7.404   8.853 -0.0689 -0.0199 -0.1191
 1266ERGO    C116853  13.370   7.450   8.500 -0.2725 -0.1951 -0.0646
 1266ERGO    C216854  13.219   7.363   8.156  0.0606  0.1261 -0.2575
 1267ERGO   ROH16855  13.877  10.400   5.694 -0.2006  0.0803 -0.1803
 1267ERGO    R116856  13.754  10.466   5.940 -0.0080  0.1625 -0.1023
 1267ERGO    R216857  13.693  10.726   6.011 -0.1372  0.1764 -0.2302
 1267ERGO    R316858  13.444  10.624   6.046 -0.0264  0.0005  0.0822
 1267ERGO    R416859  13.440  10.880   6.188 -0.1785  0.2159 -0.3245
 1267ERGO    R516860  13.385  10.686   6.270  0.0487  0.2966  0.0172
 1267ERGO    C116861  13.058  10.875   6.324 -0.0986  0.0737 -0.0861
 1267ERGO    C216862  12.817  10.997   6.540  0.3342  0.2578  0.0344
 1268ERGO   ROH16863   5.479  10.430   9.139  0.4645  0.2516 -0.0567
 1268ERGO    R116864   5.365  10.512   8.893  0.3098  0.1450 -0.0233
 1268ERGO    R216865   5.439  10.745   8.765  0.1344  0.1609 -0.1080
 1268ERGO    R316866   5.485  10.578   8.556  0.1254  0.1377 -0.0903
 1268ERGO    R416867   5.432  10.838   8.432 -0.0238  0.0832 -0.1263
 1268ERGO    R516868   5.332  10.650   8.387  0.0378  0.0368 -0.0501
 1268ERGO    C116869   5.471  10.734   8.042 -0.1243  0.0161 -0.1203
 1268ERGO    C216870   5.505  10.801   7.741 -0.0735  0.3193 -0.0005
 1269ERGO   ROH16871   3.598   6.914   5.583 -0.1376 -0.0147  0.2911
 1269ERGO    R116872   3.743   6.718   5.727 -0.0095 -0.1012  0.0476
 1269ERGO    R216873   3.993   6.631   5.648  0.1366  0.3088  0.0434
 1269ERGO    R316874   4.062   6.700   5.902 -0.0934 -0.0417  0.2107
 1269ERGO    R416875   4.270   6.513   5.817  0.2310  0.4054 -0.0417
 1269ERGO    R516876   4.149   6.499   5.997  0.1550 -0.1001 -0.1134
 1269ERGO    C116877   4.496   6.510   6.154  0.0702  0.1326  0.0658
 1269ERGO    C216878   4.808   6.732   6.348  0.2006 -0.1855  0.2266
 1270ERGO   ROH16879  10.509  14.198   8.992  0.0459  0.1707 -0.0781
 1270ERGO    R116880  10.368  14.073   8.782 -0.0357  0.1288  0.0006
 1270ERGO    R216881  10.182  14.206   8.626  0.1210  0.1808 -0.1474
 1270ERGO    R316882  10.336  14.116   8.422  0.0763 -0.1412 -0.0440
 1270ERGO    R416883  10.114  14.255   8.291  0.3353  0.1399 -0.1982
 1270ERGO    R516884  10.179  14.051   8.253  0.0468  0.0207 -0.0803
 1270ERGO    C116885  10.219  14.198   7.904  0.4179 -0.1863 -0.1306
 1270ERGO    C216886  10.328  14.112   7.591 -0.0374 -0.0292  0.1115
 1271ERGO   ROH16887   9.114  13.870   9.206 -0.1288  0.1093  0.0225
 1271ERGO    R116888   9.025  13.950   8.949 -0.0760 -0.0038 -0.0306
 1271ERGO    R216889   8.945  14.209   8.893 -0.2015 -0.0680 -0.1217
 1271ERGO    R316890   9.130  14.189   8.696 -0.1175 -0.0045 -0.0517
 1271ERGO    R416891   8.993  14.441   8.641 -0.3171 -0.1270 -0.2005
 1271ERGO    R516892   9.022  14.277   8.502 -0.1370 -0.1721 -0.1261
 1271ERGO    C116893   9.196  14.557   8.310 -0.3057 -0.1017 -0.1805
 1271ERGO    C216894   9.392  14.521   8.172 -0.1837 -0.4131  0.4124
 1272ERGO   ROH16895   4.589  16.248   9.374 -0.1752 -0.0809 -0.0707
 1272ERGO    R116896   4.610  16.104   9.131 -0.0112 -0.0126 -0.0978
 1272ERGO    R216897   4.434  16.140   8.921 -0.0063 -0.1181 -0.1184
 1272ERGO    R316898   4.662  16.184   8.780 -0.0194  0.1053 -0.0733
 1272ERGO    R416899   4.481  16.053   8.589  0.1668 -0.1494 -0.0868
 1272ERGO    R516900   4.684  15.991   8.640  0.2303  0.0903 -0.0216
 1272ERGO    C116901   4.722  16.045   8.264  0.2553  0.0423 -0.0261
 1272ERGO    C216902   4.707  16.121   7.921 -0.2017 -0.2622 -0.2441
 1273ERGO   ROH16903  10.758   7.726   7.932  0.0454 -0.0531 -0.0775
 1273ERGO    R116904  10.946   7.824   7.745 -0.0616  0.0443 -0.1338
 1273ERGO    R216905  10.962   7.728   7.486 -0.1383  0.1051 -0.1584
 1273ERGO    R316906  10.934   7.990   7.421 -0.2430  0.1108 -0.0953
 1273ERGO    R416907  11.084   7.874   7.198 -0.2247  0.2130 -0.1416
 1273ERGO    R516908  11.141   8.048   7.316 -0.2739  0.2094 -0.1074
 1273ERGO    C116909  11.128   8.206   6.969 -0.3734  0.2811 -0.0728
 1273ERGO    C216910  10.998   8.144   6.769  0.1497 -0.0904  0.1356
 1274ERGO   ROH16911  14.487   2.516   8.950  0.1564 -0.0532 -0.0772
 1274ERGO    R116912  14.414   2.635   8.704  0.1647 -0.0101 -0.0591
 1274ERGO    R216913  14.573   2.820   8.575  0.2546 -0.1218 -0.1113
 1274ERGO    R316914  14.548   2.648   8.366  0.0751 -0.1127 -0.0991
 1274ERGO    R416915  14.650   2.896   8.246  0.2281 -0.1925 -0.1341
 1274ERGO    R516916  14.472   2.785   8.185  0.1304 -0.0645 -0.0852
 1274ERGO    C116917  14.671   2.779   7.859  0.0441 -0.2252 -0.1360
 1274ERGO    C216918  14.846   2.771   7.581  0.0541 -0.0959 -0.1309
 1275ERGO   ROH16919  16.137   4.364   9.084 -0.4181 -0.2999 -0.1221
 1275ERGO    R116920  16.113   4.418   8.807 -0.2524 -0.0960 -0.0985
 1275ERGO    R216921  15.956   4.623   8.709 -0.0611  0.0812 -0.0345
 1275ERGO    R316922  16.186   4.697   8.585  0.0485  0.0039  0.1186
 1275ERGO    R416923  15.977   4.747   8.387  0.2052 -0.0314 -0.0636
 1275ERGO    R516924  16.157   4.628   8.358  0.2131 -0.0706  0.1166
 1275ERGO    C116925  16.206   4.889   8.083  0.4630 -0.1696  0.0630
 1275ERGO    C216926  16.192   5.011   7.740  0.0307  0.1400 -0.2945
 1276ERGO   ROH16927   8.696   7.394   5.905  0.1759 -0.0250  0.1033
 1276ERGO    R116928   8.688   7.480   6.174  0.0744  0.0780  0.0682
 1276ERGO    R216929   8.858   7.379   6.368 -0.1281  0.0071  0.2121
 1276ERGO    R316930   8.917   7.642   6.407  0.0605 -0.0239  0.1534
 1276ERGO    R416931   9.048   7.503   6.629 -0.2454 -0.0474  0.3246
 1276ERGO    R516932   8.909   7.670   6.645 -0.1200  0.0786  0.1374
 1276ERGO    C116933   9.213   7.821   6.818 -0.1366 -0.1083  0.3350
 1276ERGO    C216934   9.536   8.085   6.906 -0.0496 -0.0415  0.4206
 1277ERGO   ROH16935   4.601   3.447   5.661  0.0095  0.0227 -0.0288
 1277ERGO    R116936   4.562   3.315   5.908  0.0279 -0.0878 -0.0840
 1277ERGO    R216937   4.768   3.194   6.046  0.0676 -0.0163 -0.0776
 1277ERGO    R316938   4.682   3.352   6.250 -0.0740 -0.1367 -0.0429
 1277ERGO    R416939   4.876   3.168   6.374  0.0921  0.0100 -0.0839
 1277ERGO    R516940   4.670   3.203   6.439  0.0597 -0.1886 -0.0749
 1277ERGO    C116941   4.858   3.301   6.756 -0.0267 -0.0877 -0.0549
 1277ERGO    C216942   5.052   3.135   7.002 -0.4022 -0.1198 -0.1046
 1278ERGO   ROH16943   0.818  19.227   5.535  0.0834 -0.0660  0.0244
 1278ERGO    R116944   0.893  19.266   5.805  0.0564 -0.0451  0.0288
 1278ERGO    R216945   0.709  19.275   6.011  0.0274  0.0554  0.0002
 1278ERGO    R316946   0.866  19.080   6.117 -0.0565  0.0179  0.0566
 1278ERGO    R416947   0.761  19.227   6.349  0.0180  0.1316  0.0130
 1278ERGO    R516948   0.971  19.185   6.305 -0.0039  0.0253  0.0209
 1278ERGO    C116949   0.939  19.016   6.646 -0.0664  0.1409  0.0733
 1278ERGO    C216950   0.825  19.038   6.995 -0.3818 -0.1004  0.0777
 1279ERGO   ROH16951  10.692  10.937   8.893  0.1485 -0.2780  0.0525
 1279ERGO    R116952  10.665  10.837   8.629 -0.1281 -0.1780  0.0399
 1279ERGO    R216953  10.437  10.877   8.478 -0.1265  0.2518  0.1357
 1279ERGO    R316954  10.613  10.978   8.297 -0.0148 -0.0131  0.0913
 1279ERGO    R416955  10.370  10.929   8.143 -0.1687  0.4471  0.1732
 1279ERGO    R516956  10.570  10.856   8.096 -0.3079  0.1056  0.0786
 1279ERGO    C116957  10.496  11.054   7.778 -0.0886  0.3122  0.1532
 1279ERGO    C216958  10.463  11.160   7.496  0.3127  0.1781  0.2608
 1280ERGO   ROH16959   9.643   0.156   6.229  0.0658 -0.2970  0.0267
 1280ERGO    R116960   9.484   0.119   6.460 -0.0639 -0.2096 -0.0461
 1280ERGO    R216961   9.247  -0.022   6.457  0.0320 -0.3793 -0.0870
 1280ERGO    R316962   9.365  -0.163   6.657  0.0028 -0.1283  0.1112
 1280ERGO    R416963   9.082  -0.239   6.670  0.0787 -0.4690 -0.1422
 1280ERGO    R516964   9.204  -0.162   6.834 -0.1822 -0.2309 -0.0548
 1280ERGO    C116965   9.098  -0.497   6.982  0.0786 -0.2856  0.0117
 1280ERGO    C216966   8.959  -0.789   6.953  0.2346  0.2505 -0.2008
 1281ERGO   ROH16967  15.535  10.643   9.212  0.1583  0.0294 -0.0783
 1281ERGO    R116968  15.472  10.780   8.973  0.1715  0.1821  0.0050
 1281ERGO    R216969  15.652  10.948   8.847  0.3431 -0.0891 -0.1189
 1281ERGO    R316970  15.600  10.789   8.632 -0.1140  0.0348 -0.1091
 1281ERGO    R416971  15.623  11.060   8.522  0.5766 -0.0086 -0.1134
 1281ERGO    R516972  15.456  10.923   8.494  0.1997  0.4188 -0.0827
 1281ERGO    C116973  15.558  10.977   8.130  0.2835  0.1546 -0.1010
 1281ERGO    C216974  15.519  11.147   7.844  0.0148  0.0396  0.0033
 1282ERGO   ROH16975   6.242  17.715   5.673  0.3955  0.0821  0.0798
 1282ERGO    R116976   6.155  17.670   5.939  0.2655  0.0783  0.0373
 1282ERGO    R216977   6.327  17.683   6.156  0.1381  0.1825  0.1317
 1282ERGO    R316978   6.145  17.861   6.249  0.0056  0.1134  0.0098
 1282ERGO    R416979   6.225  17.707   6.485 -0.1309  0.1045  0.0570
 1282ERGO    R516980   6.022  17.740   6.415 -0.0887  0.0496 -0.1028
 1282ERGO    C116981   5.995  17.890   6.764 -0.4118 -0.0055 -0.1009
 1282ERGO    C216982   6.136  18.133   7.072 -0.0702  0.1795 -0.1406
 1283ERGO   ROH16983   3.495   8.460   9.363 -0.0187  0.0985 -0.0652
 1283ERGO    R116984   3.621   8.510   9.115 -0.0983  0.2070 -0.0843
 1283ERGO    R216985   3.735   8.309   8.962  0.1188  0.3127 -0.0629
 1283ERGO    R316986   3.573   8.409   8.768 -0.0156  0.0982 -0.0652
 1283ERGO    R416987   3.798   8.290   8.623  0.2014  0.4776 -0.0582
 1283ERGO    R516988   3.724   8.494   8.603 -0.1197  0.3713 -0.0273
 1283ERGO    C116989   3.682   8.373   8.243  0.1233  0.3723 -0.0577
 1283ERGO    C216990   3.693   8.175   7.995  0.0573 -0.0331 -0.1003
 1284ERGO   ROH16991   9.480  14.196   5.926 -0.0399 -0.0816  0.0452
 1284ERGO    R116992   9.478  14.157   6.206 -0.1435 -0.0713  0.0439
 1284ERGO    R216993   9.342  13.949   6.326  0.0845 -0.2541 -0.0330
 1284ERGO    R316994   9.585  13.896   6.437  0.0955  0.0880  0.1219
 1284ERGO    R416995   9.392  13.752   6.606  0.1900 -0.5027 -0.2208
 1284ERGO    R516996   9.543  13.895   6.673 -0.1381 -0.2730  0.0943
 1284ERGO    C116997   9.650  13.588   6.873  0.2618 -0.3263 -0.1847
 1284ERGO    C216998   9.796  13.336   6.989  0.1725  0.0997 -0.0079
 1285ERGO   ROH16999  17.975  11.434   5.620  0.3080 -0.1801  0.0556
 1285ERGO    R117000  18.049  11.395   5.891  0.0412 -0.3536  0.1070
 1285ERGO    R217001  18.091  11.606   6.065  0.3373 -0.4470  0.1481
 1285ERGO    R317002  17.909  11.474   6.217 -0.0408 -0.1014  0.0144
 1285ERGO    R417003  18.073  11.621   6.410  0.1294 -0.4388  0.1390
 1285ERGO    R517004  18.030  11.407   6.412 -0.3011 -0.3644  0.0966
 1285ERGO    C117005  17.891  11.505   6.753 -0.3467 -0.1097  0.0082
 1285ERGO    C217006  17.949  11.452   7.177 -0.1381 -0.0962 -0.0346
 1286ERGO   ROH17007   9.826   3.016   9.647  0.0277 -0.1485 -0.0598
 1286ERGO    R117008   9.698   3.091   9.406  0.0382 -0.1330 -0.0600
 1286ERGO    R217009   9.817   3.254   9.218  0.0465 -0.1235 -0.0436
 1286ERGO    R317010   9.759   3.049   9.050  0.0510 -0.1114 -0.0608
 1286ERGO    R417011   9.775   3.286   8.877  0.1952 -0.1196 -0.0631
 1286ERGO    R517012   9.608   3.145   8.890  0.1447 -0.0684 -0.1256
 1286ERGO    C117013   9.695   3.112   8.520  0.2861 -0.1061 -0.0905
 1286ERGO    C217014   9.819   3.249   8.173  0.1729  0.1140  0.2073
 1287ERGO   ROH17015  16.881  17.075   5.551  0.2109 -0.1517 -0.0154
 1287ERGO    R117016  17.028  17.084   5.793  0.2965 -0.2166 -0.0643
 1287ERGO    R217017  17.301  17.120   5.800  0.2401  0.2988 -0.1366
 1287ERGO    R317018  17.237  17.325   5.967 -0.0910 -0.0497  0.1846
 1287ERGO    R417019  17.451  17.180   6.106  0.5169  0.3532 -0.2790
 1287ERGO    R517020  17.255  17.231   6.186  0.4736 -0.2642  0.0641
 1287ERGO    C117021  17.478  17.407   6.440  0.3670  0.0578 -0.0603
 1287ERGO    C217022  17.707  17.673   6.562  0.1096  0.3976  0.0371
 1288ERGO   ROH17023  10.288  12.006   8.721  0.3157  0.0124  0.0491
 1288ERGO    R117024  10.200  12.132   8.484  0.3206  0.1692  0.1286
 1288ERGO    R217025  10.374  12.247   8.303  0.3665 -0.1121 -0.0141
 1288ERGO    R317026  10.247  12.084   8.126 -0.0588  0.0976  0.0837
 1288ERGO    R417027  10.432  12.243   7.962  0.1030 -0.2317 -0.0600
 1288ERGO    R517028  10.217  12.220   7.931  0.0323  0.1444  0.1027
 1288ERGO    C117029  10.347  12.087   7.598 -0.4498 -0.1045  0.0052
 1288ERGO    C217030  10.778  12.109   7.546 -0.1228 -0.2874  0.0004
 1289ERGO   ROH17031   0.295  11.137   5.945 -0.1344  0.1328 -0.1324
 1289ERGO    R117032   0.426  11.266   6.160  0.0233  0.2767 -0.3113
 1289ERGO    R217033   0.489  11.535   6.157 -0.3826  0.3773 -0.3565
 1289ERGO    R317034   0.352  11.537   6.391 -0.0169  0.1126 -0.1293
 1289ERGO    R417035   0.544  11.758   6.414 -0.3052  0.4000 -0.3921
 1289ERGO    R517036   0.517  11.594   6.556  0.1679  0.3206 -0.3788
 1289ERGO    C117037   0.447  11.891   6.785  0.0832  0.1647 -0.1995
 1289ERGO    C217038   0.567  12.247   6.963 -0.1467 -0.0561  0.2793
 1290ERGO   ROH17039  16.986  14.176   5.986  0.2385  0.1077  0.0446
 1290ERGO    R117040  16.956  14.115   6.261  0.0437  0.0279  0.0069
 1290ERGO    R217041  17.076  14.265   6.460  0.1211 -0.1884  0.1202
 1290ERGO    R317042  16.822  14.282   6.555  0.0947  0.0585  0.0145
 1290ERGO    R417043  16.989  14.384   6.772  0.0891  0.1558 -0.0160
 1290ERGO    R517044  16.841  14.226   6.787 -0.0192  0.2567  0.0782
 1290ERGO    C117045  16.701  14.471   7.044  0.0456  0.5882 -0.1945
 1290ERGO    C217046  16.689  14.717   7.323  0.0359 -0.0716  0.0277
 1291ERGO   ROH17047   5.658   0.126   8.888  0.0394  0.3231  0.0057
 1291ERGO    R117048   5.597   0.126   8.612  0.0606  0.2945  0.0009
 1291ERGO    R217049   5.720   0.297   8.433  0.1508  0.2034 -0.0246
 1291ERGO    R317050   5.779   0.066   8.302  0.0576  0.1511  0.0257
 1291ERGO    R417051   5.610   0.216   8.115  0.1781  0.2146 -0.0368
 1291ERGO    R517052   5.578   0.012   8.184  0.0535  0.2411 -0.0109
 1291ERGO    C117053   5.600  -0.047   7.808  0.1064  0.1721  0.0034
 1291ERGO    C217054   5.488  -0.046   7.435  0.2133 -0.1730  0.1967
 1292ERGO   ROH17055  17.619  17.197   9.138 -0.0299 -0.1130  0.1060
 1292ERGO    R117056  17.724  17.273   8.886 -0.0401 -0.2110  0.0743
 1292ERGO    R217057  17.752  17.094   8.677 -0.3306 -0.2210  0.0548
 1292ERGO    R317058  17.605  17.279   8.542 -0.1639 -0.0380  0.1156
 1292ERGO    R417059  17.741  17.126   8.333 -0.4414 -0.2421  0.0539
 1292ERGO    R517060  17.744  17.343   8.358 -0.1542 -0.2288  0.0439
 1292ERGO    C117061  17.598  17.319   8.006 -0.3494 -0.0822  0.1104
 1292ERGO    C217062  17.340  17.385   7.757  0.1093  0.0334  0.0690
 1293ERGO   ROH17063  10.255   0.578   6.535 -0.1272 -0.0724  0.0072
 1293ERGO    R117064  10.293   0.548   6.814 -0.0167  0.0611  0.0086
 1293ERGO    R217065  10.198   0.732   6.998 -0.0539  0.0880 -0.0326
 1293ERGO    R317066  10.079   0.513   7.107  0.0986  0.0669  0.0928
 1293ERGO    R417067  10.055   0.721   7.312 -0.1757  0.2073 -0.0828
 1293ERGO    R517068  10.140   0.522   7.338 -0.0067  0.3048  0.1119
 1293ERGO    C117069   9.861   0.509   7.598 -0.1037  0.2570  0.0056
 1293ERGO    C217070   9.641   0.525   7.711 -0.2579  0.4116 -0.0843
 1294ERGO   ROH17071   4.044  14.264   6.118 -0.1561 -0.3944 -0.2378
 1294ERGO    R117072   3.976  14.062   6.304 -0.0986 -0.2827 -0.0912
 1294ERGO    R217073   4.166  13.897   6.419 -0.0668 -0.2686 -0.1066
 1294ERGO    R317074   4.054  13.985   6.651  0.0817 -0.1121 -0.0942
 1294ERGO    R417075   4.185  13.731   6.722 -0.0498 -0.1533 -0.0452
 1294ERGO    R517076   3.976  13.785   6.759  0.0042 -0.0152  0.0196
 1294ERGO    C117077   4.091  13.717   7.116  0.0997  0.0607  0.0021
 1294ERGO    C217078   4.010  13.766   7.505  0.1753 -0.0841  0.1259
 1295ERGO   ROH17079   4.203   8.550   5.271 -0.1709  0.0451  0.0985
 1295ERGO    R117080   4.221   8.576   5.552 -0.0107  0.0676  0.0877
 1295ERGO    R217081   4.018   8.495   5.721  0.0359  0.1873  0.2033
 1295ERGO    R317082   4.217   8.352   5.839  0.0267  0.1003  0.1138
 1295ERGO    R417083   4.042   8.432   6.060  0.1104  0.0983  0.1819
 1295ERGO    R517084   4.257   8.466   6.046  0.1167  0.0386  0.1309
 1295ERGO    C117085   4.242   8.261   6.368  0.1453 -0.0352  0.0854
 1295ERGO    C217086   3.973   8.391   6.634 -0.0600  0.3109  0.2521
 1296ERGO   ROH17087  12.893  14.804   6.097  0.0253 -0.0163  0.1779
 1296ERGO    R117088  12.854  14.657   6.336  0.0098 -0.0251  0.1698
 1296ERGO    R217089  12.645  14.478   6.369 -0.0116 -0.0018  0.1614
 1296ERGO    R317090  12.846  14.306   6.432 -0.0315 -0.0295  0.1498
 1296ERGO    R417091  12.631  14.241   6.620 -0.0519 -0.0452  0.1186
 1296ERGO    R517092  12.837  14.289   6.670 -0.0534 -0.0712  0.1456
 1296ERGO    C117093  12.810  13.941   6.825 -0.0941 -0.0965  0.0828
 1296ERGO    C217094  12.880  13.732   7.099  0.1520 -0.4922 -0.0110
 1297ERGO   ROH17095   8.764   3.291   6.529 -0.0190 -0.0580  0.0986
 1297ERGO    R117096   8.894   3.483   6.692  0.1379 -0.0644 -0.0177
 1297ERGO    R217097   8.807   3.546   6.946  0.1518  0.2054 -0.0790
 1297ERGO    R317098   9.063   3.485   7.014  0.0825  0.0066  0.0120
 1297ERGO    R417099   8.968   3.657   7.231  0.2258  0.3323 -0.1691
 1297ERGO    R517100   9.148   3.686   7.112  0.2760  0.0257 -0.1813
 1297ERGO    C117101   9.302   3.664   7.461  0.2039  0.2196 -0.1362
 1297ERGO    C217102   9.503   3.926   7.697 -0.1302 -0.1723 -0.0023
 1298ERGO   ROH17103   8.878  12.168   6.100 -0.2402 -0.2298  0.3774
 1298ERGO    R117104   8.993  12.343   6.290 -0.0289 -0.0715  0.1124
 1298ERGO    R217105   9.043  12.609   6.236 -0.3092 -0.0554 -0.0889
 1298ERGO    R317106   8.894  12.649   6.460  0.0455 -0.0737  0.1604
 1298ERGO    R417107   9.035  12.902   6.419 -0.1400 -0.0142 -0.1447
 1298ERGO    R517108   9.033  12.783   6.601  0.2254  0.0283 -0.1043
 1298ERGO    C117109   8.890  13.111   6.736  0.2915 -0.0074  0.0568
 1298ERGO    C217110   8.711  13.382   6.870  0.1376 -0.0324 -0.2783
 1299ERGO   ROH17111   1.092  11.105   9.508  0.2483  0.3910 -0.0142
 1299ERGO    R117112   1.294  11.225   9.351  0.1648  0.3626 -0.1425
 1299ERGO    R217113   1.497  11.080   9.232  0.1442  0.3539 -0.1526
 1299ERGO    R317114   1.409  11.203   9.006  0.0428  0.2395 -0.1782
 1299ERGO    R417115   1.681  11.114   8.942  0.0981  0.3711 -0.1811
 1299ERGO    R517116   1.603  11.316   8.922 -0.0242  0.3275 -0.2304
 1299ERGO    C117117   1.707  11.249   8.561 -0.0241  0.2737 -0.2217
 1299ERGO    C217118   1.849  11.198   8.164 -0.0891  0.0343 -0.2339
 1300ERGO   ROH17119  17.901  15.550   9.101 -0.1010 -0.1812 -0.1228
 1300ERGO    R117120  17.963  15.368   8.893 -0.0082 -0.0643 -0.1984
 1300ERGO    R217121  17.783  15.304   8.692  0.0016 -0.1195 -0.1890
 1300ERGO    R317122  17.988  15.380   8.530 -0.0786  0.0828 -0.1992
 1300ERGO    R417123  17.761  15.340   8.349 -0.0332 -0.2063 -0.1962
 1300ERGO    R517124  17.958  15.249   8.332  0.0718  0.0118 -0.1764
 1300ERGO    C117125  17.939  15.431   7.997 -0.1287 -0.0670 -0.2099
 1300ERGO    C217126  17.991  15.471   7.708  0.0359 -0.0016 -0.1283
 1301ERGO   ROH17127  10.385   7.899   9.424  0.0329  0.4267  0.2051
 1301ERGO    R117128  10.373   7.795   9.161  0.1612  0.3661  0.2222
 1301ERGO    R217129  10.190   7.602   9.085  0.3228  0.2085  0.2239
 1301ERGO    R317130  10.128   7.784   8.892  0.2178  0.1250  0.1784
 1301ERGO    R417131  10.041   7.527   8.782  0.3793  0.0440  0.2362
 1301ERGO    R517132  10.173   7.671   8.686  0.2948  0.1030  0.2072
 1301ERGO    C117133   9.895   7.653   8.426  0.3137 -0.1303  0.2008
 1301ERGO    C217134   9.752   7.692   8.132  0.1772  0.3648 -0.0744
 1302ERGO   ROH17135  13.595   2.091   9.082 -0.1542 -0.0141 -0.1597
 1302ERGO    R117136  13.686   2.136   8.818 -0.0640  0.1689 -0.0992
 1302ERGO    R217137  13.525   2.097   8.596  0.1426 -0.1102 -0.2088
 1302ERGO    R317138  13.594   2.354   8.541 -0.2857  0.0272 -0.1382
 1302ERGO    R417139  13.494   2.248   8.287  0.1970 -0.1779 -0.2475
 1302ERGO    R517140  13.686   2.345   8.320 -0.0196  0.1939 -0.0361
 1302ERGO    C117141  13.540   2.578   8.055 -0.1733 -0.0883 -0.2039
 1302ERGO    C217142  13.398   2.624   7.832 -0.1938  0.2596 -0.1453
 1303ERGO   ROH17143  18.706   3.479   7.108  0.4121 -0.0280 -0.0640
 1303ERGO    R117144  18.613   3.737   7.179  0.1801 -0.0914 -0.1302
 1303ERGO    R217145  18.783   3.943   7.248 -0.0103  0.0402 -0.0442
 1303ERGO    R317146  18.650   4.076   7.051  0.0015 -0.0698 -0.1274
 1303ERGO    R417147  18.796   4.285   7.196 -0.0809  0.0234 -0.1775
 1303ERGO    R517148  18.582   4.282   7.154 -0.0708 -0.0446 -0.2244
 1303ERGO    C117149  18.679   4.608   6.982 -0.1109 -0.0897 -0.3333
 1303ERGO    C217150  18.975   4.746   6.994  0.1071 -0.1197  0.1083
 1304ERGO   ROH17151   3.498  12.487   6.059  0.1855 -0.3824  0.3578
 1304ERGO    R117152   3.484  12.710   6.234  0.1082 -0.2318  0.1639
 1304ERGO    R217153   3.268  12.754   6.402  0.0874 -0.1534  0.1185
 1304ERGO    R317154   3.460  12.762   6.593  0.0790  0.0753  0.1193
 1304ERGO    R417155   3.233  12.907   6.710 -0.0497 -0.0888  0.0716
 1304ERGO    R517156   3.438  12.980   6.691 -0.1133  0.0861  0.0528
 1304ERGO    C117157   3.394  13.003   7.069 -0.1373  0.1634  0.0450
 1304ERGO    C217158   3.328  13.202   7.388 -0.0950 -0.1548  0.1986
 1305ERGO   ROH17159   5.946  18.066   5.548 -0.0305 -0.1153 -0.1105
 1305ERGO    R117160   5.846  17.959   5.790 -0.2302  0.0626 -0.1106
 1305ERGO    R217161   5.593  17.850   5.810 -0.1277 -0.2494 -0.3348
 1305ERGO    R317162   5.728  17.635   5.907  0.0382  0.0499  0.1278
 1305ERGO    R417163   5.457  17.608   6.017 -0.0582 -0.1538 -0.1768
 1305ERGO    R517164   5.644  17.607   6.130 -0.1968  0.2398  0.0612
 1305ERGO    C117165   5.506  17.266   6.228  0.1380  0.1831  0.3493
 1305ERGO    C217166   5.294  17.029   6.164 -0.0153 -0.1160  0.0849
 1306ERGO   ROH17167  13.430   9.633   5.620 -0.0313 -0.1837 -0.0950
 1306ERGO    R117168  13.490   9.453   5.831 -0.0745  0.0064  0.0833
 1306ERGO    R217169  13.729   9.316   5.846 -0.1830 -0.1885  0.1054
 1306ERGO    R317170  13.739   9.427   6.094  0.0509  0.0973 -0.0262
 1306ERGO    R417171  13.914   9.192   6.111 -0.1171 -0.0118  0.1434
 1306ERGO    R517172  13.747   9.240   6.243 -0.0001  0.2671  0.1921
 1306ERGO    C117173  14.031   9.224   6.498  0.1409  0.3593  0.0420
 1306ERGO    C217174  14.265   8.971   6.817  0.1058 -0.1223  0.1765
 1307ERGO   ROH17175   6.804   8.734   8.939 -0.1804 -0.0065  0.0893
 1307ERGO    R117176   6.771   8.660   8.668  0.1609  0.0192  0.0365
 1307ERGO    R217177   6.580   8.775   8.505 -0.0412 -0.3814 -0.0210
 1307ERGO    R317178   6.794   8.825   8.344 -0.0572  0.2212  0.1209
 1307ERGO    R417179   6.563   8.826   8.163  0.0247 -0.1649  0.0061
 1307ERGO    R517180   6.745   8.707   8.141  0.3120  0.2537  0.0049
 1307ERGO    C117181   6.754   8.902   7.814  0.0481  0.5269  0.1550
 1307ERGO    C217182   6.771   9.080   7.406  0.1411  0.1418  0.0968
 1308ERGO   ROH17183  17.008   0.924   5.491  0.3547 -0.0186  0.2804
 1308ERGO    R117184  17.077   1.098   5.704  0.1924  0.0440  0.2839
 1308ERGO    R217185  17.014   1.368   5.702  0.0106  0.0061  0.2523
 1308ERGO    R317186  16.898   1.309   5.940 -0.0028 -0.0586  0.2291
 1308ERGO    R417187  16.949   1.597   5.952 -0.0319 -0.0591  0.3001
 1308ERGO    R517188  17.011   1.448   6.098 -0.0305 -0.0852  0.2700
 1308ERGO    C117189  16.801   1.675   6.322 -0.0690 -0.1578  0.3062
 1308ERGO    C217190  16.577   1.585   6.524 -0.1286 -0.1923 -0.3271
 1309ERGO   ROH17191  15.035  10.598   9.418  0.1915 -0.1002 -0.1657
 1309ERGO    R117192  14.981  10.553   9.144 -0.0240 -0.1711 -0.1137
 1309ERGO    R217193  14.730  10.486   9.050 -0.1682  0.1043  0.0670
 1309ERGO    R317194  14.768  10.701   8.889  0.0177 -0.0232 -0.0646
 1309ERGO    R417195  14.511  10.588   8.803 -0.1481  0.2173  0.0947
 1309ERGO    R517196  14.683  10.632   8.676 -0.1422 -0.0462  0.0039
 1309ERGO    C117197  14.419  10.850   8.508  0.0383  0.1634 -0.0126
 1309ERGO    C217198  14.254  11.055   8.337  0.1979  0.0779  0.2092
 1310ERGO   ROH17199   1.122   1.640   5.562 -0.1730  0.2668  0.0847
 1310ERGO    R117200   1.122   1.536   5.825 -0.0964  0.1919  0.0564
 1310ERGO    R217201   1.335   1.395   5.930 -0.1437 -0.0181 -0.1134
 1310ERGO    R317202   1.320   1.581   6.127  0.1313 -0.0562 -0.0529
 1310ERGO    R417203   1.395   1.332   6.264 -0.1818 -0.1967 -0.1395
 1310ERGO    R517204   1.226   1.462   6.313 -0.0021  0.0134 -0.0778
 1310ERGO    C117205   1.415   1.470   6.645  0.0542 -0.3363 -0.0979
 1310ERGO    C217206   1.467   1.429   7.019  0.2266 -0.1299 -0.0030
 1311ERGO   ROH17207   9.619   7.282   9.052  0.0454  0.1720  0.0731
 1311ERGO    R117208   9.665   7.144   8.809  0.4201  0.1395  0.1579
 1311ERGO    R217209   9.528   7.203   8.576  0.1636 -0.4434  0.1489
 1311ERGO    R317210   9.778   7.230   8.474  0.0761  0.2763  0.0718
 1311ERGO    R417211   9.603   7.215   8.239  0.0462 -0.5216  0.1182
 1311ERGO    R517212   9.778   7.091   8.279  0.4779  0.0713  0.2050
 1311ERGO    C117213   9.882   7.248   7.946 -0.1045  0.1084  0.0279
 1311ERGO    C217214  10.129   7.391   7.772  0.2422 -0.2690 -0.3572
 1312ERGO   ROH17215  12.610   4.339   5.934  0.0277  0.2297 -0.0074
 1312ERGO    R117216  12.638   4.196   6.177  0.1437  0.1113 -0.0883
 1312ERGO    R217217  12.884   4.152   6.297  0.1716  0.3459 -0.0528
 1312ERGO    R317218  12.762   4.266   6.511 -0.0309  0.0619 -0.0122
 1312ERGO    R417219  12.985   4.115   6.625 -0.0603  0.0135 -0.0154
 1312ERGO    R517220  12.776   4.100   6.683 -0.1009 -0.1284 -0.1864
 1312ERGO    C117221  12.929   4.199   7.018 -0.3853 -0.4466  0.0443
 1312ERGO    C217222  12.855   4.210   7.400 -0.1542  0.2411 -0.1212
 1313ERGO   ROH17223   1.833   2.048   9.029  0.1169  0.0015 -0.1639
 1313ERGO    R117224   1.678   2.145   8.813  0.0829 -0.0300 -0.1545
 1313ERGO    R217225   1.790   2.247   8.582  0.0476 -0.0459 -0.1819
 1313ERGO    R317226   1.632   2.062   8.462  0.0442 -0.0697 -0.1396
 1313ERGO    R417227   1.713   2.242   8.245 -0.1930  0.0476 -0.1295
 1313ERGO    R517228   1.509   2.186   8.298 -0.1294 -0.0630 -0.0048
 1313ERGO    C117229   1.519   2.065   7.936 -0.3362  0.0798 -0.0593
 1313ERGO    C217230   1.378   2.102   7.679  0.1449 -0.0617  0.1004
 1314ERGO   ROH17231   2.266  16.569   6.619  0.1319 -0.1406 -0.0432
 1314ERGO    R117232   2.083  16.410   6.766 -0.0555 -0.0891 -0.2184
 1314ERGO    R217233   1.931  16.511   6.973  0.2056 -0.1727  0.0116
 1314ERGO    R317234   1.725  16.409   6.828 -0.0389  0.3836 -0.0614
 1314ERGO    R417235   1.618  16.439   7.101  0.3841 -0.5356  0.2611
 1314ERGO    R517236   1.617  16.257   6.979  0.1653 -0.1376 -0.4008
 1314ERGO    C117237   1.242  16.301   7.040  0.2585 -0.2250  0.3378
 1314ERGO    C217238   1.037  16.403   7.266  0.1307  0.1028 -0.0118
 1315ERGO   ROH17239  15.662   2.767   9.036  0.1148 -0.3385 -0.0907
 1315ERGO    R117240  15.678   2.729   8.756  0.2286 -0.3103 -0.0884
 1315ERGO    R217241  15.591   2.918   8.575 -0.0229 -0.4354 -0.1024
 1315ERGO    R317242  15.843   2.893   8.476  0.0399 -0.0537 -0.0524
 1315ERGO    R417243  15.671   2.909   8.239  0.0638 -0.2795 -0.0866
 1315ERGO    R517244  15.817   2.753   8.283  0.2862 -0.0721 -0.0745
 1315ERGO    C117245  15.954   2.881   7.950  0.1733  0.1696 -0.0306
 1315ERGO    C217246  15.753   2.921   7.676  0.0148 -0.0403 -0.0951
 1316ERGO   ROH17247   1.734   3.949   5.649 -0.0082 -0.0180 -0.1304
 1316ERGO    R117248   1.791   4.139   5.851 -0.0259 -0.0574 -0.0898
 1316ERGO    R217249   1.611   4.201   6.052 -0.0219 -0.1351 -0.0661
 1316ERGO    R317250   1.819   4.137   6.214 -0.0013 -0.1377 -0.0913
 1316ERGO    R417251   1.672   4.345   6.360  0.0500 -0.0960 -0.0971
 1316ERGO    R517252   1.884   4.346   6.312  0.0431 -0.1303 -0.1339
 1316ERGO    C117253   1.903   4.368   6.692  0.1113 -0.0756 -0.1387
 1316ERGO    C217254   1.852   4.306   6.981 -0.0986 -0.1002  0.0478
 1317ERGO   ROH17255   7.224   4.343   6.062  0.0982 -0.0290  0.0109
 1317ERGO    R117256   7.245   4.137   6.255  0.0375 -0.0540 -0.0080
 1317ERGO    R217257   7.269   4.188   6.526  0.2170 -0.0824 -0.0146
 1317ERGO    R317258   7.053   4.023   6.543  0.0957  0.0856  0.0865
 1317ERGO    R417259   7.207   3.970   6.787  0.3949 -0.3347 -0.1798
 1317ERGO    R517260   7.139   3.823   6.641  0.0645 -0.1080 -0.2666
 1317ERGO    C117261   6.968   3.688   6.954  0.3846 -0.3239 -0.1811
 1317ERGO    C217262   6.651   3.514   6.983  0.1190 -0.3207 -0.4044
 1318ERGO   ROH17263   1.816  18.941   8.842  0.0196 -0.1367 -0.0417
 1318ERGO    R117264   1.835  19.013   8.569  0.0599 -0.0534 -0.0177
 1318ERGO    R217265   2.055  19.141   8.464  0.1084 -0.0881  0.0379
 1318ERGO    R317266   2.053  18.932   8.289  0.0532 -0.0314 -0.0289
 1318ERGO    R417267   2.098  19.169   8.122  0.0841  0.0120  0.0432
 1318ERGO    R517268   1.942  19.019   8.095  0.0536  0.0510  0.0084
 1318ERGO    C117269   2.120  18.991   7.759  0.0182  0.1231 -0.0164
 1318ERGO    C217270   2.197  19.019   7.476  0.0215  0.0967 -0.0473
 1319ERGO   ROH17271   3.654   0.561   5.241  0.0060  0.2105  0.2075
 1319ERGO    R117272   3.647   0.652   5.509 -0.1484  0.1237  0.2343
 1319ERGO    R217273   3.411   0.695   5.646 -0.2278 -0.3552  0.2634
 1319ERGO    R317274   3.523   0.528   5.828  0.0993 -0.2034  0.2084
 1319ERGO    R417275   3.450   0.766   5.982 -0.3039 -0.3599  0.2736
 1319ERGO    R517276   3.647   0.672   5.973 -0.1319 -0.0131  0.2222
 1319ERGO    C117277   3.579   0.650   6.348 -0.0412 -0.2202  0.2278
 1319ERGO    C217278   3.588   0.758   6.686 -0.0873  0.1041 -0.3036
 1320ERGO   ROH17279   7.214  15.208   5.861  0.2158 -0.1695 -0.0078
 1320ERGO    R117280   7.075  15.174   6.104  0.0806 -0.0215 -0.0632
 1320ERGO    R217281   7.147  14.984   6.292 -0.1137 -0.0059  0.0247
 1320ERGO    R317282   7.152  15.198   6.459 -0.0764  0.0379 -0.0309
 1320ERGO    R417283   7.061  14.976   6.626 -0.0781  0.0800  0.0369
 1320ERGO    R517284   6.961  15.168   6.601 -0.0669  0.0857 -0.0021
 1320ERGO    C117285   7.015  15.171   6.978 -0.0224  0.1711 -0.0082
 1320ERGO    C217286   6.905  15.253   7.407 -0.3821 -0.2560 -0.0142
 1321ERGO   ROH17287   6.091   7.963   9.070  0.0435 -0.1636  0.0597
 1321ERGO    R117288   6.090   7.887   8.797  0.0375 -0.1287  0.0496
 1321ERGO    R217289   5.869   7.920   8.634  0.0196 -0.1430  0.0673
 1321ERGO    R317290   6.045   8.053   8.476 -0.0112 -0.0934  0.0754
 1321ERGO    R417291   5.841   7.955   8.292 -0.0548 -0.0114  0.0866
 1321ERGO    R517292   6.055   7.924   8.275 -0.0628 -0.0159  0.0248
 1321ERGO    C117293   5.990   8.101   7.944 -0.1270  0.1120  0.1055
 1321ERGO    C217294   6.169   8.262   7.683  0.1588  0.5706 -0.0471
 1322ERGO   ROH17295  17.703   4.176   5.461  0.0121  0.2329  0.0756
 1322ERGO    R117296  17.545   4.031   5.646  0.1239  0.0701  0.0461
 1322ERGO    R217297  17.639   3.951   5.893  0.1317  0.2505  0.1036
 1322ERGO    R317298  17.419   4.082   5.983 -0.0770 -0.0095 -0.0154
 1322ERGO    R417299  17.489   3.896   6.199  0.1474  0.2103  0.1041
 1322ERGO    R517300  17.295   3.914   6.102  0.1366 -0.1218  0.0535
 1322ERGO    C117301  17.195   3.987   6.463 -0.0392 -0.0572 -0.0074
 1322ERGO    C217302  17.071   3.939   6.751  0.1218 -0.3540  0.0042
 1323ERGO   ROH17303  11.573   0.152   9.825  0.0601  0.1679 -0.1240
 1323ERGO    R117304  11.622  -0.033   9.616  0.0921  0.1025 -0.0597
 1323ERGO    R217305  11.420  -0.139   9.460  0.0928 -0.0904  0.0598
 1323ERGO    R317306  11.573  -0.045   9.256 -0.0377 -0.0861 -0.0359
 1323ERGO    R417307  11.450  -0.289   9.150  0.1765 -0.2727  0.1551
 1323ERGO    R517308  11.663  -0.241   9.153  0.1294 -0.0688  0.0809
 1323ERGO    C117309  11.611  -0.288   8.778  0.1027 -0.3746  0.1206
 1323ERGO    C217310  11.606  -0.483   8.480  0.0302 -0.0361  0.2497
 1324ERGO   ROH17311   1.147   6.121   8.899  0.1645  0.2953  0.1149
 1324ERGO    R117312   1.262   6.274   8.691 -0.0594  0.4333  0.0882
 1324ERGO    R217313   1.348   6.161   8.454  0.2326  0.4927  0.1576
 1324ERGO    R317314   1.184   6.347   8.343 -0.0985  0.1391  0.0333
 1324ERGO    R417315   1.411   6.331   8.159 -0.0304  0.4795  0.0922
 1324ERGO    R517316   1.332   6.511   8.252 -0.3882  0.3795 -0.0122
 1324ERGO    C117317   1.293   6.605   7.884 -0.4943  0.1399 -0.0626
 1324ERGO    C217318   1.308   6.710   7.586 -0.0683  0.0181  0.2920
 1325ERGO   ROH17319  10.491  18.184   9.114 -0.4466  0.2384  0.0474
 1325ERGO    R117320  10.574  18.164   8.844 -0.2590  0.2369  0.1034
 1325ERGO    R217321  10.547  17.933   8.696  0.1441  0.1319  0.1797
 1325ERGO    R317322  10.416  18.096   8.523  0.0193 -0.1146  0.0355
 1325ERGO    R417323  10.556  17.904   8.351  0.2415 -0.0964  0.1993
 1325ERGO    R517324  10.567  18.122   8.339  0.0316 -0.0940  0.0506
 1325ERGO    C117325  10.439  18.042   7.989  0.1810 -0.4607  0.0753
 1325ERGO    C217326  10.399  18.011   7.684  0.0549  0.3808 -0.0631
 1326ERGO   ROH17327  15.306  13.485   9.040  0.1612 -0.0875 -0.0417
 1326ERGO    R117328  15.382  13.507   8.768 -0.0545 -0.0602 -0.1019
 1326ERGO    R217329  15.592  13.363   8.661  0.0347  0.1521 -0.2156
 1326ERGO    R317330  15.404  13.285   8.481 -0.0066 -0.1013 -0.0669
 1326ERGO    R417331  15.627  13.381   8.317 -0.2510  0.1835 -0.2454
 1326ERGO    R517332  15.420  13.445   8.304 -0.3504 -0.0849 -0.0899
 1326ERGO    C117333  15.470  13.317   7.949 -0.4561 -0.0360 -0.1234
 1326ERGO    C217334  15.383  13.315   7.673 -0.0518  0.0788  0.2929
 1327ERGO   ROH17335  12.460  18.080   6.188  0.1167 -0.1458 -0.0135
 1327ERGO    R117336  12.422  18.302   6.359  0.0355 -0.0736 -0.1287
 1327ERGO    R217337  12.217  18.485   6.324 -0.2142 -0.3554 -0.0400
 1327ERGO    R317338  12.161  18.422   6.582  0.1297 -0.2261  0.0763
 1327ERGO    R417339  12.068  18.697   6.552 -0.3942 -0.3779 -0.1301
 1327ERGO    R517340  12.205  18.623   6.704 -0.1048 -0.0043 -0.1615
 1327ERGO    C117341  11.929  18.762   6.928 -0.1761 -0.2700 -0.0733
 1327ERGO    C217342  11.907  18.903   7.231  0.0475  0.1283 -0.0676
 1328ERGO   ROH17343   6.436  13.346   5.867  0.0814 -0.0044 -0.1299
 1328ERGO    R117344   6.411  13.310   6.147 -0.1103  0.0006 -0.1455
 1328ERGO    R217345   6.630  13.291   6.315 -0.2181 -0.2767 -0.0312
 1328ERGO    R317346   6.505  13.494   6.446 -0.0469 -0.1357 -0.0806
 1328ERGO    R417347   6.698  13.388   6.639 -0.3351 -0.4490  0.0468
 1328ERGO    R517348   6.485  13.415   6.671 -0.3289 -0.1659 -0.1129
 1328ERGO    C117349   6.621  13.634   6.952 -0.2426 -0.4169  0.0459
 1328ERGO    C217350   6.505  13.887   7.223 -0.1962  0.0054  0.2905
 1329ERGO   ROH17351   3.708  14.741   9.239 -0.1407 -0.1137 -0.0438
 1329ERGO    R117352   3.632  14.595   9.008 -0.0882 -0.0621 -0.0947
 1329ERGO    R217353   3.646  14.701   8.753  0.1121 -0.0549 -0.0854
 1329ERGO    R317354   3.794  14.479   8.703  0.0247 -0.1304 -0.0084
 1329ERGO    R417355   3.685  14.556   8.442  0.2126 -0.0692 -0.0657
 1329ERGO    R517356   3.669  14.360   8.537  0.0582 -0.0617 -0.0803
 1329ERGO    C117357   3.847  14.262   8.214  0.1890 -0.1485  0.0180
 1329ERGO    C217358   3.919  14.101   7.951  0.3070  0.2095 -0.0615
 1330ERGO   ROH17359   8.482  13.124   9.276 -0.2520  0.1930  0.2882
 1330ERGO    R117360   8.336  13.105   9.035 -0.0968  0.0854  0.2002
 1330ERGO    R217361   8.231  13.327   8.907 -0.1065  0.0186  0.0896
 1330ERGO    R317362   8.370  13.229   8.695  0.0642  0.0292  0.1950
 1330ERGO    R417363   8.110  13.308   8.583  0.0995 -0.0956  0.0180
 1330ERGO    R517364   8.206  13.113   8.564  0.1895 -0.0624  0.1168
 1330ERGO    C117365   8.171  13.206   8.196  0.3797 -0.1519  0.0755
 1330ERGO    C217366   8.004  13.207   7.958 -0.1444  0.1943 -0.0409
 1331ERGO   ROH17367  19.060  18.031   5.613  0.1661  0.1279  0.3510
 1331ERGO    R117368  19.079  17.904   5.865 -0.0498 -0.0227  0.2932
 1331ERGO    R217369  18.863  17.880   6.036 -0.2115 -0.1832  0.0667
 1331ERGO    R317370  18.927  17.616   6.028 -0.1388 -0.1642 -0.0290
 1331ERGO    R417371  18.874  17.671   6.311 -0.0916 -0.2577  0.0070
 1331ERGO    R517372  19.054  17.579   6.228 -0.0802 -0.1845 -0.0649
 1331ERGO    C117373  18.940  17.301   6.463  0.0463 -0.2832 -0.1177
 1331ERGO    C217374  18.949  17.228   6.812  0.1245 -0.0412  0.0131
 1332ERGO   ROH17375  14.049   4.827   5.548  0.1094 -0.1200 -0.1009
 1332ERGO    R117376  14.260   4.749   5.720  0.0381 -0.1629 -0.0314
 1332ERGO    R217377  14.388   4.927   5.889  0.0848 -0.1661 -0.0603
 1332ERGO    R317378  14.321   4.743   6.079 -0.0414 -0.0759 -0.0165
 1332ERGO    R417379  14.539   4.899   6.199  0.0856 -0.2167 -0.0654
 1332ERGO    R517380  14.530   4.682   6.178 -0.0812 -0.2148 -0.0187
 1332ERGO    C117381  14.564   4.711   6.557 -0.0325 -0.1616 -0.0274
 1332ERGO    C217382  14.663   4.863   6.955 -0.0682 -0.1341 -0.0327
 1333ERGO   ROH17383  16.480   9.565   5.425  0.2091  0.3430  0.0899
 1333ERGO    R117384  16.360   9.598   5.679  0.2049  0.2038  0.1066
 1333ERGO    R217385  16.208   9.400   5.799  0.0794  0.1905 -0.0699
 1333ERGO    R317386  16.382   9.437   6.005  0.0833 -0.0782 -0.0210
 1333ERGO    R417387  16.117   9.422   6.132  0.0282  0.2576 -0.0881
 1333ERGO    R517388  16.264   9.581   6.156  0.2404  0.0575 -0.0258
 1333ERGO    C117389  16.227   9.469   6.519  0.0018  0.0444 -0.0527
 1333ERGO    C217390  16.141   9.439   6.844 -0.1349  0.0067 -0.0917
 1334ERGO   ROH17391  11.942  11.697   8.959 -0.0468 -0.2105  0.0634
 1334ERGO    R117392  11.815  11.597   8.726 -0.1170  0.1493 -0.0618
 1334ERGO    R217393  11.852  11.709   8.477  0.2351  0.2184  0.0098
 1334ERGO    R317394  11.921  11.455   8.408 -0.2056  0.1142 -0.0739
 1334ERGO    R417395  11.950  11.610   8.160  0.4138  0.2243  0.0630
 1334ERGO    R517396  11.833  11.427   8.187  0.0012  0.4431 -0.1994
 1334ERGO    C117397  12.072  11.314   7.912  0.1040  0.1297  0.0153
 1334ERGO    C217398  12.085  11.331   7.503 -0.0996  0.0202 -0.2495
 1335ERGO   ROH17399  15.998  10.587   5.705 -0.1140 -0.0395 -0.0417
 1335ERGO    R117400  15.926  10.408   5.912 -0.0054  0.0271  0.0550
 1335ERGO    R217401  16.020  10.434   6.171 -0.1190  0.2977  0.0725
 1335ERGO    R317402  15.755  10.429   6.232 -0.1381  0.0752 -0.0186
 1335ERGO    R417403  15.891  10.401   6.490 -0.2055  0.0942  0.0184
 1335ERGO    R517404  15.738  10.270   6.410 -0.0781  0.0029 -0.0778
 1335ERGO    C117405  15.568  10.378   6.733 -0.2739 -0.2332 -0.0986
 1335ERGO    C217406  15.590  10.567   7.116 -0.0069 -0.0003 -0.2426
 1336ERGO   ROH17407   7.571  13.109   6.115 -0.4690 -0.1561 -0.1236
 1336ERGO    R117408   7.704  13.003   6.341 -0.2845  0.0010 -0.1570
 1336ERGO    R217409   7.697  13.125   6.589 -0.3163  0.0246 -0.1706
 1336ERGO    R317410   7.610  12.881   6.671 -0.0490 -0.0529 -0.1076
 1336ERGO    R417411   7.705  13.012   6.916 -0.2152  0.1285 -0.1361
 1336ERGO    R517412   7.766  12.817   6.841  0.0126  0.1719 -0.0743
 1336ERGO    C117413   7.628  12.717   7.183  0.0947  0.1162 -0.0569
 1336ERGO    C217414   7.663  12.574   7.444 -0.4792  0.2409 -0.3524
 1337ERGO   ROH17415  13.861   1.519   5.656  0.1531  0.0126 -0.3605
 1337ERGO    R117416  13.921   1.672   5.887 -0.0366  0.1326 -0.3864
 1337ERGO    R217417  14.111   1.592   6.072 -0.4392  0.0359  0.0098
 1337ERGO    R317418  14.214   1.839   6.023 -0.0364 -0.1364 -0.0474
 1337ERGO    R417419  14.287   1.782   6.301 -0.4572 -0.0367  0.0830
 1337ERGO    R517420  14.182   1.959   6.228 -0.1251  0.0580 -0.1755
 1337ERGO    C117421  14.486   2.124   6.389 -0.0894 -0.2408  0.0721
 1337ERGO    C217422  14.801   2.360   6.208 -0.0329  0.2416 -0.1669
 1338ERGO   ROH17423  18.298   8.690   5.932 -0.2276 -0.2397  0.0278
 1338ERGO    R117424  18.431   8.775   6.167 -0.1986 -0.0833 -0.0434
 1338ERGO    R217425  18.348   8.994   6.315 -0.3280 -0.1296 -0.0421
 1338ERGO    R317426  18.348   8.814   6.519 -0.0815 -0.1005 -0.0139
 1338ERGO    R417427  18.256   9.065   6.640 -0.5078 -0.2247 -0.0714
 1338ERGO    R517428  18.421   8.940   6.709 -0.3198  0.0484 -0.0188
 1338ERGO    C117429  18.202   8.937   7.021 -0.3811 -0.2530 -0.0622
 1338ERGO    C217430  18.096   8.874   7.328  0.2136 -0.0256 -0.0319
 1339ERGO   ROH17431  15.564   1.782   9.111 -0.0856  0.1787  0.0442
 1339ERGO    R117432  15.410   1.756   8.875 -0.0362 -0.0119  0.0305
 1339ERGO    R217433  15.309   1.974   8.739 -0.2963 -0.1324  0.0213
 1339ERGO    R317434  15.439   1.862   8.528 -0.1363  0.0257  0.0338
 1339ERGO    R417435  15.172   1.929   8.426 -0.0244  0.1960 -0.1515
 1339ERGO    R517436  15.270   1.734   8.416 -0.0736  0.1758 -0.2410
 1339ERGO    C117437  15.213   1.797   8.045  0.2841  0.5356 -0.2404
 1339ERGO    C217438  14.970   1.821   7.719 -0.1152  0.0785  0.0072
 1340ERGO   ROH17439   0.352  14.498   5.738  0.2192  0.3177  0.1290
 1340ERGO    R117440   0.429  14.438   6.004  0.0854  0.1915  0.1400
 1340ERGO    R217441   0.297  14.543   6.224 -0.1048 -0.0126  0.1268
 1340ERGO    R317442   0.275  14.282   6.294 -0.0149 -0.0704 -0.0501
 1340ERGO    R417443   0.283  14.428   6.549 -0.3865 -0.2097  0.0481
 1340ERGO    R517444   0.411  14.261   6.490 -0.2134 -0.0934  0.0891
 1340ERGO    C117445   0.253  14.115   6.805 -0.4661 -0.3786 -0.1638
 1340ERGO    C217446   0.082  13.990   7.159  0.0033  0.0874 -0.0783
 1341ERGO   ROH17447   7.145  11.671   9.494 -0.3196 -0.2502 -0.0014
 1341ERGO    R117448   7.191  11.834   9.268 -0.1335 -0.1859  0.0816
 1341ERGO    R217449   7.266  11.732   9.022 -0.1001 -0.1319  0.0714
 1341ERGO    R317450   7.050  11.871   8.934  0.0170  0.0343  0.0390
 1341ERGO    R417451   7.254  11.914   8.729  0.1343  0.0065  0.1445
 1341ERGO    R517452   7.142  12.068   8.835  0.1779  0.0269  0.1655
 1341ERGO    C117453   7.044  12.151   8.476  0.3808  0.2432  0.1566
 1341ERGO    C217454   6.873  12.302   8.357  0.4079 -0.0377 -0.0094
 1342ERGO   ROH17455  16.162   3.206   5.629  0.1884 -0.1633  0.2363
 1342ERGO    R117456  16.048   3.136   5.879  0.3131 -0.1273  0.3024
 1342ERGO    R217457  16.183   3.168   6.118  0.2314  0.4243  0.2774
 1342ERGO    R317458  15.961   3.308   6.187 -0.0797  0.0390  0.1083
 1342ERGO    R417459  16.044   3.175   6.435  0.2189  0.4700  0.2722
 1342ERGO    R517460  15.847   3.167   6.343  0.2185 -0.0522  0.2645
 1342ERGO    C117461  15.754   3.311   6.683 -0.0805  0.1349  0.1105
 1342ERGO    C217462  15.625   3.432   6.975 -0.1506 -0.2015  0.4039
 1343ERGO   ROH17463   6.514   7.465   6.009 -0.1502 -0.0032 -0.0525
 1343ERGO    R117464   6.549   7.354   6.267 -0.2792 -0.1510 -0.0968
 1343ERGO    R217465   6.518   7.084   6.317  0.1482 -0.2646 -0.3628
 1343ERGO    R317466   6.768   7.108   6.421 -0.0172  0.1221 -0.0276
 1343ERGO    R417467   6.645   6.888   6.572  0.2191 -0.2731 -0.4050
 1343ERGO    R517468   6.739   7.066   6.656 -0.2289 -0.1683 -0.1034
 1343ERGO    C117469   6.954   6.796   6.818  0.1052  0.0851 -0.1149
 1343ERGO    C217470   7.029   6.558   6.981  0.1186 -0.0985 -0.2856
 1344ERGO   ROH17471   2.463  11.897   9.761 -0.1030  0.2062  0.0459
 1344ERGO    R117472   2.245  11.848   9.588 -0.0321  0.0775 -0.0076
 1344ERGO    R217473   2.193  12.004   9.366 -0.1283  0.1096  0.0391
 1344ERGO    R317474   2.200  11.766   9.236  0.0979  0.1587 -0.0442
 1344ERGO    R417475   2.099  11.955   9.037  0.0527  0.1602 -0.0219
 1344ERGO    R517476   2.006  11.768   9.097  0.1567  0.0711 -0.1303
 1344ERGO    C117477   2.051  11.702   8.724  0.3705  0.2358 -0.1356
 1344ERGO    C217478   1.947  11.662   8.395 -0.0801  0.2016  0.1946
 1345W        W17479   6.449  15.481  12.796  0.0080  0.4828 -0.1154
 1346W        W17480   4.488  10.618   0.143 -0.2753  0.2707 -0.0345
 1347W        W17481   4.589   1.653  13.434 -0.3710  0.0627  0.0209
 1348W        W17482   1.826   4.578   2.890  0.1883 -0.3461  0.3205
 1349W        W17483   8.506   6.100   0.773  0.1476  0.1143 -0.2763
 1350W        W17484  17.977  18.037   4.162 -0.0936 -0.1955  0.2505
 1351W        W17485   3.341   9.283   4.261 -0.0498  0.1264  0.0092
 1352W        W17486   8.779   0.003   2.639 -0.3491 -0.1592 -0.0308
 1353W        W17487  14.263  16.208  11.102  0.2217  0.0145  0.3972
 1354W        W17488  11.500  17.401  10.937 -0.1157 -0.1557  0.1451
 1355W        W17489   4.127  17.985  10.597  0.4917 -0.2952 -0.0341
 1356W        W17490  13.553  17.702  10.790  0.0925 -0.0536  0.0094
 1357W        W17491   1.260   4.841   3.983  0.3569 -0.3092  0.3083
 1358W        W17492  11.535   0.245  11.212  0.0792  0.1853 -0.2283
 1359W        W17493   4.956  16.984  13.733 -0.0464  0.0730  0.0845
 1360W        W17494  10.193  13.425   4.443  0.1045 -0.0688 -0.3724
 1361W        W17495  14.078  14.881  14.909  0.1286  0.0648  0.3119
 1362W        W17496   3.103  10.264   1.624  0.2185  0.0181 -0.2412
 1363W        W17497  15.190  15.769  13.962  0.3222  0.1353 -0.0474
 1364W        W17498   1.222   9.763  13.403 -0.1752  0.1396  0.2635
 1365W        W17499  17.503   2.329  11.213  0.2535 -0.2427 -0.1126
 1366W        W17500   8.234  11.486   2.116 -0.1773  0.3155 -0.2601
 1367W        W17501   4.927   8.951   2.392  0.0839 -0.4591  0.2566
 1368W        W17502   1.851   9.411   2.787  0.0049 -0.2796  0.1326
 1369W        W17503  17.777  17.474  10.916  0.0387  0.0001  0.1307
 1370W        W17504  13.293  11.511   5.634  0.0930 -0.0779  0.4085
 1371W        W17505   8.112   5.905   3.064  0.0384  0.1268 -0.0095
 1372W        W17506   5.930  13.103  13.113  0.1498  0.0635 -0.3289
 1373W        W17507  13.581  17.858   0.888 -0.2934  0.1261 -0.2249
 1374W        W17508  14.382  11.820  10.947 -0.3579 -0.0084 -0.1903
 1375W        W17509   0.966   1.521  13.996 -0.0638 -0.2561 -0.0950
 1376W        W17510  11.389   8.522   2.898 -0.0759  0.0540  0.1683
 1377W        W17511   0.361  14.361  10.426  0.0127  0.1438  0.1440
 1378W        W17512  13.715   9.341   1.155  0.1040 -0.0300 -0.0007
 1379W        W17513   0.698  16.567  10.122  0.0743  0.1467  0.0353
 1380W        W17514  10.229   0.481   4.133  0.0333 -0.1269 -0.1920
 1381W        W17515  12.111   7.063   4.598 -0.1139  0.0519  0.1766
 1382W        W17516  18.610   5.863  13.748  0.1173  0.3601  0.0908
 1383W        W17517  19.019  11.576   1.580  0.1042  0.4193 -0.3163
 1384W        W17518   7.094   3.021   2.946  0.1876  0.0505  0.1244
 1385W        W17519   2.080  18.815   0.244 -0.0128  0.0003 -0.0797
 1386W        W17520   3.583  18.529  14.066  0.0311  0.1431 -0.0082
 1387W        W17521  16.707   0.638  12.611 -0.1862  0.3186 -0.0958
 1388W        W17522   0.771   1.770  13.592  0.0843 -0.2979 -0.1593
 1389W        W17523   8.354   0.437  12.147  0.2708 -0.1087  0.2598
 1390W        W17524  12.642  12.266   0.477  0.0608 -0.1644  0.1034
 1391W        W17525   3.402  10.176   5.369 -0.0161 -0.0136 -0.1843
 1392W        W17526  19.019  14.810   2.749 -0.1444 -0.0301 -0.3469
 1393W        W17527   6.163  18.118  12.507  0.0795  0.1685  0.4522
 1394W        W17528  18.539   3.196   1.588  0.0423  0.0143  0.0730
 1395W        W17529   9.828   1.707   3.139  0.0756  0.3120  0.0433
 1396W        W17530   7.720  16.194   3.694 -0.0305  0.0220 -0.1435
 1397W        W17531   7.286   5.761  13.736  0.3777 -0.0507  0.2666
 1398W        W17532  13.914   6.087  12.960 -0.1096 -0.1129  0.2693
 1399W        W17533  18.850   2.010   3.594  0.1079 -0.0422 -0.0577
 1400W        W17534   8.286  17.786  12.554  0.0252 -0.1914 -0.0322
 1401W        W17535   6.422  10.322  13.748 -0.1085  0.1843 -0.1728
 1402W        W17536   0.349  11.782  12.644 -0.0540 -0.1336 -0.0998
 1403W        W17537  12.441   0.919  11.556  0.2449 -0.1677  0.0367
 1404W        W17538  17.860   5.750  14.184 -0.0752  0.0631 -0.2115
 1405W        W17539   4.375   7.474   2.569  0.1808  0.2509  0.1108
 1406W        W17540  18.925   9.403   4.218 -0.0425  0.2844 -0.0787
 1407W        W17541  17.522  15.367   5.446  0.2437  0.2123 -0.0334
 1408W        W17542  16.280   0.923   3.290  0.2087  0.0233 -0.0895
 1409W        W17543   2.204  17.759   4.663 -0.1693  0.1883 -0.2374
 1410W        W17544   4.662  14.398   2.342 -0.1327  0.2297 -0.2740
 1411W        W17545  16.603  12.264   0.639 -0.0375  0.2248  0.0491
 1412W        W17546  18.172   1.892  11.773  0.1755 -0.1280 -0.5163
 1413W        W17547  16.879  18.829   9.706  0.1603 -0.0903  0.1968
 1414W        W17548  15.522   9.594   4.452  0.4015  0.3372 -0.0332
 1415W        W17549  11.583  12.834  10.749  0.0559 -0.1873  0.0672
 1416W        W17550   5.045   4.337   1.834  0.2547  0.3111  0.4766
 1417W        W17551  14.013  14.057   3.176 -0.0526  0.1290  0.1346
 1418W        W17552   8.328   7.527   2.390  0.0845 -0.2227  0.1862
 1419W        W17553   0.458  16.256   2.499 -0.2674 -0.2530 -0.3067
 1420W        W17554  13.895   3.420   4.969 -0.3156  0.2228  0.1467
 1421W        W17555  13.237   5.759  12.226 -0.1241  0.1226 -0.3354
 1422W        W17556  12.246   9.088  13.027  0.3448  0.2669  0.0076
 1423W        W17557   9.092  12.174  10.586  0.1399 -0.2412 -0.0831
 1424W        W17558  18.544   6.342   3.727 -0.0908  0.1506  0.4131
 1425W        W17559   6.878   6.123  13.645  0.0273 -0.0616  0.3491
 1426W        W17560   2.753   4.602  13.694  0.0007  0.2129 -0.2754
 1427W        W17561  13.144   8.745   3.652 -0.0193  0.0601  0.1715
 1428W        W17562  17.469  14.104   1.307 -0.0451  0.3189 -0.4388
 1429W        W17563  13.012  19.280   3.767 -0.1025  0.2344 -0.1315
 1430W        W17564  17.409   0.939  14.525  0.1353 -0.0218 -0.1280
 1431W        W17565   4.406  13.819   2.171 -0.2370 -0.1626 -0.2212
 1432W        W17566   9.113   2.138   2.756 -0.2291  0.0343  0.3003
 1433W        W17567  16.526   3.654   2.856 -0.1099 -0.0680  0.2375
 1434W        W17568  15.901   0.977   4.283  0.1726 -0.1588 -0.0583
 1435W        W17569   8.319  10.683  12.553  0.2545 -0.0653  0.0228
 1436W        W17570   4.607   1.139   0.991 -0.0584  0.1480  0.2088
 1437W        W17571  10.724  14.501  13.381 -0.1284  0.0263  0.0504
 1438W        W17572   8.804  11.024   1.335  0.0092 -0.1715  0.2014
 1439W        W17573  12.866  11.367  11.501 -0.2477  0.0060  0.1682
 1440W        W17574   0.279  12.073   2.507 -0.1986  0.0708 -0.3070
 1441W        W17575   0.994   1.319  12.750 -0.0796  0.3254 -0.0837
 1442W        W17576  16.011  15.904   4.093 -0.1504  0.0132  0.4607
 1443W        W17577  13.817  16.349   5.625  0.1257  0.0327  0.2477
 1444W        W17578   1.162  12.475  10.750  0.0042  0.3134  0.0055
 1445W        W17579  16.486   8.601  14.356 -0.0862  0.1568 -0.1004
 1446W        W17580  12.104   5.542  10.264  0.0201 -0.0605 -0.1864
 1447W        W17581  16.506  10.562   1.124 -0.0038 -0.0209  0.0008
 1448W        W17582   3.922   6.630   1.121 -0.0841 -0.1843  0.1420
 1449W        W17583   9.542  17.453   1.244 -0.0960 -0.0418 -0.1378
 1450W        W17584  13.824  13.953   0.084 -0.0198  0.0295 -0.1393
 1451W        W17585   8.883   4.401  14.361  0.1547  0.3753  0.3287
 1452W        W17586   2.979  11.269  13.935 -0.1933 -0.2056 -0.2687
 1453W        W17587   7.490   1.653  14.334  0.1545 -0.3402 -0.1376
 1454W        W17588  10.332   5.988  12.561 -0.3336 -0.1753  0.2586
 1455W        W17589  12.552   7.775  14.490 -0.2088  0.0342  0.1230
 1456W        W17590   5.755   2.371  10.281 -0.2056 -0.1342  0.0114
 1457W        W17591  13.177   1.581  10.716 -0.1417  0.2077 -0.0861
 1458W        W17592  11.579   8.758  11.086  0.1599  0.0152  0.1729
 1459W        W17593  10.163  11.626  11.699 -0.3508  0.1334 -0.0003
 1460W        W17594   0.213  16.811  13.389  0.2854  0.2271  0.0057
 1461W        W17595   1.862  12.548   2.781 -0.1710  0.0192  0.0385
 1462W        W17596  17.902   0.558   4.757  0.2935 -0.2286 -0.0812
 1463W        W17597   5.938  18.016  14.841  0.3048  0.1231  0.2893
 1464W        W17598  18.546   1.803   1.361 -0.1489  0.3817  0.0688
 1465W        W17599   6.732  16.926  12.451  0.2230  0.2932  0.2001
 1466W        W17600   5.185  15.680  12.127  0.1780 -0.1783 -0.2095
 1467W        W17601  10.403  10.399  14.696 -0.1971 -0.0355 -0.0444
 1468W        W17602   7.799   2.303  13.373  0.2483 -0.1438  0.4157
 1469W        W17603  14.506  15.735  14.599 -0.0378  0.1613  0.0989
 1470W        W17604  11.243   4.494  12.065 -0.0447 -0.3259 -0.3793
 1471W        W17605  11.242   8.378  14.406  0.1250  0.1856 -0.0627
 1472W        W17606   1.932  16.282  10.942 -0.2006 -0.2598  0.0622
 1473W        W17607   0.524   4.715  11.743  0.2733  0.1430  0.0317
 1474W        W17608  13.481   4.410   2.216  0.1162 -0.0420  0.4333
 1475W        W17609  16.035   3.819  11.181 -0.1214 -0.1255 -0.2606
 1476W        W17610  16.349   1.961  10.906 -0.3939 -0.0661 -0.3446
 1477W        W17611  14.885   2.991  11.091 -0.0401  0.0759  0.1326
 1478W        W17612   5.680  16.525   3.646  0.2061  0.1151  0.0346
 1479W        W17613   9.248   8.413  12.499 -0.1644  0.1243  0.0706
 1480W        W17614  15.640   0.021   0.811 -0.3115  0.2237 -0.0708
 1481W        W17615   1.554   0.495  12.530  0.1318  0.1648  0.2254
 1482W        W17616   4.631  14.258   4.545  0.0172  0.2589 -0.1358
 1483W        W17617  18.423  10.968  10.978  0.1671  0.3336 -0.3090
 1484W        W17618  14.788   6.238   2.975  0.2306  0.0983  0.0138
 1485W        W17619  10.401  17.006   4.376 -0.1047 -0.1375  0.0771
 1486W        W17620  13.185   3.449   1.864  0.2075  0.1007  0.1275
 1487W        W17621  12.847   4.009  11.053 -0.2605 -0.0636 -0.0028
 1488W        W17622   9.844   4.549  14.803 -0.2284 -0.1385 -0.4106
 1489W        W17623  12.629   5.986   4.496  0.0812 -0.0439 -0.1842
 1490W        W17624  13.023   3.226   3.039 -0.1161 -0.0786  0.2799
 1491W        W17625  18.296   9.106   4.299  0.3194  0.2941 -0.1547
 1492W        W17626  11.178   9.228   0.712  0.2660 -0.2275  0.1153
 1493W        W17627  12.649   0.084   2.580 -0.0980  0.4337  0.1123
 1494W        W17628  16.518  11.189  12.368 -0.0425 -0.0382  0.1082
 1495W        W17629   5.253   0.594  11.551  0.2653 -0.0202  0.1778
 1496W        W17630   5.973   1.199  14.964 -0.1751 -0.0483  0.1435
 1497W        W17631   7.300   5.264   2.939 -0.0030 -0.1424 -0.2158
 1498W        W17632  16.183   8.881  14.100  0.0708 -0.0735  0.2319
 1499W        W17633  16.422  17.095   5.407 -0.0857 -0.1173  0.1002
 1500W        W17634   5.668  11.464  13.854  0.3473  0.2386 -0.2304
 1501W        W17635   8.407   2.613   3.141  0.1470  0.1888 -0.0364
 1502W        W17636   3.875   3.644   5.028  0.0294 -0.1160  0.0129
 1503W        W17637  15.313   2.710  11.291 -0.0473 -0.0386  0.1101
 1504W        W17638   7.498  10.469   9.501  0.2617  0.5292 -0.0078
 1505W        W17639   8.201   8.320   2.280 -0.0846  0.1458  0.4315
 1506W        W17640  16.612   0.039   3.084  0.0058  0.1536 -0.1799
 1507W        W17641  16.144  14.376   2.760  0.0071 -0.0286  0.0717
 1508W        W17642   7.495   3.432  13.235 -0.0225  0.0357 -0.0937
 1509W        W17643  13.884  12.449  13.839  0.0674 -0.2027 -0.2331
 1510W        W17644  19.013   5.631   4.176  0.0197  0.3660  0.1777
 1511W        W17645  18.319  14.898   4.064 -0.0618  0.1590  0.1494
 1512W        W17646   2.846  18.235  12.580 -0.1364 -0.3114  0.1978
 1513W        W17647   5.071  18.688   2.604 -0.0353  0.2074 -0.1210
 1514W        W17648   0.623   6.194   1.122 -0.2113  0.3835  0.0331
 1515W        W17649   5.182   9.048  11.862  0.1139  0.2356  0.1128
 1516W        W17650  14.835   6.284  13.003  0.1388  0.5053  0.2645
 1517W        W17651  12.279  16.885  12.704 -0.1901 -0.1916  0.0224
 1518W        W17652  16.049   5.665   0.178  0.0261  0.1337  0.0851
 1519W        W17653   1.658   9.212   0.916  0.2377  0.1780  0.0289
 1520W        W17654  12.445   9.440   3.484 -0.0397  0.2849  0.1140
 1521W        W17655  19.085   8.751  10.547  0.1130 -0.0476  0.1486
 1522W        W17656   7.292  12.633   2.403  0.0569 -0.1905 -0.0268
 1523W        W17657  15.911  18.384   2.728 -0.0668  0.2278 -0.0022
 1524W        W17658   8.473   5.371   2.058  0.0483  0.3126 -0.1466
 1525W        W17659   5.035  17.701   0.592 -0.3006  0.1508 -0.3025
 1526W        W17660  14.970  14.444  12.077  0.2001  0.0757  0.2482
 1527W        W17661   6.833   0.074   0.409  0.0641 -0.2073 -0.4666
 1528W        W17662  10.033  13.555   2.449  0.1585  0.2110 -0.1925
 1529W        W17663   0.619  12.288   4.887 -0.0980  0.0391  0.0591
 1530W        W17664   1.378  10.654   3.839  0.1870 -0.2457  0.4123
 1531W        W17665  15.199   0.559   0.985 -0.2827 -0.3102 -0.0863
 1532W        W17666  16.423  16.246  14.662 -0.2737  0.3563  0.0989
 1533W        W17667  11.662   2.048   9.783  0.2072 -0.0541 -0.2777
 1534W        W17668   8.249  11.481   4.490 -0.0295  0.3312  0.0843
 1535W        W17669  18.745  18.648  14.239 -0.0774  0.0919 -0.2721
 1536W        W17670  10.802   7.072   3.146  0.0908  0.2121 -0.2278
 1537W        W17671   6.268   5.292   2.653  0.0510 -0.0016  0.0594
 1538W        W17672  12.733  13.489   3.757 -0.2330  0.1036  0.0219
 1539W        W17673   2.360  19.140   3.550  0.0211  0.1043 -0.1922
 1540W        W17674   2.308  14.652   2.223  0.1520  0.2859 -0.3182
 1541W        W17675   5.860   3.041   2.109  0.3399  0.1130 -0.2006
 1542W        W17676   8.175  16.184   2.727  0.2374  0.3168  0.1076
 1543W        W17677   9.277   6.259   3.313 -0.0369  0.2868  0.1294
 1544W        W17678   3.433   4.160   1.321  0.1370  0.2040 -0.0046
 1545W        W17679  14.785  15.751   1.831  0.1504 -0.1002  0.0813
 1546W        W17680  14.021  14.036  11.591  0.3454 -0.1444  0.0190
 1547W        W17681   4.182   4.859   2.387  0.1260  0.1374 -0.3337
 1548W        W17682  12.641  14.584  11.081  0.0895 -0.3947  0.1322
 1549W        W17683   6.774  16.889   0.226  0.0411 -0.1102 -0.0415
 1550W        W17684  15.316  10.575  11.832  0.1273 -0.2312  0.2050
 1551W        W17685   8.643   9.529  10.430  0.0914 -0.0754  0.1033
 1552W        W17686  18.107  15.229   2.246 -0.1887  0.1436  0.0751
 1553W        W17687   2.015  17.509   2.388  0.1783  0.0122  0.1333
 1554W        W17688   9.372   6.007  13.775 -0.2859 -0.0267 -0.0548
 1555W        W17689  12.854   4.010  11.586 -0.0515  0.0361 -0.1060
 1556W        W17690   6.747   3.346  14.618  0.2057  0.3349  0.1454
 1557W        W17691   2.200   8.873   3.860  0.0390  0.2470  0.0031
 1558W        W17692   8.919  13.452  10.898  0.0900 -0.1982  0.0236
 1559W        W17693  18.699  16.245  10.148  0.0299  0.2817 -0.0075
 1560W        W17694  13.851  11.645   3.339  0.1342 -0.0562 -0.0328
 1561W        W17695   8.159  13.524   1.977 -0.0035 -0.2442  0.2882
 1562W        W17696  15.617   1.840   5.295 -0.0754  0.0771 -0.0925
 1563W        W17697  13.367  18.987   5.081 -0.1368 -0.0796  0.2380
 1564W        W17698   1.707   4.840  14.883 -0.0921  0.1775 -0.2091
 1565W        W17699   7.650   9.943  10.861 -0.1349 -0.0619  0.0598
 1566W        W17700   8.259   7.704   5.671 -0.1510  0.1147  0.2997
 1567W        W17701   3.419  12.377   1.448 -0.2750  0.2400  0.2954
 1568W        W17702   3.825   6.677   2.104  0.1909  0.0544 -0.2182
 1569W        W17703  18.409   3.404  10.707  0.1916 -0.1284  0.0165
 1570W        W17704   5.573  18.944   4.700 -0.0973 -0.0603 -0.1781
 1571W        W17705  18.665  15.437  10.936 -0.1613 -0.2258  0.0124
 1572W        W17706  13.238   7.644   0.587 -0.0987 -0.0189  0.2333
 1573W        W17707   7.498  14.441  12.703 -0.1517 -0.2960  0.1207
 1574W        W17708   6.445  16.018   5.202  0.0810 -0.0769 -0.1616
 1575W        W17709   3.446   6.695  11.994  0.3208 -0.0358 -0.2094
 1576W        W17710   9.708   2.212  13.021 -0.1913 -0.0058  0.1960
 1577W        W17711   0.280  11.656   1.637 -0.0810 -0.1321 -0.2142
 1578W        W17712  15.613  17.915  11.893 -0.0323  0.0522  0.0192
 1579W        W17713  12.213  15.798  10.630  0.0638  0.0520  0.3775
 1580W        W17714  18.959  13.835  12.614 -0.1946  0.0961 -0.2529
 1581W        W17715   1.532   2.763  11.192  0.0668 -0.0668  0.2334
 1582W        W17716   1.477  11.331  12.609  0.3354 -0.0088  0.0538
 1583W        W17717  11.323  18.606   4.571 -0.3412 -0.0798  0.2498
 1584W        W17718   2.586   5.312   3.660 -0.0017  0.1423 -0.2456
 1585W        W17719   6.679   3.598  10.441  0.0561 -0.4103  0.1984
 1586W        W17720   1.647   1.982  11.166 -0.1816 -0.2834  0.0579
 1587W        W17721   5.033  14.111  14.791  0.2319 -0.4426  0.0688
 1588W        W17722  14.505  10.289  11.323  0.3302  0.0183  0.1511
 1589W        W17723  17.025   1.173   4.628 -0.0819  0.1131 -0.1675
 1590W        W17724  11.126   3.177  11.645  0.0913 -0.1354 -0.0029
 1591W        W17725   2.559   6.180   2.767  0.1588  0.1523  0.2860
 1592W        W17726   3.719  12.615   2.718 -0.0182 -0.0434 -0.2274
 1593W        W17727  15.205  12.189   2.676  0.2772 -0.1376 -0.3849
 1594W        W17728  11.560  18.102  11.412 -0.3109  0.0878  0.2474
 1595W        W17729  15.295   6.645  10.594 -0.1615 -0.0644 -0.0169
 1596W        W17730  17.399   7.427   3.399 -0.1832 -0.0809  0.1722
 1597W        W17731  16.517   2.029  10.279  0.1749 -0.0001 -0.2131
 1598W        W17732  12.538   5.665  10.567  0.2297 -0.4184  0.0933
 1599W        W17733   8.932   2.014  12.970  0.0686  0.0489 -0.1245
 1600W        W17734   3.620   8.954   1.139 -0.1844 -0.0557 -0.0122
 1601W        W17735   5.668  12.658  14.055 -0.0280 -0.1077 -0.0490
 1602W        W17736  14.011  14.650   9.989 -0.2422  0.0396 -0.0686
 1603W        W17737  18.238  18.803   0.890 -0.2553 -0.1937  0.1504
 1604W        W17738  17.099  14.262   3.516  0.0919 -0.0406  0.1160
 1605W        W17739   7.196   6.863  10.726 -0.1363 -0.2356  0.3909
 1606W        W17740  18.622   3.228  12.260  0.3874  0.2660  0.2381
 1607W        W17741  16.307   2.026   0.261 -0.0921 -0.0895  0.0799
 1608W        W17742   7.909  18.832  13.248  0.0045 -0.0490  0.0932
 1609W        W17743  10.265   6.558  13.387  0.0101 -0.5491  0.1436
 1610W        W17744  14.156   0.502  10.333 -0.3577 -0.1596  0.5137
 1611W        W17745  16.243  13.378   0.803  0.3496  0.0364  0.0885
 1612W        W17746   4.403  14.593   0.287 -0.1378  0.1475  0.0530
 1613W        W17747   9.779   8.150  12.921  0.1821  0.0567 -0.1712
 1614W        W17748   2.031   9.837  13.152  0.3489  0.1448  0.0896
 1615W        W17749   4.388   0.964  11.216  0.0915 -0.2640  0.1830
 1616W        W17750   4.790  18.196   1.356  0.0277  0.2819  0.4155
 1617W        W17751   5.359  10.396   1.342 -0.1616 -0.1545 -0.2368
 1618W        W17752  17.534  16.384   1.929 -0.0503 -0.2686 -0.1326
 1619W        W17753  10.281   2.584  14.237 -0.1743 -0.4500  0.2088
 1620W        W17754  12.875   6.636  10.331 -0.2147  0.0922 -0.1585
 1621W        W17755   3.099  14.289  10.899  0.0378  0.1194 -0.2309
 1622W        W17756  12.918   8.241  11.220  0.2614 -0.1824  0.0187
 1623W        W17757  15.468  17.620   0.223  0.2370  0.0533  0.0797
 1624W        W17758   2.057   0.529  12.736  0.0812  0.2008 -0.3065
 1625W        W17759  14.387   0.970   2.290 -0.0687  0.1131 -0.0048
 1626W        W17760  17.427  18.574  12.424 -0.0109 -0.2271  0.0591
 1627W        W17761  14.307  13.521  13.981 -0.1134  0.3188 -0.0873
 1628W        W17762  19.226   2.238   4.242 -0.0337 -0.2080 -0.2008
 1629W        W17763  11.595   3.352  13.758  0.1335  0.0125 -0.3586
 1630W        W17764  11.975  10.244  12.140 -0.1981  0.0943 -0.3031
 1631W        W17765   9.985  13.835   9.446  0.1317  0.2423  0.3235
 1632W        W17766   7.170  10.338   1.589  0.4203  0.3154  0.2556
 1633W        W17767   9.635  17.712  10.193 -0.1271 -0.0192 -0.1703
 1634W        W17768  11.179   6.706   4.031  0.1740 -0.3443 -0.0974
 1635W        W17769  16.117   5.719   2.226  0.0825 -0.0806  0.2137
 1636W        W17770   2.625   6.946   3.101 -0.0851  0.0090  0.0042
 1637W        W17771   9.480  19.263  13.341 -0.3182 -0.0364  0.1364
 1638W        W17772  15.370   3.126   1.494 -0.0513  0.1535  0.3229
 1639W        W17773   5.080   6.643   5.339  0.1897 -0.0474  0.1538
 1640W        W17774   9.557   8.698  12.800 -0.1619 -0.1771 -0.0220
 1641W        W17775  16.839  15.946   9.614 -0.1985 -0.1473 -0.0781
 1642W        W17776  12.556  17.626  14.629  0.0658 -0.0519  0.3372
 1643W        W17777  13.563   5.635   0.738  0.1444  0.0758 -0.1314
 1644W        W17778  11.795  10.790  10.099  0.2898  0.3546 -0.0177
 1645W        W17779   8.202  16.161   5.188 -0.0746 -0.1823  0.0611
 1646W        W17780   7.559  12.338  10.526 -0.0634  0.1597  0.3440
 1647W        W17781   5.313   3.263   1.288 -0.1187  0.1067  0.0130
 1648W        W17782  10.865  11.342   0.268  0.0555 -0.0980  0.0026
 1649W        W17783   3.079   3.668  12.895  0.0177 -0.1374  0.1720
 1650W        W17784   3.266   1.393   1.157  0.0582 -0.1523 -0.2147
 1651W        W17785   5.866   8.333  13.069 -0.1052  0.2031 -0.0012
 1652W        W17786   3.733   0.464  11.083 -0.1925 -0.2290  0.0567
 1653W        W17787   0.334   9.014   2.959 -0.1695  0.1402  0.2158
 1654W        W17788   1.579   6.635  13.442 -0.2445 -0.0952  0.0872
 1655W        W17789   9.966   3.632   2.923 -0.0133 -0.0605  0.3014
 1656W        W17790  10.267  11.508   3.677  0.3689 -0.0940 -0.1422
 1657W        W17791  18.460  18.464   5.048  0.0987 -0.1306 -0.0151
 1658W        W17792  14.227   3.810  14.733 -0.3331  0.1679  0.1589
 1659W        W17793   1.977   4.402  10.312  0.3783 -0.0432 -0.1036
 1660W        W17794  16.660   0.211  12.307  0.1156 -0.0308 -0.0814
 1661W        W17795  16.540  14.431  14.059  0.3262 -0.1284 -0.2873
 1662W        W17796  17.799  15.240  13.161  0.3089 -0.1604  0.2102
 1663W        W17797   3.634  12.178  10.957 -0.3299 -0.6641  0.0167
 1664W        W17798   6.153  12.056   2.054  0.2762  0.1930  0.3435
 1665W        W17799  10.501  16.602   0.985 -0.0879 -0.0471  0.1100
 1666W        W17800  14.912   2.691  10.550  0.3637 -0.0691  0.4759
 1667W        W17801  13.944   7.523   2.511  0.0664 -0.0335 -0.1118
 1668W        W17802   5.707   4.964   4.120 -0.1300  0.2212 -0.2264
 1669W        W17803   4.186  17.747  12.718 -0.4817  0.0491 -0.0394
 1670W        W17804  12.386   8.051   2.857  0.1483  0.0774 -0.0486
 1671W        W17805   5.311  11.445   0.045 -0.3008  0.0321  0.1930
 1672W        W17806  14.224  19.172   1.209 -0.0995 -0.1698 -0.1844
 1673W        W17807  18.634   6.724   0.822 -0.3108  0.2229  0.0962
 1674W        W17808   4.536  17.730   0.319 -0.2756  0.2330  0.1555
 1675W        W17809  18.918  17.951   3.283 -0.4951  0.1005  0.0543
 1676W        W17810   1.202  17.436   3.892  0.3630  0.2326  0.3183
 1677W        W17811  15.604  17.858   2.440  0.3068  0.1314  0.1626
 1678W        W17812  13.122   0.342  12.989 -0.1159  0.0606 -0.2775
 1679W        W17813   9.516  15.489  14.274 -0.0750 -0.0206  0.1384
 1680W        W17814  10.004   6.838  12.139  0.1009 -0.3519  0.1702
 1681W        W17815   1.917  17.195  14.879  0.0028  0.2581  0.2286
 1682W        W17816  11.642   8.504   1.429  0.2414  0.1034  0.1679
 1683W        W17817  15.582  15.666  14.592  0.1009 -0.0662 -0.0536
 1684W        W17818   5.240   1.211  10.514  0.1647  0.2695  0.1473
 1685W        W17819  16.280   7.276  10.858 -0.0796 -0.0945 -0.1603
 1686W        W17820  10.172   4.514   2.435  0.3435 -0.2023 -0.2169
 1687W        W17821   1.264  16.074   3.758  0.4387 -0.2822 -0.2101
 1688W        W17822   7.257   6.506  13.025  0.1721 -0.2098 -0.1383
 1689W        W17823   6.867   8.439   2.486 -0.1737  0.0801 -0.0916
 1690W        W17824  18.844   6.682  14.574  0.1296 -0.2210  0.0708
 1691W        W17825   2.408  16.897  13.279 -0.1837  0.1837  0.0828
 1692W        W17826  10.539  17.115  11.158 -0.0755  0.3136 -0.0322
 1693W        W17827  12.889   2.652  11.743 -0.2323 -0.2430  0.3698
 1694W        W17828  16.107   6.080   3.790  0.0364 -0.0664 -0.1939
 1695W        W17829   6.014   9.534  13.707  0.0255  0.0298  0.3255
 1696W        W17830   1.369   5.929   2.231  0.1238 -0.1327 -0.1764
 1697W        W17831   2.619  13.321   2.789 -0.3912 -0.1561  0.2253
 1698W        W17832   5.725   1.682  12.145  0.1038  0.0917 -0.0053
 1699W        W17833   3.898  19.304   2.247  0.1925 -0.0891  0.0331
 1700W        W17834   0.226   1.871   5.287 -0.0896  0.0561  0.4053
 1701W        W17835   3.028   4.425  13.308 -0.3332 -0.0636 -0.1479
 1702W        W17836  10.719   7.980   4.072 -0.1833 -0.1906 -0.0791
 1703W        W17837   4.195  17.226  11.960 -0.4806 -0.0700  0.3599
 1704W        W17838  13.456  14.621  13.393 -0.1209 -0.3489 -0.3205
 1705W        W17839   7.594   6.974   2.483 -0.3649  0.0952  0.2943
 1706W        W17840   9.606  13.587   2.126 -0.2809 -0.0722  0.3204
 1707W        W17841  12.727  11.351  10.499 -0.2544  0.1660  0.1730
 1708W        W17842  13.027   5.732  10.447  0.1895 -0.2300 -0.1961
 1709W        W17843   0.585  13.845   1.640 -0.0229 -0.2097  0.0433
 1710W        W17844   8.993  17.883  11.526  0.2405  0.1335  0.0073
 1711W        W17845  15.543  13.421   4.449  0.1562  0.4129  0.0831
 1712W        W17846  12.214   8.521   4.529  0.4106 -0.1254  0.0451
 1713W        W17847   0.197   9.731  10.790 -0.0530  0.2457 -0.0002
 1714W        W17848   7.961  14.666   3.218  0.1627 -0.0599  0.3178
 1715W        W17849  18.993   2.430  14.488  0.3629 -0.0333 -0.0656
 1716W        W17850   7.723   7.146   0.238  0.0214 -0.1838  0.1672
 1717W        W17851  10.215  19.063  11.737  0.0807 -0.0582 -0.2430
 1718W        W17852   1.261  14.651   9.971 -0.1553  0.0669  0.1233
 1719W        W17853  15.608  19.325   4.470  0.1394 -0.0417 -0.0829
 1720W        W17854  12.304  15.048   4.877 -0.4111  0.0953  0.1875
 1721W        W17855   3.868  18.392   1.177 -0.0886 -0.3027 -0.3529
 1722W        W17856  13.760   9.001   0.771  0.0914 -0.0647 -0.0377
 1723W        W17857   1.507   5.665   4.399  0.0006  0.0843  0.0301
 1724W        W17858   2.123   3.185   3.284  0.0571  0.1140 -0.1582
 1725W        W17859  15.020  16.733   4.590  0.2012 -0.1810  0.1685
 1726W        W17860   2.502  15.107  14.059  0.1095  0.1315  0.0497
 1727W        W17861  19.043  15.779   3.391 -0.0806  0.0441  0.1130
 1728W        W17862  14.147  16.879   3.063 -0.1609 -0.0937  0.0648
 1729W        W17863  13.479   0.563   0.707  0.1692  0.0977 -0.0588
 1730W        W17864   0.197  10.233   3.920 -0.1580  0.1045  0.1610
 1731W        W17865  14.134  15.188   3.148  0.1896 -0.3998 -0.0885
 1732W        W17866  15.029  10.131   2.005 -0.2306  0.0945 -0.1616
 1733W        W17867   7.685  15.281   2.366 -0.3190  0.0609  0.0859
 1734W        W17868   3.424   9.945   1.886  0.1919  0.0192 -0.0513
 1735W        W17869  18.172   6.089   2.879 -0.0613 -0.2735  0.4478
 1736W        W17870  18.499  15.062   3.411 -0.0906  0.2643  0.0310
 1737W        W17871  18.657  17.906   1.965  0.0060 -0.1197 -0.2748
 1738W        W17872   1.393  14.183   0.839 -0.0660 -0.1387  0.3421
 1739W        W17873   8.711   0.026  12.253 -0.0381 -0.0934 -0.2125
 1740W        W17874   0.670  15.512  10.353 -0.1907 -0.1058 -0.0029
 1741W        W17875  17.811   8.399   0.218  0.1084 -0.0346 -0.0010
 1742W        W17876  12.085  18.423   4.976  0.3743  0.1197 -0.1301
 1743W        W17877   3.134  19.002  12.879 -0.2280 -0.0741  0.2287
 1744W        W17878   8.888   3.728  15.004 -0.1266  0.3602 -0.2182
 1745W        W17879   0.205   7.387  10.201  0.0163  0.0618  0.4567
 1746W        W17880   0.869  15.434   2.482 -0.3076 -0.1416  0.0455
 1747W        W17881   3.723  17.169  11.654  0.2657  0.2750 -0.1361
 1748W        W17882   1.884   6.458  10.994 -0.0653 -0.0149  0.1908
 1749W        W17883  17.005   6.499  11.933 -0.0134  0.0073  0.0812
 1750W        W17884   2.627   9.832   4.937 -0.1185  0.2953  0.3791
 1751W        W17885  13.505   0.344  14.664  0.0041  0.2195 -0.1068
 1752W        W17886  13.026   2.224   1.776  0.2033  0.1573  0.0869
 1753W        W17887   2.231   2.591  12.625 -0.0293  0.2801 -0.2205
 1754W        W17888   0.853   6.989  13.124 -0.1002 -0.1554 -0.0204
 1755W        W17889  11.007  13.674  10.704 -0.0475 -0.0081 -0.1205
 1756W        W17890  18.296  10.905   0.567 -0.0187 -0.1249 -0.4789
 1757W        W17891   0.452  18.209  14.775  0.0734  0.2476 -0.1025
 1758W        W17892  14.931  16.872   0.154  0.1356 -0.0837  0.1238
 1759W        W17893   5.874   5.395  13.561  0.3242  0.2427  0.0081
 1760W        W17894   0.201  12.889   2.792 -0.0320 -0.0620  0.2633
 1761W        W17895   7.347  11.675  13.899  0.2767  0.1067 -0.0431
 1762W        W17896   8.573   1.117  14.633  0.1929  0.2514 -0.0490
 1763W        W17897   6.718  16.320   2.499  0.0120  0.2328  0.3091
 1764W        W17898  16.258  12.417  11.394  0.0962 -0.2881 -0.1499
 1765W        W17899  14.896   9.588   3.199 -0.0657 -0.0013 -0.2355
 1766W        W17900  13.155  16.747   2.912  0.2313 -0.3586  0.0675
 1767W        W17901  16.610  14.085   2.836 -0.0744 -0.0274  0.2109
 1768W        W17902  11.401   5.445   9.643 -0.0588 -0.1469 -0.0710
 1769W        W17903  15.571  17.294  13.767 -0.1016  0.0624 -0.1763
 1770W        W17904   6.288  18.883  11.831  0.0976  0.3299  0.0240
 1771W        W17905  17.243  10.118  11.374 -0.1707  0.0409  0.0905
 1772W        W17906  18.771   6.159   2.939 -0.0555 -0.1449 -0.0096
 1773W        W17907   1.352   7.073  13.064  0.2116 -0.0039  0.1101
 1774W        W17908  17.337  13.066  14.712  0.1545 -0.1954  0.1685
 1775W        W17909  16.728  13.925  13.845 -0.1184  0.0860 -0.0693
 1776W        W17910  14.502   8.362  11.441 -0.1350 -0.0457 -0.4711
 1777W        W17911   2.156  16.627  10.676 -0.2378  0.1697 -0.4637
 1778W        W17912   1.256  12.029  10.414  0.1741  0.2916 -0.1994
 1779W        W17913  13.224   2.833   2.711 -0.0531 -0.0791 -0.1242
 1780W        W17914   4.406  10.116  11.460  0.0646  0.1198  0.2032
 1781W        W17915  18.257  15.209  12.987  0.2858  0.2164 -0.0347
 1782W        W17916   6.419  14.826  14.269 -0.1071 -0.2892  0.1773
 1783W        W17917   7.912   2.532  11.517 -0.0199  0.1152 -0.0094
 1784W        W17918   9.097  12.327  14.115  0.2749  0.0318 -0.1723
 1785W        W17919  17.958  11.114  11.003 -0.0195 -0.0269 -0.1089
 1786W        W17920   0.769  15.965   3.449 -0.1672  0.3020 -0.0087
 1787W        W17921   6.249  18.845   2.255 -0.1724 -0.2274  0.2846
 1788W        W17922  11.730   7.223   2.803  0.0431 -0.0131 -0.2045
 1789W        W17923  16.724   7.693   1.970 -0.0744 -0.1573 -0.1733
 1790W        W17924   4.240   4.374  11.998  0.3003  0.1354 -0.0552
 1791W        W17925  15.090   5.143  14.691  0.1060  0.2291 -0.1166
 1792W        W17926   0.915  14.724   1.769  0.0002  0.2552  0.0315
 1793W        W17927  16.460  10.406  13.643 -0.0551 -0.0399 -0.0790
 1794W        W17928   1.310   7.082   4.533 -0.1682 -0.0857 -0.0774
 1795W        W17929  16.165  14.666   5.593 -0.3499 -0.0619 -0.1482
 1796W        W17930  13.595   2.472   1.983 -0.0911  0.0338  0.1452
 1797W        W17931  16.221   6.375  14.119 -0.4822  0.1262  0.0808
 1798W        W17932  17.960   6.153   1.849  0.0216  0.0109 -0.2143
 1799W        W17933  11.317   3.567   4.169  0.2480  0.0514 -0.3443
 1800W        W17934  12.731   1.640  12.087 -0.0304 -0.0395 -0.1987
 1801W        W17935   5.461  14.442  11.526 -0.2369 -0.0642  0.2775
 1802W        W17936  16.339  10.352   1.566  0.1288 -0.1543  0.0963
 1803W        W17937   5.897   3.092   5.030  0.3540  0.2061 -0.2452
 1804W        W17938  13.566   6.953   1.262  0.2389 -0.1121  0.3274
 1805W        W17939   5.384  19.060   2.058 -0.3176  0.0614  0.0568
 1806W        W17940  10.072  17.364   4.232 -0.0232  0.0712 -0.2403
 1807W        W17941  18.686  10.704  12.867 -0.4414  0.0275  0.2929
 1808W        W17942  16.949   4.720   5.428 -0.0540 -0.1063 -0.0232
 1809W        W17943  14.071  13.499   9.908 -0.0887  0.1201  0.1677
 1810W        W17944  14.729   8.075   0.458  0.0405  0.2214 -0.1612
 1811W        W17945   5.945  18.597  12.172  0.0209 -0.1679  0.1928
 1812W        W17946   9.465  15.971   5.307  0.3476 -0.1826  0.1956
 1813W        W17947   0.231   2.075   1.009  0.1729 -0.1534  0.3978
 1814W        W17948   2.740  11.228   2.596 -0.2066  0.1856 -0.1236
 1815W        W17949  12.776  13.647  13.053  0.1362  0.0365 -0.2006
 1816W        W17950   7.916  18.505  10.689 -0.1499  0.2099  0.2457
 1817W        W17951   3.838  17.383   2.400 -0.0214  0.3091  0.0896
 1818W        W17952   9.552   6.851  11.758  0.1231 -0.1657 -0.1511
 1819W        W17953  10.704  10.079  13.825  0.2752  0.1880 -0.5020
 1820W        W17954   9.418   6.306  12.295 -0.3018  0.2336 -0.0477
 1821W        W17955  13.684  12.378  11.005 -0.0766  0.2990 -0.2227
 1822W        W17956  18.478   9.645   2.407  0.2750  0.1403 -0.0362
 1823W        W17957   4.486   9.569  12.271 -0.2807  0.1010  0.5068
 1824W        W17958  13.054   3.974   5.857 -0.2133 -0.0878 -0.1303
 1825W        W17959  16.028   2.526   2.502 -0.1945 -0.2019  0.3097
 1826W        W17960  16.221  10.234   9.883  0.1403  0.0552  0.3468
 1827W        W17961  12.695  17.928   9.902 -0.1168 -0.1669  0.1607
 1828W        W17962   7.937  14.526   2.756  0.0766  0.3160  0.0276
 1829W        W17963   3.472  18.255  13.493 -0.0076 -0.2316  0.2301
 1830W        W17964   7.549   9.696   3.254  0.3585 -0.0906 -0.0201
 1831W        W17965  16.115   7.320   9.734  0.2217 -0.0864 -0.3450
 1832W        W17966   5.760  11.795  11.302 -0.1030 -0.2064 -0.1476
 1833W        W17967   2.096   2.452   2.117 -0.1109  0.3503  0.0875
 1834W        W17968  14.638  12.504  12.350  0.0055 -0.1500  0.1472
 1835W        W17969   2.890  16.651  13.525  0.0992  0.0278 -0.0483
 1836W        W17970   9.909  16.433  11.701 -0.3852  0.1592  0.0677
 1837W        W17971  10.284  10.176   0.803 -0.0483 -0.0129 -0.2010
 1838W        W17972   8.688  13.764   2.130  0.0967 -0.1382 -0.1162
 1839W        W17973  18.696   0.440   3.314 -0.3617 -0.2595  0.2872
 1840W        W17974  13.774   9.190  12.444 -0.0941  0.0423  0.4334
 1841W        W17975   0.414  14.215  14.893 -0.1349  0.0961  0.2079
 1842W        W17976   7.540   0.006  12.323 -0.0853  0.0369 -0.0433
 1843W        W17977   9.098  11.207   3.862  0.1809  0.1166  0.2517
 1844W        W17978   5.353   8.606   3.558 -0.1466  0.0270  0.4453
 1845W        W17979  18.360   8.736   9.479 -0.2968 -0.0920  0.0765
 1846W        W17980   6.061   0.370   0.368  0.2010  0.3884 -0.1480
 1847W        W17981  13.708   5.156   0.528  0.1566  0.5046  0.1403
 1848W        W17982   1.369   5.328  14.245  0.1120  0.1287 -0.0023
 1849W        W17983  15.416  13.178   3.562  0.0285  0.0576 -0.0544
 1850W        W17984  11.630   4.329   2.416  0.1364  0.1161 -0.0363
 1851W        W17985  12.166  15.743  14.369 -0.1595  0.2648 -0.1330
 1852W        W17986   9.824  16.001   4.309  0.6986  0.1472 -0.0723
 1853W        W17987  17.754   9.092  10.931  0.1236  0.0071 -0.3037
 1854W        W17988  11.040  10.772   5.278 -0.0972  0.0937 -0.0430
 1855W        W17989   7.757  17.634   2.651  0.2362 -0.0740  0.2588
 1856W        W17990   5.347   4.757  10.958  0.0988 -0.0572  0.1460
 1857W        W17991   8.629   2.453  12.283  0.3396  0.1488 -0.0206
 1858W        W17992  11.411  13.836  12.635 -0.2977 -0.0821 -0.0017
 1859W        W17993   9.552   0.272  10.940  0.3116 -0.0615  0.0476
 1860W        W17994  14.009  11.413   0.850 -0.2476 -0.0392 -0.0042
 1861W        W17995  19.160   1.735   3.211 -0.2147  0.1964  0.1321
 1862W        W17996   9.498  12.276   3.480 -0.1300  0.0848 -0.0533
 1863W        W17997  11.045  12.834  10.457  0.0888 -0.1141  0.0605
 1864W        W17998   8.404  10.228  13.731 -0.0110 -0.0316  0.1467
 1865W        W17999  16.511  18.589  12.403  0.2218 -0.1909 -0.0928
 1866W        W18000  15.994  14.887  14.586  0.1054  0.3240  0.1077
 1867W        W18001   5.434  16.437   5.226  0.3012 -0.1721  0.1192
 1868W        W18002   1.015  14.247  14.779  0.1539 -0.1781  0.0949
 1869W        W18003   0.874  13.433  13.185 -0.0604  0.0739  0.1672
 1870W        W18004  11.928  11.877   0.466 -0.2828 -0.2400 -0.2281
 1871W        W18005   6.287  13.696   1.324 -0.1109  0.1609 -0.2586
 1872W        W18006   3.288  17.555   2.938 -0.1065 -0.0024 -0.1543
 1873W        W18007  17.725   9.937  12.671  0.0567  0.1657 -0.0876
 1874W        W18008   8.265  16.904   1.640 -0.2008 -0.4100 -0.0801
 1875W        W18009   2.825   0.476   4.865 -0.1299  0.3190 -0.0287
 1876W        W18010   3.213   4.172  12.815 -0.2220  0.3904 -0.2198
 1877W        W18011  16.708  10.784  14.750 -0.0145 -0.4781  0.0821
 1878W        W18012   7.882  15.570   1.095  0.2435  0.1911 -0.2939
 1879W        W18013   2.175  13.744  12.343  0.2018  0.0533  0.4313
 1880W        W18014   2.632  18.091   4.037  0.0052 -0.1835 -0.2716
 1881W        W18015   4.775  16.740   4.915  0.4468 -0.1452  0.0232
 1882W        W18016  15.044  16.350   0.168 -0.0990 -0.2132  0.0529
 1883W        W18017   2.302  15.871  13.340 -0.0192  0.0718  0.0602
 1884W        W18018  13.603   0.613  10.870  0.0798 -0.2133  0.1439
 1885W        W18019  15.097   0.826  14.303 -0.0312 -0.0545  0.3226
 1886W        W18020  12.902  13.478   1.245  0.2150  0.1268 -0.0969
 1887W        W18021  17.957   6.316  14.330  0.0534  0.1053  0.0193
 1888W        W18022   6.598  10.149  14.582 -0.1096  0.0075 -0.0778
 1889W        W18023   8.571   9.067  13.319 -0.0114 -0.1551  0.0443
 1890W        W18024  15.467   3.355  11.594 -0.1528  0.0182 -0.2343
 1891W        W18025  14.446   2.788  10.825 -0.1515  0.0753  0.0194
 1892W        W18026   8.244   0.701  14.943  0.0442 -0.0198 -0.2510
 1893W        W18027  17.498   2.077  13.430  0.1981 -0.2929 -0.3256
 1894W        W18028   2.538  15.307  11.598 -0.1837 -0.3443  0.2737
 1895W        W18029   1.887  10.933   5.462  0.0296  0.0969 -0.1602
 1896W        W18030   5.501  14.876   0.189  0.1076  0.3400  0.1539
 1897W        W18031   3.162   4.501   5.437 -0.0801  0.0751  0.0436
 1898W        W18032  15.632  19.309  13.733  0.1016  0.1531 -0.2071
 1899W        W18033  12.845  15.537  12.273  0.3305  0.0198  0.0719
 1900W        W18034   5.394   2.018   4.038  0.1678  0.1914 -0.1862
 1901W        W18035   7.031  18.406  14.234  0.2390 -0.0107  0.0446
 1902W        W18036   7.503  18.072   3.688 -0.1531  0.0890 -0.1746
 1903W        W18037  13.182   3.281  10.895  0.1568 -0.3503 -0.0714
 1904W        W18038  19.120  17.036  14.864 -0.0374  0.1502  0.2126
 1905W        W18039   9.141   5.802   2.576  0.0753 -0.3019 -0.0051
 1906W        W18040  17.886  10.914   4.369  0.2483 -0.1992 -0.2269
 1907W        W18041  11.052   4.782  12.630  0.1755 -0.0118 -0.2089
 1908W        W18042   2.059   5.732   1.568 -0.0835 -0.0774  0.0595
 1909W        W18043  10.400  19.225   1.426  0.0064  0.1535  0.1568
 1910W        W18044   0.220  10.191   2.214 -0.2585  0.1024  0.0572
 1911W        W18045  11.429   2.559   2.345  0.2162 -0.0813 -0.1583
 1912W        W18046   3.546  15.091  11.405 -0.3976  0.1667 -0.0172
 1913W        W18047   3.030  17.132   4.061 -0.1523  0.1626 -0.1516
 1914W        W18048  13.029  14.551  12.003 -0.1469  0.1950 -0.3292
 1915W        W18049   9.620  13.352  13.750  0.0522 -0.0916  0.1236
 1916W        W18050   6.597  16.173   0.205 -0.0580  0.2626 -0.0637
 1917W        W18051  14.176  15.267   1.213  0.1362 -0.1288  0.0039
 1918W        W18052  16.705   2.945  11.620 -0.1813  0.0190 -0.1911
 1919W        W18053   3.332  18.823   3.106 -0.0740  0.3710  0.0269
 1920W        W18054  16.868  13.166   2.651 -0.1744  0.1857  0.1350
 1921W        W18055   9.593  17.875   3.092  0.3720  0.2698  0.2437
 1922W        W18056   3.545   8.805   2.612 -0.0191 -0.0427 -0.3491
 1923W        W18057   3.029   5.360   9.684 -0.4309  0.1503  0.1855
 1924W        W18058   9.063   4.087  13.492 -0.1264  0.2969  0.0153
 1925W        W18059   4.404  18.476   2.928 -0.4353  0.2743 -0.2023
 1926W        W18060   5.089   6.091   2.700 -0.1983  0.0765  0.1441
 1927W        W18061  18.200   8.014   4.921 -0.2371  0.1285  0.1235
 1928W        W18062  19.327   1.491   5.120  0.2903  0.1839 -0.5100
 1929W        W18063   0.921  13.400  14.063  0.0701 -0.1833 -0.2023
 1930W        W18064   8.499  12.398  10.480  0.1624  0.2076 -0.1108
 1931W        W18065   5.721   2.215  11.528 -0.2572 -0.0978 -0.1685
 1932W        W18066   8.880  17.167  14.617 -0.1147  0.2070 -0.0615
 1933W        W18067   0.646  16.556  14.531 -0.0664  0.0037  0.1745
 1934W        W18068   8.392   6.342   4.987  0.1609 -0.1456  0.2751
 1935W        W18069  15.906   7.602   2.281 -0.0081 -0.1528 -0.0802
 1936W        W18070   1.084  13.811  11.635  0.1470  0.0215 -0.0553
 1937W        W18071   5.835   9.535   2.394 -0.0382  0.1998 -0.0705
 1938W        W18072   6.226  17.913  13.570  0.0002 -0.1634  0.1585
 1939W        W18073  15.306   7.973   1.386 -0.0366  0.2134 -0.0291
 1940W        W18074   2.415  18.617  14.836  0.1418  0.1646  0.2604
 1941W        W18075  18.529  11.587   3.869  0.1553  0.1954 -0.1157
 1942W        W18076   1.895   4.825  10.612 -0.3110 -0.2694  0.1010
 1943W        W18077  18.761  14.920  14.234 -0.0946 -0.0694 -0.1788
 1944W        W18078   3.133   1.101  12.181  0.0537  0.3408 -0.1348
 1945W        W18079   7.657   8.034   1.310  0.4691 -0.1179 -0.0679
 1946W        W18080  14.914  12.375   0.129 -0.1309  0.0465  0.0081
 1947W        W18081  14.251  10.114  13.783  0.1180 -0.1093 -0.1646
 1948W        W18082  10.846  15.329  13.226  0.1269 -0.0170  0.0096
 1949W        W18083  16.204  18.280  14.487 -0.2307  0.3180  0.2614
 1950W        W18084   8.229   2.573  11.934  0.0298  0.3358  0.0735
 1951W        W18085  10.301   8.672  13.497  0.0756  0.0073  0.0780
 1952W        W18086   1.828   8.090   2.675 -0.0734 -0.2145 -0.2207
 1953W        W18087  17.026   7.399  12.477  0.1919  0.6523 -0.1094
 1954W        W18088   7.791  18.893   3.352 -0.1142  0.2779 -0.3719
 1955W        W18089  17.049  11.026   3.741 -0.0279  0.1513 -0.0111
 1956W        W18090   0.387  12.061   0.351  0.0860 -0.2697  0.4481
 1957W        W18091   2.848  19.033   2.526 -0.0922 -0.2624  0.0319
 1958W        W18092   9.815   4.987   1.603 -0.0694  0.0743  0.3008
 1959W        W18093   5.628   5.641   0.459  0.5949 -0.0577 -0.3183
 1960W        W18094   4.569  15.174  13.537 -0.0545  0.1499 -0.1937
 1961W        W18095  18.490   7.699   0.325 -0.1182  0.1216  0.2687
 1962W        W18096  13.178   1.436   4.896 -0.1090 -0.0019  0.0482
 1963W        W18097   1.274  19.157  12.815  0.0308  0.3274  0.1034
 1964W        W18098  14.607  15.016   3.381 -0.0413  0.1198  0.1498
 1965W        W18099   7.622  19.124   1.764  0.0680 -0.0181  0.2252
 1966W        W18100   2.418  14.399  14.279 -0.0734  0.2908  0.0337
 1967W        W18101  15.646   7.035   3.001 -0.2032 -0.0739 -0.3149
 1968W        W18102  18.709  10.015  10.475  0.1683 -0.2469 -0.2136
 1969W        W18103   9.314   5.801  11.089 -0.1305  0.0511 -0.1556
 1970W        W18104  10.990  16.760  11.191 -0.0929  0.1992 -0.0013
 1971W        W18105   8.398   9.814   4.391 -0.1642 -0.0506 -0.0272
 1972W        W18106   4.145   4.287  11.043 -0.0417 -0.4053 -0.0701
 1973W        W18107   0.222   1.748   1.376  0.1693 -0.1183  0.1331
 1974W        W18108   2.551  11.788  12.648 -0.0447  0.0558 -0.1544
 1975W        W18109  11.773  18.855   4.804 -0.2652 -0.2947 -0.0221
 1976W        W18110  18.117   7.206   4.553  0.0396  0.0859 -0.0231
 1977W        W18111   1.445   4.345  12.707  0.0819  0.2030 -0.0987
 1978W        W18112   3.422   9.399  15.006 -0.0724 -0.0128  0.2133
 1979W        W18113   3.821  13.944   4.944  0.0604 -0.0926 -0.2499
 1980W        W18114   9.778   3.443  10.162  0.1196  0.2187 -0.2164
 1981W        W18115   0.536  10.633  12.775  0.0303 -0.0860  0.1708
 1982W        W18116   7.969  14.069  13.502  0.0063 -0.1870  0.0336
 1983W        W18117  18.335   7.362  14.675  0.0779 -0.1732 -0.0211
 1984W        W18118  12.150   0.565  13.254 -0.3025 -0.1280  0.0384
 1985W        W18119   0.892  13.708   4.813  0.2151 -0.0239 -0.0350
 1986W        W18120   2.650  15.784   4.153  0.3877  0.0098 -0.2772
 1987W        W18121  10.855   6.903  12.677  0.2222  0.1277 -0.2457
 1988W        W18122   6.941  16.861   1.756  0.1765  0.2237 -0.3790
 1989W        W18123  11.543   4.033  11.183 -0.0832  0.0759 -0.1941
 1990W        W18124  14.367  11.227   3.883  0.0146 -0.3154  0.2642
 1991W        W18125  13.278   0.474   2.146  0.1525 -0.0900  0.2105
 1992W        W18126   7.948   6.377   2.680  0.0665 -0.1514 -0.3911
 1993W        W18127   8.874  11.485   3.454  0.1680  0.0883  0.0567
 1994W        W18128   0.025  10.461  12.898  0.0785  0.0061 -0.0114
 1995W        W18129  14.504  13.590   3.914 -0.0429  0.0271  0.0495
 1996W        W18130   7.038  16.190  12.642 -0.2743  0.1073  0.2648
 1997W        W18131  10.808  12.114  14.463 -0.0293  0.7615 -0.3018
 1998W        W18132  19.106  13.058  13.377  0.0557 -0.0560 -0.0658
 1999W        W18133  12.553   1.114   2.028 -0.0904 -0.5214 -0.0735
 2000W        W18134  17.884  16.049   9.691  0.1319 -0.1710  0.0209
 2001W        W18135   4.205  19.100   2.643 -0.0500  0.4404  0.3219
 2002W        W18136  11.348  14.614   0.485  0.0358 -0.0883  0.1293
 2003W        W18137   4.307   2.490  10.522 -0.1656 -0.0942  0.0468
 2004W        W18138   4.703   5.412   0.976  0.1287 -0.1999  0.1232
 2005W        W18139  18.550  18.571   9.724 -0.0356  0.0843  0.1564
 2006W        W18140  18.950   5.966   0.399 -0.1363 -0.2806 -0.0170
 2007W        W18141  14.511  13.705   1.192 -0.0079  0.0462  0.1290
 2008W        W18142  12.867   7.877  10.922  0.1517  0.0381  0.0741
 2009W        W18143  11.333  11.950   3.050  0.0204 -0.4336  0.1679
 2010W        W18144   1.740  18.335   4.024 -0.2431 -0.0069  0.0293
 2011W        W18145   1.639   9.476  10.536 -0.2558 -0.1648  0.3587
 2012W        W18146   3.840   6.438  13.962 -0.1214 -0.1547 -0.0229
 2013W        W18147   6.973  16.695   2.761 -0.1692 -0.1177  0.0203
 2014W        W18148   4.612   4.786  10.275 -0.0129  0.4693 -0.0567
 2015W        W18149  18.663   6.395  14.930  0.0378  0.1911  0.1296
 2016W        W18150  11.088   7.180  12.276 -0.1121  0.0625  0.0055
 2017W        W18151  13.515  14.839  11.023  0.1479  0.1139  0.2033
 2018W        W18152  18.808  18.520   1.558  0.0567 -0.0699 -0.2801
 2019W        W18153   6.226   8.806  14.643 -0.4583  0.2964  0.0956
 2020W        W18154  16.306   0.481  11.629  0.1331  0.0208  0.2633
 2021W        W18155  13.146   5.776   1.610  0.1405 -0.1729 -0.2172
 2022W        W18156   2.169   4.375   9.575  0.0138  0.0797  0.0655
 2023W        W18157  13.386   9.526  12.501  0.0787 -0.2959  0.1349
 2024W        W18158  14.919   6.739  10.350  0.1529 -0.1997 -0.0427
 2025W        W18159  16.460   3.000   0.348 -0.2429  0.3522 -0.0261
 2026W        W18160   2.639   2.193   2.375 -0.1359  0.0460 -0.1567
 2027W        W18161  17.933  18.674   2.089 -0.0300  0.1010 -0.3278
 2028W        W18162   8.812   4.111  12.400 -0.1411 -0.2029  0.2969
 2029W        W18163   0.107  12.075  13.020 -0.0623 -0.0529  0.0092
 2030W        W18164   2.607   5.094  14.798 -0.1739  0.0290  0.0138
 2031W        W18165  16.994   3.955  10.963 -0.1176  0.0033 -0.0328
 2032W        W18166  17.088  18.695  14.519  0.2820 -0.2126  0.0377
 2033W        W18167  13.145  13.613  11.311 -0.0204  0.0656 -0.3298
 2034W        W18168   4.035  15.304  12.174  0.1490 -0.0752  0.2753
 2035W        W18169   1.610   0.156   1.141  0.2705  0.0534  0.0743
 2036W        W18170   1.796   5.773  10.486 -0.1295 -0.0623  0.0820
 2037W        W18171  18.785  18.379   2.041 -0.1190 -0.3716 -0.0740
 2038W        W18172   4.502   9.461  13.930 -0.1546  0.1309  0.0001
 2039W        W18173  17.551  15.473  10.412  0.0409 -0.2202  0.0809
 2040W        W18174   4.353  16.022  11.255  0.2653  0.1200  0.1648
 2041W        W18175   9.489   6.106   2.809 -0.1927 -0.1587  0.5087
 2042W        W18176  14.275   9.192  11.271 -0.0296  0.0702 -0.2870
 2043W        W18177  16.588  10.076   3.214  0.0483  0.1402 -0.0794
 2044W        W18178   5.573  16.012  10.390 -0.1332 -0.1952  0.1280
 2045W        W18179   5.455   0.161   1.411  0.1327 -0.1667  0.2073
 2046W        W18180  17.071   2.235  11.019  0.2472  0.3359 -0.0157
 2047W        W18181  11.221   5.424  13.910  0.0505  0.0335 -0.3167
 2048W        W18182   2.730  17.158  14.203  0.1749  0.1867  0.1591
 2049W        W18183  10.961  13.918   4.381 -0.1382  0.0772 -0.3879
 2050W        W18184   8.451   2.623  10.654  0.0086 -0.0606  0.0244
 2051W        W18185  14.424   0.734   1.619  0.1662  0.1008 -0.1439
 2052W        W18186  13.831   5.072   1.522  0.0313 -0.2431 -0.2214
 2053W        W18187  11.244   4.931   0.165 -0.0539 -0.1238  0.0163
 2054W        W18188   9.051   8.736   2.184  0.2341 -0.0193 -0.1536
 2055W        W18189  17.716  14.495  14.266 -0.0116  0.0543 -0.1296
 2056W        W18190   0.869  10.441  13.117 -0.0693 -0.4837  0.0500
 2057W        W18191  13.050  17.497   2.639 -0.2801 -0.1544 -0.0090
 2058W        W18192  10.839   1.630   4.678  0.0983 -0.0973  0.3076
 2059W        W18193   9.531   6.363  11.855  0.0631 -0.2183 -0.1798
 2060W        W18194   9.280  17.745   1.755 -0.1413  0.3610 -0.0696
 2061W        W18195  10.651  19.000   5.578 -0.2233  0.0025  0.3697
 2062W        W18196   5.304   7.388   3.596  0.1542  0.0020  0.0416
 2063W        W18197   9.663   9.047   4.820 -0.0134  0.1027  0.2446
 2064W        W18198   2.955   3.143   3.863  0.2002  0.1757 -0.0528
 2065W        W18199   1.261   0.889   2.440  0.2963  0.0565  0.0394
 2066W        W18200   5.071  17.377   4.143  0.4222 -0.0471 -0.2867
 2067W        W18201  16.742  15.208   4.111  0.2001  0.0340  0.3295
 2068W        W18202   5.250  15.041  11.195 -0.0506  0.0112  0.1113
 2069W        W18203   7.237  10.951  14.544  0.3785 -0.1333  0.0861
 2070W        W18204   7.244   4.739   1.560 -0.0695 -0.0334 -0.0895
 2071W        W18205   8.393   4.922   9.363  0.1817 -0.1904 -0.1075
 2072W        W18206   3.274   3.940  14.090  0.1152  0.2976 -0.1031
 2073W        W18207  17.237  13.762   0.979 -0.0648 -0.3205 -0.0665
 2074W        W18208  10.858  14.297   1.913  0.1948  0.0867  0.0757
 2075W        W18209  18.358  10.038  10.857  0.0450  0.0141  0.1991
 2076W        W18210   3.421   7.832  11.425  0.0208  0.4235  0.0339
 2077W        W18211   5.884   1.146   4.731  0.0201 -0.1418 -0.2231
 2078W        W18212   2.051  14.888  11.616  0.0146 -0.2033  0.4178
 2079W        W18213   2.770   1.909   1.077  0.0391 -0.2860 -0.0511
 2080W        W18214  10.328   1.273   2.773  0.0063 -0.2300 -0.4334
 2081W        W18215  15.501   5.388  14.489 -0.1911 -0.0472 -0.4309
 2082W        W18216   4.084   3.307   0.797  0.2110 -0.0447 -0.3483
 2083W        W18217  18.284   2.348   0.111 -0.1149  0.1811  0.1629
 2084W        W18218  16.658   0.954  10.686 -0.2789 -0.1268 -0.0532
 2085W        W18219  14.075  13.018  14.684 -0.0516  0.0217  0.0116
 2086W        W18220  10.473   4.424   4.907  0.1654 -0.2103  0.1077
 2087W        W18221   8.721  16.711   0.454 -0.2934  0.0354  0.1850
 2088W        W18222  14.639  12.716  11.069  0.4536 -0.0367  0.2887
 2089W        W18223   0.042  13.411   9.034 -0.0843 -0.0564  0.4435
 2090W        W18224  11.111   5.875   2.334 -0.1750  0.2310  0.1431
 2091W        W18225   6.575  14.109   0.862 -0.0893 -0.0136 -0.2747
 2092W        W18226  10.064   8.455   2.374 -0.2323  0.0097 -0.0517
 2093W        W18227   4.391  13.188  13.137  0.0880 -0.1739 -0.1169
 2094W        W18228   2.607  18.557   3.660  0.2429 -0.0520 -0.2840
 2095W        W18229   5.860  16.876   5.245 -0.1585  0.0736  0.2086
 2096W        W18230   6.592   6.084  12.275  0.1855 -0.2416 -0.0733
 2097W        W18231   1.751  19.277   2.501  0.0020  0.0817 -0.3471
 2098W        W18232   8.691  11.768  11.350  0.0855 -0.2334 -0.0216
 2099W        W18233   9.978   0.055   3.910 -0.4645 -0.0090  0.1236
 2100W        W18234  17.699   7.118  13.261  0.0401  0.1641 -0.2396
 2101W        W18235   3.084   8.887  14.737 -0.0938 -0.1555 -0.1684
 2102W        W18236  16.532   4.690  10.992 -0.3265  0.0964  0.1142
 2103W        W18237  16.806  11.652   1.442  0.2618 -0.0500 -0.0074
 2104W        W18238   3.216   5.334  14.531  0.1999  0.2195 -0.0045
 2105W        W18239   0.047   8.922  13.664  0.0941 -0.3204  0.0274
 2106W        W18240   5.073  18.671   0.364  0.1739 -0.0599 -0.2604
 2107W        W18241  18.261   2.112   4.209 -0.0137  0.0197 -0.1454
 2108W        W18242  17.176   1.733   1.208  0.0213 -0.2617 -0.0531
 2109W        W18243  17.275  15.758   1.343 -0.0568  0.0167  0.1136
 2110W        W18244   6.919  15.725  14.005  0.0197  0.4482  0.4526
 2111W        W18245  15.635   6.544  12.313  0.1166 -0.0346  0.1520
 2112W        W18246  16.402   9.420   3.159  0.2184 -0.0236  0.1542
 2113W        W18247   3.040  17.029   3.082 -0.1721 -0.1661 -0.5984
 2114W        W18248   7.856  16.666   4.998 -0.3164  0.0077  0.1658
 2115W        W18249   1.160   5.562  13.233 -0.0114 -0.1599  0.1806
 2116W        W18250   4.218  13.519   3.612 -0.0856 -0.2063 -0.2243
 2117W        W18251   6.454   6.615  10.601  0.3044 -0.0828 -0.2885
 2118W        W18252  10.128  15.176   3.828 -0.3350  0.0211 -0.0324
 2119W        W18253   6.176  17.048   2.314 -0.0733 -0.2152  0.0033
 2120W        W18254   2.280  13.968   4.570  0.1682  0.0443  0.2948
 2121W        W18255  10.711  16.460   2.808  0.2777  0.0997 -0.1493
 2122W        W18256   7.823   5.489   4.666  0.1611 -0.4475 -0.2054
 2123W        W18257   6.328  14.289   4.918  0.2161  0.1258  0.0413
 2124W        W18258  11.689  15.145  10.222 -0.2132  0.0970 -0.0481
 2125W        W18259  17.279  16.379   3.358 -0.1428  0.1728  0.1883
 2126W        W18260   3.368   8.897  11.409  0.1492 -0.0132 -0.1351
 2127W        W18261   4.149  10.454  10.673 -0.0987 -0.2704  0.1007
 2128W        W18262   9.867  13.577   3.392 -0.3101  0.0429  0.3328
 2129W        W18263  14.478   5.778  13.549  0.2879 -0.0665 -0.2049
 2130W        W18264  14.618  12.153  11.266  0.0505  0.5286 -0.0832
 2131W        W18265  14.061   7.020  10.745 -0.3630 -0.0126  0.0235
 2132W        W18266   6.091  11.406   1.892 -0.0331  0.0487  0.2997
 2133W        W18267  11.634   5.464   3.289 -0.0672  0.3347 -0.0088
 2134W        W18268   0.828   8.824   0.827 -0.1048 -0.3822  0.2384
 2135W        W18269   4.883   4.875   3.561 -0.4641 -0.3546  0.1852
 2136W        W18270   4.712   6.376   0.772 -0.0160  0.0239 -0.1767
 2137W        W18271   1.426   6.543  11.215 -0.1811  0.0979  0.1765
 2138W        W18272   2.310   3.031  11.476  0.6047  0.0652 -0.1739
 2139W        W18273   8.370   3.996   3.350 -0.0509 -0.4961 -0.0330
 2140W        W18274  12.888   3.734   1.429 -0.0296 -0.0854  0.1290
 2141W        W18275   3.496  13.121  10.175  0.1630 -0.1679  0.0529
 2142W        W18276   9.041   8.980  13.022 -0.1110  0.1596  0.0261
 2143W        W18277   9.267   1.609  10.910  0.0614 -0.3300 -0.2982
 2144W        W18278   6.407   3.074  13.973 -0.2760 -0.1066 -0.3099
 2145W        W18279  18.928  10.357  13.146  0.2521  0.1515  0.1886
 2146W        W18280  13.782   4.096   1.700  0.0692  0.1860 -0.0892
 2147W        W18281  18.872   5.172  11.668 -0.0056  0.0590 -0.1301
 2148W        W18282  11.160  18.412  10.724 -0.3102  0.2356 -0.1413
 2149W        W18283   4.581   3.670  13.764  0.0255 -0.0822  0.1300
 2150W        W18284   2.443  10.426   2.930 -0.3345 -0.0798 -0.1792
 2151W        W18285  17.777   0.193  12.068  0.1297 -0.1634 -0.1280
 2152W        W18286  19.273   5.929   3.247 -0.0515 -0.0023 -0.2843
 2153W        W18287  18.450  12.713   5.016 -0.0157  0.0648 -0.0139
 2154W        W18288  12.425   2.832   2.245  0.2943 -0.1632  0.0245
 2155W        W18289   8.372   5.463  10.697  0.1030  0.2936  0.1731
 2156W        W18290   4.467   8.601  13.657 -0.0847 -0.3687 -0.0592
 2157W        W18291   0.086   0.130  12.942  0.2369  0.0416 -0.0176
 2158W        W18292   7.206  14.804   4.622  0.0234 -0.2259 -0.2789
 2159W        W18293   6.575   4.564  14.964  0.0206 -0.2094 -0.2641
 2160W        W18294  16.563  12.189  12.130  0.4551 -0.1372 -0.3054
 2161W        W18295  17.015  15.927  12.417 -0.1641 -0.0234  0.1921
 2162W        W18296  18.058  15.887  11.883  0.2631  0.2632 -0.5343
 2163W        W18297  18.675   1.272   2.603 -0.1052  0.2550  0.2573
 2164W        W18298  17.410  14.250  11.994 -0.2454  0.2607  0.1411
 2165W        W18299  10.516   0.131   1.912  0.0444 -0.0879 -0.0069
 2166W        W18300   5.553   0.505   0.980 -0.3195 -0.1883  0.1355
 2167W        W18301   5.777   5.098   3.422 -0.1902  0.0258  0.0676
 2168W        W18302  13.928  15.869   5.558 -0.1563 -0.0916  0.2106
 2169W        W18303  18.623   4.629  12.537  0.2692  0.1399 -0.0463
 2170W        W18304  11.733   6.414  14.459  0.1197 -0.0926 -0.0299
 2171W        W18305  14.952  17.489  12.611  0.2193  0.2470 -0.1031
 2172W        W18306  12.706  12.591  12.496 -0.1389 -0.0217  0.0704
 2173W        W18307  12.336   5.258   2.191 -0.0251  0.1589 -0.1589
 2174W        W18308   4.591  10.271  13.537 -0.0142 -0.0569  0.0939
 2175W        W18309   1.029  14.030  11.044  0.1975 -0.0863 -0.1961
 2176W        W18310   1.236   0.929   1.113 -0.4656  0.2756  0.4196
 2177W        W18311  13.478   9.628   2.730 -0.1219 -0.0363  0.1837
 2178W        W18312  11.951   4.470   1.440  0.0087  0.0609  0.0545
 2179W        W18313   2.550   2.833   4.100 -0.0940  0.2443 -0.2451
 2180W        W18314  16.142   6.049  12.542  0.0195 -0.2241  0.1472
 2181W        W18315   6.448  16.177   2.053 -0.0605  0.0186 -0.1186
 2182W        W18316   4.266   8.776  14.867 -0.2937  0.1203  0.0910
 2183W        W18317   7.808  10.239   0.818  0.1325  0.3176  0.0778
 2184W        W18318   9.952   0.886  14.461 -0.3509  0.2424 -0.2708
 2185W        W18319   7.374   3.863   2.906  0.2567 -0.2783  0.0811
 2186W        W18320   2.354  12.634  11.977  0.0332  0.0144  0.1367
 2187W        W18321   3.611  17.576  14.291  0.1777 -0.2847  0.4640
 2188W        W18322   1.759  18.433   2.153 -0.0252 -0.0487  0.1120
 2189W        W18323   6.750   8.073   1.940  0.2840 -0.2484 -0.0609
 2190W        W18324  12.052  12.876   4.111 -0.2605 -0.1099 -0.0375
 2191W        W18325  10.417   2.240  11.272  0.0412 -0.0598 -0.2469
 2192W        W18326   7.762  14.543  14.871  0.0681 -0.1503 -0.3896
 2193W        W18327   1.796  13.082  12.458  0.1295 -0.2541  0.2368
 2194W        W18328   5.198   1.820   4.986  0.1763 -0.0028  0.2229
 2195W        W18329  12.900  10.538   4.578  0.2281 -0.0731  0.2410
 2196W        W18330  10.691   7.648  11.409 -0.0092 -0.2133 -0.2182
 2197W        W18331  16.664  13.080   3.675  0.0860 -0.1632 -0.1711
 2198W        W18332  17.048  12.812  11.021 -0.0143  0.2600 -0.3893
 2199W        W18333  19.335   6.359   4.241  0.2045 -0.1070  0.0391
 2200W        W18334  17.713  15.690  13.793  0.0293  0.0149 -0.0782
 2201W        W18335   5.240   5.156   4.384 -0.1318 -0.1865  0.1632
 2202W        W18336   0.173   6.774  11.038 -0.1411  0.0597  0.0341
 2203W        W18337   7.820  13.592  12.569 -0.0263  0.2539 -0.3597
 2204W        W18338   9.118  18.783  10.974  0.1115 -0.0977 -0.0346
 2205W        W18339  15.062   3.551  10.930 -0.1988 -0.0064 -0.2173
 2206W        W18340   6.001   7.223  13.457  0.0336 -0.2003  0.1863
 2207W        W18341   4.911   9.031  13.238 -0.1988  0.1464 -0.0547
 2208W        W18342   1.002   3.770   1.109  0.1128 -0.0342  0.0455
 2209W        W18343  14.343   1.646   4.773 -0.0126 -0.2062  0.0067
 2210W        W18344  13.071   3.792   2.831  0.1974 -0.0569  0.0877
 2211W        W18345  15.695   5.500  13.763  0.0020  0.1053 -0.0367
 2212W        W18346  18.314   4.417  12.202 -0.0936 -0.2315 -0.0066
 2213W        W18347  16.856   8.463  10.911  0.2406  0.2157 -0.2016
 2214W        W18348   0.494   4.470  10.667  0.0200 -0.1400 -0.0001
 2215W        W18349  19.224  12.065   3.792 -0.4525  0.0549 -0.3178
 2216W        W18350   6.502   5.890   2.676  0.1118 -0.2821 -0.0513
 2217W        W18351  14.540   6.576   4.414 -0.1576  0.2198  0.4051
 2218W        W18352  16.987   3.137  10.042  0.0439 -0.1244  0.0094
 2219W        W18353  14.914   6.632   3.307  0.1026 -0.4782  0.0805
 2220W        W18354   6.678  12.416  10.595 -0.2943 -0.0082  0.2630
 2221W        W18355  14.538  16.245   5.039 -0.2922  0.1549  0.0982
 2222W        W18356  18.727  18.074   1.390  0.0641  0.0048 -0.1577
 2223W        W18357   6.741  11.923   3.479  0.1265 -0.3602 -0.0357
 2224W        W18358  15.642  13.911  14.698  0.1953 -0.0797  0.0730
 2225W        W18359   8.233   2.537   2.305  0.2603  0.0775 -0.1869
 2226W        W18360   7.163  12.334  11.927  0.3265 -0.0768  0.2394
 2227W        W18361  12.177   2.664   1.829 -0.2271 -0.1850 -0.0348
 2228W        W18362   1.729  16.103  14.541 -0.0890  0.2071  0.1344
 2229W        W18363  14.143   7.542  10.568 -0.0241  0.0981 -0.0879
 2230W        W18364  14.309   5.781  10.155 -0.2259 -0.5394  0.0701
 2231W        W18365  12.178  18.728   5.677 -0.1268  0.1071 -0.0073
 2232W        W18366  12.725  16.368   1.550 -0.1083 -0.3187  0.2974
 2233W        W18367   9.676   3.023   1.862  0.0398  0.3177  0.0062
 2234W        W18368   6.898   1.829  13.759  0.1018  0.0024 -0.0175
 2235W        W18369  11.735   8.991   1.674  0.1874  0.1489  0.2219
 2236W        W18370   5.095   8.160   5.585 -0.1350  0.0630 -0.2501
 2237W        W18371  18.900   5.313  10.515 -0.1121 -0.0786 -0.0403
 2238W        W18372   0.118  18.192  13.253 -0.1903  0.2228 -0.2853
 2239W        W18373  10.126   5.282  13.902  0.1977  0.0479 -0.0151
 2240W        W18374   1.432   3.825  14.677 -0.0693 -0.0630 -0.1725
 2241W        W18375  10.893  12.728   3.661 -0.1770 -0.3388 -0.0338
 2242W        W18376   1.125  18.153  12.214  0.0847  0.0025 -0.1501
 2243W        W18377   3.355  12.909  13.919  0.0823 -0.0582 -0.2911
 2244W        W18378   1.278   3.018  13.398  0.0741 -0.0967 -0.3347
 2245W        W18379   5.921   7.464   3.782  0.2592  0.2136 -0.0390
 2246W        W18380  14.691  15.560   0.049  0.0634 -0.1415  0.2309
 2247W        W18381  16.350   3.663  13.779 -0.1328 -0.5844 -0.1997
 2248W        W18382  13.802  17.715  14.559  0.0348 -0.2512  0.0995
 2249W        W18383  17.112   5.437   2.810  0.0868 -0.0500 -0.1618
 2250W        W18384   9.845  18.358   1.228 -0.3179  0.3006 -0.1947
 2251W        W18385   2.770   5.788   9.979  0.0422  0.0755 -0.1077
 2252W        W18386  15.269  16.299   5.562 -0.1650  0.1352 -0.2450
 2253W        W18387   4.474  11.688  14.901 -0.1941 -0.1683  0.0597
 2254W        W18388   5.725   3.377   3.086 -0.2302  0.1243  0.0941
 2255W        W18389  13.199  14.962   4.637 -0.1459 -0.2202 -0.0529
 2256W        W18390   7.689   7.381   4.887 -0.3233  0.3570 -0.0993
 2257W        W18391  10.892  17.560  15.004 -0.1629  0.2813  0.0316
 2258W        W18392  11.185   2.800   2.838  0.2127  0.2028 -0.1816
 2259W        W18393   4.117   4.148   1.558  0.0311 -0.0987 -0.0401
 2260W        W18394  17.684   4.829  12.539 -0.1963  0.0768 -0.0651
 2261W        W18395  12.087   9.987   4.575 -0.2409  0.0347 -0.3213
 2262W        W18396  15.229   5.251   1.696 -0.0857  0.0983  0.0250
 2263W        W18397  14.977   8.847   1.282 -0.1626 -0.2735 -0.1094
 2264W        W18398   2.331  11.339   1.712  0.0155  0.3494  0.0746
 2265W        W18399   7.478  18.546   2.519 -0.0172  0.0095 -0.2847
 2266W        W18400   1.602   3.449  11.504  0.0041 -0.1110  0.0604
 2267W        W18401   2.764  15.974   1.279 -0.0360  0.1725  0.4403
 2268W        W18402   8.949   1.452   3.037 -0.2792  0.2752 -0.1478
 2269W        W18403   1.263   1.960  10.819 -0.2309  0.2774  0.2647
 2270W        W18404  13.738  18.367   0.929  0.1566 -0.1142 -0.0570
 2271W        W18405  14.171  11.715   3.724  0.0748 -0.2304  0.0173
 2272W        W18406   6.652  17.559  11.680  0.0891 -0.2913  0.1794
 2273W        W18407   5.768   6.260  14.720  0.0644 -0.0488  0.0897
 2274W        W18408  13.795  14.247   2.260 -0.0114  0.2555 -0.1419
 2275W        W18409   4.148  10.594   0.498  0.3710 -0.1352  0.0220
 2276W        W18410  14.149   4.510   3.050 -0.1661  0.0739 -0.0334
 2277W        W18411   7.521  18.663  14.360 -0.1736  0.0002 -0.0165
 2278W        W18412   6.380   1.106  13.513  0.0046 -0.0651 -0.0585
 2279W        W18413   9.498   8.351  11.988 -0.1033  0.2087  0.1641
 2280W        W18414  11.623   6.921  14.105 -0.1155 -0.0800 -0.5155
 2281W        W18415   9.124  18.663  12.668  0.0437  0.0284 -0.1732
 2282W        W18416  17.672  15.296   4.512 -0.3469  0.0194  0.1065
 2283W        W18417  17.773   4.456   2.654 -0.1317  0.0883  0.0898
 2284W        W18418   6.147   4.292   3.201  0.1568  0.0956  0.4285
 2285W        W18419   0.638   6.076  11.487  0.1744  0.1514  0.2694
 2286W        W18420  16.922   4.351   3.887 -0.2165  0.0670 -0.0918
 2287W        W18421  18.365  16.343  13.335  0.1433  0.2948 -0.2990
 2288W        W18422  17.306  13.418   2.302 -0.1912 -0.3507  0.0274
 2289W        W18423  10.189   8.128   3.274 -0.1384 -0.1754  0.2108
 2290W        W18424  14.215   2.576   2.631 -0.1066 -0.0671  0.0850
 2291W        W18425  10.435  14.100  12.360 -0.1318 -0.0258 -0.4538
 2292W        W18426  17.982   6.367   0.528 -0.2292  0.2821  0.0201
 2293W        W18427   3.568   8.524   1.994  0.0900  0.0231 -0.2568
 2294W        W18428   7.738   9.144  14.955  0.2604  0.1208  0.3974
 2295W        W18429  12.007  17.408   4.993  0.4754  0.2079  0.1994
 2296W        W18430   5.944   9.879   3.889 -0.1579 -0.1728 -0.1958
 2297W        W18431   1.293  17.650   1.503  0.1711 -0.2215  0.2627
 2298W        W18432  16.758   2.144   2.794  0.0564  0.0749  0.0899
 2299W        W18433   0.373  11.880  14.074 -0.0328  0.1653 -0.3617
 2300W        W18434  12.966   1.210  10.508  0.1399 -0.0011 -0.1870
 2301W        W18435  10.464   4.891  11.000  0.0008 -0.3555 -0.2829
 2302W        W18436  14.186  16.244   1.284 -0.0924 -0.1776  0.1981
 2303W        W18437  11.745   6.804  14.772  0.1035 -0.3002 -0.1628
 2304W        W18438  13.043  17.662  12.319 -0.2546  0.1229  0.0678
 2305W        W18439  19.211   8.781   1.477  0.0742  0.1379  0.0318
 2306W        W18440   2.921  14.584   4.024 -0.1804 -0.1022  0.0999
 2307W        W18441  17.794  17.110  12.048  0.1856  0.0258  0.1332
 2308W        W18442  18.736   6.937   2.684  0.0426 -0.2092 -0.2431
 2309W        W18443  17.476   9.302   2.849 -0.0450 -0.1054  0.1029
 2310W        W18444  15.448   5.987  13.863 -0.1027 -0.1632 -0.0942
 2311W        W18445   0.996   1.043  13.431  0.2190 -0.1464  0.2159
 2312W        W18446   8.066   9.614  10.852 -0.5312  0.2395 -0.0362
 2313W        W18447   5.348  14.122  12.943 -0.0656  0.0701 -0.2464
 2314W        W18448   2.001  12.526   2.137  0.1779 -0.0063  0.0340
 2315W        W18449   7.610  14.071  14.824 -0.0143  0.1547  0.0932
 2316W        W18450   1.853  15.879  11.323  0.1684  0.0480  0.2670
 2317W        W18451  15.759  16.088  14.852  0.2645  0.0626 -0.3908
 2318W        W18452   0.587   8.272   0.248 -0.1671 -0.0925  0.0323
 2319W        W18453  19.018   1.626  14.071 -0.2276  0.2783 -0.1372
 2320W        W18454   2.825  17.183  13.582  0.3282  0.0270 -0.0833
 2321W        W18455  12.475   9.140  10.925  0.3452 -0.2916 -0.1325
 2322W        W18456  14.764   6.532   0.423  0.1687 -0.0867 -0.2201
 2323W        W18457   8.617   6.663   2.519 -0.3710  0.0058 -0.1051
 2324W        W18458   2.937   9.743  13.352 -0.5009 -0.2235 -0.0291
 2325W        W18459   7.597   0.498  10.517  0.1532  0.1529  0.2655
 2326W        W18460  16.033   6.740   1.337 -0.1147  0.0626 -0.1148
 2327W        W18461  16.131  12.936  12.391  0.1544  0.1376  0.3105
 2328W        W18462   3.344  14.802  10.517  0.2594  0.0859 -0.0275
 2329W        W18463  11.108  10.879  13.888 -0.0109 -0.0178 -0.0408
 2330W        W18464  11.172   8.088   4.170 -0.0039 -0.3594 -0.1736
 2331W        W18465   1.590   2.349  11.606 -0.0568  0.1939  0.0907
 2332W        W18466  12.380  15.479   0.808 -0.0727  0.1977 -0.6026
 2333W        W18467  17.388   1.109   4.205  0.2267  0.2143 -0.0080
 2334W        W18468  11.339   3.784   2.929  0.0326  0.1298  0.1115
 2335W        W18469  17.681  17.445   9.570 -0.2010 -0.1618 -0.1251
 2336W        W18470   3.990   6.985   1.462 -0.0699 -0.0020  0.3446
 2337W        W18471   4.339   4.349   3.045 -0.1589 -0.1866 -0.0964
 2338W        W18472  18.834  12.672  13.312  0.0394 -0.2436  0.1303
 2339W        W18473   4.385  15.647   9.996 -0.0670 -0.1461  0.2285
 2340W        W18474   2.497   7.332   2.727 -0.0742 -0.0347  0.1264
 2341W        W18475  18.051   9.996   1.626 -0.0971 -0.3681 -0.2805
 2342W        W18476   8.753  16.964   4.910 -0.2486  0.1380  0.3256
 2343W        W18477   9.489   0.344  11.471  0.0372 -0.1590 -0.0432
 2344W        W18478  18.845  12.664  11.217  0.3976 -0.0794 -0.0668
 2345W        W18479   8.568  13.590  12.910  0.0091  0.1336 -0.3024
 2346W        W18480  14.572   1.773  10.808  0.2682 -0.3038  0.1461
 2347W        W18481   5.896  13.882   2.886 -0.2756  0.1529 -0.0656
 2348W        W18482   6.980  13.816   0.976  0.4277 -0.3441  0.1596
 2349W        W18483   8.213  13.653   0.223  0.0935 -0.0647 -0.2234
 2350W        W18484   9.048   4.614  12.492  0.0717  0.2638 -0.0061
 2351W        W18485   7.173  12.375  10.244 -0.0267  0.1322  0.1386
 2352W        W18486   9.175   7.973  12.881 -0.3407 -0.2784 -0.2097
 2353W        W18487  10.206   5.680   1.868  0.0538 -0.0289  0.2064
 2354W        W18488   3.079   9.910  12.281 -0.0596  0.0311 -0.0791
 2355W        W18489  18.944   6.218   1.859  0.1420 -0.1514 -0.0301
 2356W        W18490   6.932  15.564  10.788 -0.4586 -0.3308 -0.0492
 2357W        W18491   4.942   4.204  13.125 -0.0458  0.1261  0.1609
 2358W        W18492  19.136   6.406  12.546 -0.2227  0.0316  0.0041
 2359W        W18493  12.069   4.863   5.184  0.1180  0.0032  0.2491
 2360W        W18494  13.356   0.352   2.955 -0.2826 -0.0367  0.1746
 2361W        W18495  15.260   0.678  12.134  0.0658 -0.0318 -0.2449
 2362W        W18496  15.510   6.947  10.953 -0.0534  0.4114  0.4800
 2363W        W18497  11.936   2.601   4.034  0.1968 -0.3436  0.1919
 2364W        W18498  12.054  15.390  12.718  0.0442  0.0970  0.1290
 2365W        W18499   5.001   0.249  12.518  0.0241  0.0414 -0.2199
 2366W        W18500  11.324  12.464  10.261  0.0938  0.2790 -0.1503
 2367W        W18501  17.422   2.392  10.629 -0.0264  0.3022 -0.0606
 2368W        W18502   4.396  10.867  14.643 -0.2748 -0.2254  0.0220
 2369W        W18503   3.444   1.114   2.078  0.0957  0.0509  0.0057
 2370W        W18504  10.880  13.327   1.403 -0.1254 -0.0389 -0.2275
 2371W        W18505  15.427   7.866   2.376 -0.1909 -0.0436  0.0601
 2372W        W18506   4.694   5.180  12.016  0.1120  0.2966  0.1304
 2373W        W18507   5.190   6.485  14.240  0.1945 -0.0043  0.1073
 2374W        W18508  14.854   7.192  12.159 -0.1347  0.1622 -0.0045
 2375W        W18509  13.246   1.000   0.862 -0.1466  0.0242 -0.2950
 2376W        W18510   3.611  15.910   5.259  0.2513 -0.2386 -0.1456
 2377W        W18511  12.828   0.081  10.830  0.2667 -0.0186  0.0047
 2378W        W18512  11.659   2.713  14.951 -0.2591 -0.3207 -0.1240
 2379W        W18513   7.266  16.505  10.672  0.4059  0.2419  0.0916
 2380W        W18514   4.076  12.158  11.481 -0.0806 -0.0727  0.0776
 2381W        W18515   8.653   3.537   0.613  0.0725 -0.2766  0.1669
 2382W        W18516  11.163   0.028  11.467  0.1395 -0.0046  0.0549
 2383W        W18517  18.565  14.132   3.515  0.1853 -0.0181 -0.1268
 2384W        W18518   5.357  12.203   1.497 -0.0084  0.1761  0.3602
 2385W        W18519   5.978  13.400   1.535 -0.0577  0.1577 -0.1503
 2386W        W18520  15.809   0.515  14.462 -0.1252 -0.1691 -0.4338
 2387W        W18521  18.195   0.819  14.708  0.1373  0.2704 -0.2103
 2388W        W18522  17.263  13.922  12.875 -0.0284 -0.0429  0.0071
 2389W        W18523  11.685   7.005   1.600  0.2972  0.0839 -0.0950
 2390W        W18524   3.365   9.489  10.608  0.0815 -0.1012 -0.1116
 2391W        W18525   3.372  11.207   3.899 -0.1973 -0.2958 -0.0382
 2392W        W18526   7.751  16.715  14.186 -0.1912  0.0071 -0.0624
 2393W        W18527  12.529   6.065  13.343 -0.0328 -0.3346 -0.2826
 2394W        W18528   0.205   0.285   0.615  0.1725  0.2147  0.2777
 2395W        W18529   6.356  13.050  14.461  0.2318 -0.0341  0.6438
 2396W        W18530  10.759   6.306   4.924 -0.0423 -0.1226  0.3020
 2397W        W18531   9.452  17.372  14.828  0.1597 -0.1135 -0.0389
 2398W        W18532   2.148  10.168   2.656 -0.3300 -0.0104 -0.0100
 2399W        W18533   6.196  11.389   0.143  0.1660 -0.1172 -0.0206
 2400W        W18534   7.198  11.376  10.266  0.0594  0.1817 -0.1207
 2401W        W18535   6.974  12.825  11.729 -0.0363  0.0014  0.5750
 2402W        W18536  16.398   9.800   0.591 -0.3168 -0.0895 -0.0310
 2403W        W18537  17.302   4.811   1.452 -0.0104  0.0101 -0.0955
 2404W        W18538  12.137   1.296  10.367  0.1049 -0.0275  0.0405
 2405W        W18539   4.926   7.076  10.912  0.0255 -0.0997  0.0747
 2406W        W18540   1.359  18.768   3.872 -0.1858  0.3562  0.0854
 2407W        W18541   1.883  13.369   1.656  0.1511 -0.2424  0.2156
 2408W        W18542   1.056   0.776   5.098  0.0305 -0.1650  0.2705
 2409W        W18543   2.555  17.018   2.571  0.1561 -0.2697  0.1487
 2410W        W18544  11.997  18.911   0.965  0.1194  0.1236  0.1192
 2411W        W18545   6.282   3.152  10.667  0.0990 -0.1951 -0.1851
 2412W        W18546   4.566  15.459  11.101  0.0432 -0.0197  0.2265
 2413W        W18547   9.058  14.633   1.317  0.0885  0.1869  0.0749
 2414W        W18548   9.355  19.230  11.466 -0.2573  0.0916 -0.3260
 2415W        W18549   5.773   1.485  14.540 -0.0466  0.2306 -0.2540
 2416W        W18550   5.775   9.148   0.663 -0.2968  0.0034  0.2144
 2417W        W18551  12.668  18.133   5.346  0.0617  0.2155  0.0352
 2418W        W18552   7.244   5.013  14.700  0.4905  0.0501 -0.1494
 2419W        W18553   7.882  17.582  12.268 -0.1053  0.0740  0.2562
 2420W        W18554   1.686  18.593  11.319 -0.2124  0.3065 -0.0738
 2421W        W18555   5.047   7.262   4.302 -0.0148  0.1573 -0.3277
 2422W        W18556  16.057   8.075   9.520 -0.1842 -0.2020 -0.0857
 2423W        W18557  14.610  15.506   4.470  0.1415  0.4657  0.0518
 2424W        W18558  12.962   6.290  13.093  0.1720 -0.3345 -0.3260
 2425W        W18559  18.786   8.565   5.812 -0.2592  0.1042 -0.0569
 2426W        W18560  10.893   3.011   1.019 -0.0089  0.0283 -0.2368
 2427W        W18561  11.923  19.085   0.448 -0.0252 -0.2157 -0.1329
 2428W        W18562   1.932   9.356   1.761 -0.1530 -0.4991 -0.1843
 2429W        W18563   6.580   8.598   0.555 -0.0097 -0.0297 -0.3617
 2430W        W18564  10.015   8.526   1.881  0.2747  0.3494  0.0414
 2431W        W18565  10.437   8.574  11.983 -0.0873  0.2609  0.1306
 2432W        W18566  10.116  15.267  13.551  0.2705  0.1059 -0.0004
 2433W        W18567  13.171  16.198  11.857 -0.0863  0.4682  0.0520
 2434W        W18568  14.220  12.107  14.095 -0.3643 -0.0594 -0.1835
 2435W        W18569  10.023  11.226   0.822  0.0120  0.0066 -0.0401
 2436W        W18570   8.084  11.138  13.447 -0.1833 -0.0132  0.0158
 2437W        W18571  14.111  12.006   3.142 -0.1188  0.2690  0.2298
 2438W        W18572  12.538   4.170   1.424 -0.4522 -0.0106 -0.3072
 2439W        W18573   0.494  12.520   0.190  0.0738 -0.0242  0.1016
 2440W        W18574   8.661  17.151   1.912  0.0607 -0.1561 -0.1145
 2441W        W18575  16.082  18.596   3.203  0.0375  0.0991 -0.2367
 2442W        W18576   0.770  11.790   4.736 -0.0333  0.0646 -0.0687
 2443W        W18577  17.149  15.071  14.774 -0.1704  0.1099  0.1224
 2444W        W18578  15.259  16.987  11.249  0.0138 -0.0434 -0.2555
 2445W        W18579  16.174  13.423   5.149  0.2834 -0.0900  0.0589
 2446W        W18580  10.931  10.567  11.823 -0.2945  0.4796 -0.1424
 2447W        W18581   7.494   4.361  10.817 -0.0550 -0.4411 -0.0458
 2448W        W18582   4.653   9.239   3.775  0.0323  0.2490 -0.4214
 2449W        W18583  17.435   8.880  14.566  0.2828 -0.0244  0.2046
 2450W        W18584   7.547  12.424  13.783 -0.0275  0.2964 -0.4609
 2451W        W18585   6.701  17.992  10.330 -0.0253  0.0878 -0.1532
 2452W        W18586  13.646   2.079   0.371 -0.0222 -0.0629 -0.0659
 2453W        W18587  17.402  18.123   2.398 -0.1416 -0.2745  0.0688
 2454W        W18588  16.967   5.532  12.900  0.0407 -0.0244  0.0631
 2455W        W18589  12.608  10.243  11.150  0.3518 -0.0534  0.1536
 2456W        W18590   8.370  15.860  13.186  0.3602  0.1285  0.2972
 2457W        W18591   1.092  18.317   3.984  0.0769  0.0721 -0.2087
 2458W        W18592  19.100   0.935  14.793  0.0883 -0.0026 -0.0856
 2459W        W18593   0.512  15.173  11.667 -0.3886 -0.1061 -0.0575
 2460W        W18594   0.504  15.299   2.089  0.0146  0.0078 -0.4787
 2461W        W18595  16.102  11.111   4.608  0.0134  0.2097  0.2229
 2462W        W18596  11.168   1.779   5.713  0.2488  0.0839 -0.1268
 2463W        W18597   1.029  10.588   0.858  0.1794  0.1508 -0.3624
 2464W        W18598  16.237  14.244   5.289  0.1570  0.2016 -0.1248
 2465W        W18599  10.016   0.023  14.234 -0.3019  0.1606 -0.0675
 2466W        W18600  12.843   9.941   1.776  0.4017 -0.2862  0.0843
 2467W        W18601   7.766  13.238   0.079 -0.1562 -0.0546 -0.0892
 2468W        W18602   5.760   7.532   1.344  0.1822 -0.1448 -0.1736
 2469W        W18603   1.526   3.004   3.238  0.0181 -0.1390  0.0887
 2470W        W18604  18.511   4.050   5.662 -0.1522  0.0738  0.1152
 2471W        W18605  13.855   9.618  12.011 -0.0116 -0.1749 -0.1660
 2472W        W18606   8.849  15.171   2.213 -0.1818 -0.0202 -0.0495
 2473W        W18607  11.085   0.410   3.907  0.2085 -0.0488 -0.0059
 2474W        W18608   8.508   8.683  14.816 -0.3587  0.0528  0.0531
 2475W        W18609  12.251   5.696   3.776 -0.1802  0.1924 -0.0279
 2476W        W18610   1.413   7.815  10.870  0.3783  0.0081  0.0197
 2477W        W18611  13.808   5.371   3.299  0.2586  0.1869  0.3336
 2478W        W18612   2.654   4.013  10.775  0.2367 -0.0276 -0.0923
 2479W        W18613  13.046  10.782  13.423  0.1124  0.2183  0.2520
 2480W        W18614   0.699   4.060   4.142  0.1241  0.3568 -0.0381
 2481W        W18615   3.892  11.881  12.276 -0.1471  0.4783  0.1518
 2482W        W18616   1.889   0.407  14.814 -0.0568 -0.1279  0.1125
 2483W        W18617  11.223  17.736   3.839 -0.0498 -0.1037 -0.2415
 2484W        W18618   4.408  18.383  14.569  0.0892 -0.0651 -0.1145
 2485W        W18619  19.320   5.444   3.174 -0.0365  0.1707 -0.1624
 2486W        W18620  13.781   7.195  14.771 -0.2173  0.2148 -0.1949
 2487W        W18621  13.291  12.997   0.774 -0.0036  0.1683 -0.2598
 2488W        W18622   6.875  17.811   0.461 -0.0175  0.0428 -0.0085
 2489W        W18623   1.148   6.876  11.518 -0.1919 -0.0137  0.0417
 2490W        W18624   9.324  15.001  14.397  0.0786 -0.0500  0.0277
 2491W        W18625  16.844   2.524  13.075  0.2075  0.0936  0.0186
 2492W        W18626   7.132   2.148  11.230  0.0072 -0.2014  0.2844
 2493W        W18627  15.571  11.673  11.322 -0.6410 -0.0444  0.1170
 2494W        W18628   5.531   7.196   3.188 -0.0841 -0.1157  0.0951
 2495W        W18629   8.644  15.232   3.109  0.0427 -0.3039  0.3518
 2496W        W18630  15.146  13.385   2.451 -0.1431 -0.4023 -0.0364
 2497W        W18631  15.345   5.488  14.983  0.0332  0.0286  0.1521
 2498W        W18632   1.180  16.745  11.326 -0.3116 -0.2139  0.0453
 2499W        W18633   6.871   4.856  11.311  0.1146  0.4189  0.1933
 2500W        W18634  12.732   5.702  12.366 -0.0570  0.2054  0.1269
 2501W        W18635  13.977   9.389   5.403  0.1289  0.1621  0.0686
 2502W        W18636   1.974  17.630  12.241  0.0424 -0.0586 -0.1550
 2503W        W18637  18.416   4.968   3.057  0.0745  0.0792  0.1966
 2504W        W18638   3.799  17.844   2.174 -0.2650 -0.0957 -0.1238
 2505W        W18639  17.324  12.017  10.537  0.1821  0.0802  0.0423
 2506W        W18640  10.169   2.023  13.363  0.0197  0.0442  0.1983
 2507W        W18641  14.343   7.262  12.068  0.1410  0.0179 -0.1496
 2508W        W18642  15.678  11.683   3.174  0.0868 -0.1446  0.2441
 2509W        W18643   6.371  11.184   3.821  0.1235 -0.0143  0.0624
 2510W        W18644   2.444  11.511   1.171  0.0161  0.1216 -0.0125
 2511W        W18645   8.834  16.182   0.399 -0.0698  0.0365 -0.2780
 2512W        W18646   1.513  15.306  11.226 -0.0766 -0.2656 -0.4038
 2513W        W18647   7.728  11.330  12.397 -0.2372  0.2159  0.0146
 2514W        W18648   9.480  10.953   2.694 -0.1679  0.0201 -0.2069
 2515W        W18649   5.516  15.787  10.923 -0.1042 -0.0282 -0.4071
 2516W        W18650   0.313  14.793   3.505 -0.2000  0.1102 -0.1552
 2517W        W18651  12.025  19.313   4.967  0.2081  0.3250  0.0595
 2518W        W18652  11.227   3.997   2.447  0.3692  0.1371  0.0325
 2519W        W18653   9.701  11.597   0.379 -0.1280  0.5466 -0.1093
 2520W        W18654  11.582  14.665   9.095  0.2746 -0.1141 -0.0633
 2521W        W18655  14.778  19.197   2.601  0.1067 -0.0908  0.2410
 2522W        W18656  17.072  14.984  13.088  0.0678  0.4499 -0.0076
 2523W        W18657  10.391  11.134   0.492  0.1717  0.0980  0.0919
 2524W        W18658   1.414   0.714   0.549  0.0305 -0.1402 -0.4960
 2525W        W18659  14.629  17.220  13.696  0.2837 -0.2746 -0.0254
 2526W        W18660  14.471   5.076  10.999  0.0962  0.3354 -0.1969
 2527W        W18661   2.786  14.808   3.533  0.0027  0.0226 -0.1339
 2528W        W18662   9.145   2.180  14.030 -0.4214  0.2056  0.0317
 2529W        W18663  15.010  12.304   4.177  0.0134 -0.0477  0.2370
 2530W        W18664   3.755   1.272   1.678 -0.1427 -0.0809 -0.1355
 2531W        W18665   8.383  14.847  13.481  0.3759  0.1427  0.2268
 2532W        W18666  11.010  16.691   0.836  0.3439 -0.2291  0.1676
 2533W        W18667  10.502   9.161   4.567 -0.4918 -0.0442 -0.0533
 2534W        W18668   4.665   2.307   0.587  0.0862  0.0723  0.3251
 2535W        W18669   7.978  10.524   4.211 -0.0753  0.1581 -0.0748
 2536W        W18670   1.519   8.363  14.713 -0.1671 -0.5035  0.1565
 2537W        W18671  17.893   7.237  12.859  0.0264 -0.2314  0.6238
 2538W        W18672   1.752  11.979   1.708 -0.2948  0.3550  0.0512
 2539W        W18673   7.846  17.903  13.366 -0.0635  0.1347  0.1129
 2540W        W18674   3.068   4.986   1.106  0.0217  0.1198 -0.1238
 2541W        W18675   2.329   8.202   2.634 -0.0896  0.2266 -0.1948
 2542W        W18676   5.502   4.584  11.921  0.1372  0.0735  0.1302
 2543W        W18677  19.090  16.717  13.258 -0.2272  0.1394  0.0747
 2544W        W18678   3.658   8.363  14.268 -0.2702 -0.3182 -0.1225
 2545W        W18679   8.383   3.656  11.476 -0.1196  0.1066  0.1059
 2546W        W18680  10.468  13.054   4.542  0.0334  0.3501 -0.0764
 2547W        W18681   3.893  12.767  10.718  0.5632 -0.1768 -0.2263
 2548W        W18682   6.245   3.201  12.637  0.1577 -0.0722 -0.2570
 2549W        W18683  14.564  11.277   5.643 -0.1174 -0.0570  0.1538
 2550W        W18684  19.122   8.930   3.035 -0.2191  0.2780  0.0778
 2551W        W18685  18.796   4.669  14.420 -0.0128 -0.1780 -0.3451
 2552W        W18686  10.883   5.610   9.769  0.1630  0.1315 -0.0118
 2553W        W18687  14.829  17.522  11.171 -0.4775  0.0356  0.1944
 2554W        W18688   8.961  14.748   1.921 -0.3054 -0.1588 -0.1933
 2555W        W18689  14.482   1.242   3.463  0.1233 -0.0586 -0.0088
 2556W        W18690   3.491   0.287   2.107 -0.1788  0.0414 -0.1551
 2557W        W18691   5.077  11.769  10.922  0.1460 -0.0189  0.2559
 2558W        W18692   3.390   2.091   1.763  0.1632  0.0266 -0.0964
 2559W        W18693  17.467   5.096   2.532 -0.3049  0.1434  0.2103
 2560W        W18694  13.177  16.403  14.151  0.2867  0.1317 -0.0356
 2561W        W18695  15.846   3.080   1.311 -0.0440  0.0223  0.0554
 2562W        W18696   5.634   5.601   0.966  0.1222  0.1511  0.2154
 2563W        W18697  15.460  15.341   4.496  0.2126  0.1191  0.1470
 2564W        W18698   6.219   7.545  13.135  0.3190 -0.0738 -0.1956
 2565W        W18699   6.166  15.108  11.921 -0.3430 -0.2823 -0.1105
 2566W        W18700   8.302   1.489   5.130 -0.1751 -0.1012 -0.3359
 2567W        W18701  14.800  17.874  12.382  0.0329 -0.1238  0.0119
 2568W        W18702   4.637   8.644   4.065 -0.1034  0.4053  0.3631
 2569W        W18703  10.364   5.076   2.723 -0.0314  0.2150  0.0627
 2570W        W18704   8.077  15.468   2.626 -0.2587  0.1388  0.2283
 2571W        W18705   4.928   0.595   5.076 -0.2260 -0.0443  0.0773
 2572W        W18706  12.518   8.547   5.419  0.0709  0.0072 -0.0915
 2573W        W18707   6.570   5.408   1.511  0.2259  0.0899 -0.0568
 2574W        W18708  17.365   0.472  11.169 -0.3341  0.2037 -0.0131
 2575W        W18709   6.698  13.268   1.155 -0.1547 -0.1785 -0.1034
 2576W        W18710   2.434  15.348   2.587  0.2573  0.0810 -0.1687
 2577W        W18711   8.702  11.078  12.563 -0.0308 -0.0705  0.0081
 2578W        W18712   8.759  15.145   1.298 -0.2528 -0.3848 -0.1581
 2579W        W18713   3.062   2.129   2.157  0.0844 -0.0434  0.0880
 2580W        W18714  13.038  11.774  14.424  0.1540  0.0781  0.0943
 2581W        W18715  12.012  16.365  13.213 -0.0381  0.0580  0.1965
 2582W        W18716  11.958   1.871  11.458  0.2522 -0.1921 -0.0455
 2583W        W18717   2.078   0.822  14.650  0.0589  0.1011  0.1587
 2584W        W18718  12.652  16.515  14.630  0.2822  0.3957  0.1242
 2585W        W18719   8.344  14.211   0.576  0.0332  0.0853 -0.1483
 2586W        W18720   5.640  12.987  10.324  0.0200 -0.6101 -0.4161
 2587W        W18721   0.939   2.601  12.132  0.0869 -0.0629  0.1511
 2588W        W18722  13.234   2.826  13.847 -0.0531  0.0880 -0.1895
 2589W        W18723  10.733  10.322  10.568 -0.0483  0.0298  0.3525
 2590W        W18724  19.212   5.599   2.661 -0.6035  0.1593  0.1309
 2591W        W18725   0.332   9.009  12.080  0.1669 -0.1797  0.1788
 2592W        W18726   0.940   5.595   5.307  0.1857  0.5146 -0.1705
 2593W        W18727   0.831   8.428  13.596  0.2264 -0.1868 -0.0116
 2594W        W18728   0.489  13.419  11.436 -0.2814  0.2928 -0.2674
 2595W        W18729  13.322   2.000   2.733 -0.0583 -0.1865 -0.1382
 2596W        W18730   4.443   8.185  13.239  0.0132 -0.0340 -0.2888
 2597W        W18731  17.331   8.035  12.244 -0.2012  0.0633  0.1298
 2598W        W18732   5.343  10.687  14.978  0.0151 -0.2034  0.0502
 2599W        W18733   1.900  18.608  14.765 -0.3524  0.1069 -0.1611
 2600W        W18734  13.971  19.136   4.606  0.0347 -0.0847 -0.2818
 2601W        W18735   6.473  16.687  12.034  0.0082 -0.1053  0.0664
 2602W        W18736  18.745  12.275  12.367  0.2447 -0.3376 -0.0202
 2603W        W18737  13.428  13.862  10.989  0.3516  0.0142  0.0290
 2604W        W18738   2.330   5.548  11.345  0.1096  0.0459 -0.0530
 2605W        W18739   5.850   3.482  10.925  0.0533 -0.0937  0.1944
 2606W        W18740   7.973   1.817  11.085 -0.0297  0.1029 -0.2068
 2607W        W18741   6.333  10.017   4.622 -0.1638  0.1920 -0.2312
 2608W        W18742   0.155   2.831  12.432  0.4073  0.0602  0.3266
 2609W        W18743   1.695  19.169   0.767  0.0404 -0.0516  0.3077
 2610W        W18744  17.844  15.655   2.330  0.2956  0.2406  0.3537
 2611W        W18745  12.097  15.888  12.545  0.0064 -0.0206 -0.3676
 2612W        W18746  17.600  17.735  13.047  0.2802 -0.2582  0.3049
 2613W        W18747  14.826   3.457   2.599 -0.0969  0.1341 -0.0768
 2614W        W18748   3.517   0.048  11.285  0.1436 -0.0590 -0.0622
 2615W        W18749  13.786   9.615   4.749 -0.1898 -0.3295  0.1376
 2616W        W18750   5.821   8.439  13.936  0.1648 -0.2894 -0.0980
 2617W        W18751   2.832   5.436   2.906 -0.0527 -0.1589  0.1699
 2618W        W18752  16.134  12.067  11.890 -0.1245 -0.2422 -0.0155
 2619W        W18753  12.875   7.585   0.142  0.3804  0.2673 -0.0203
 2620W        W18754  15.367   8.937  10.737  0.2350 -0.0064  0.0417
 2621W        W18755   8.780   6.910   3.587  0.2416  0.4202 -0.0695
 2622W        W18756   9.420   0.138  12.836  0.0690  0.3260  0.1855
 2623W        W18757   3.883   6.676   3.675  0.2109  0.3112 -0.4574
 2624W        W18758  18.131   5.704  14.751 -0.0031 -0.0304 -0.1103
 2625W        W18759   7.290  17.491   3.853 -0.1111  0.2319 -0.1087
 2626W        W18760   0.272  12.057  11.331 -0.3092  0.3974 -0.0202
 2627W        W18761  18.266  12.323  12.603 -0.1469 -0.2049  0.2705
 2628W        W18762   0.794   6.622   0.971  0.0837  0.3059  0.1987
 2629W        W18763   1.549   1.204   2.026  0.0637  0.3433  0.0756
 2630W        W18764   8.330   8.319   0.140 -0.1487 -0.0417  0.0892
 2631W        W18765  18.522  19.096  11.835 -0.1302 -0.1899  0.0706
 2632W        W18766  14.436   4.554  14.946  0.0295 -0.1494  0.5784
 2633W        W18767  11.448  15.117   3.438 -0.0406  0.1637  0.0219
 2634W        W18768   7.261  14.980  12.080 -0.1110  0.2321  0.0487
 2635W        W18769   7.791   1.295   0.822 -0.0967 -0.0987 -0.1259
 2636W        W18770   8.615  10.921   2.257 -0.3248 -0.1001  0.0238
 2637W        W18771   7.964   7.783  13.476  0.2034 -0.3936 -0.2656
 2638W        W18772   4.461  15.512   2.357  0.1729 -0.4283 -0.0252
 2639W        W18773   0.606  10.804   3.194 -0.3159 -0.2577 -0.2379
 2640W        W18774   9.013   6.197   6.230 -0.0426 -0.0542 -0.1448
 2641W        W18775   0.209  14.019   2.024  0.1499 -0.0215  0.0048
 2642W        W18776   5.408   0.022  14.156 -0.2163  0.1597  0.0114
 2643W        W18777  16.979  18.384   1.742 -0.1479  0.2671  0.1928
 2644W        W18778  14.388   4.010   9.418  0.2808 -0.1632 -0.0307
 2645W        W18779   3.908  13.877   0.416  0.0833  0.0726  0.0528
 2646W        W18780   5.942   6.973   1.579  0.1984  0.2553  0.1513
 2647W        W18781   5.546  10.686  14.234 -0.0175  0.0091 -0.0862
 2648W        W18782  10.585   7.733   1.165 -0.2838 -0.3448  0.3696
 2649W        W18783   6.740   1.545   2.853 -0.2621 -0.0869 -0.0062
 2650W        W18784  13.709   3.673  14.830 -0.1663 -0.1487 -0.2727
 2651W        W18785   9.856  13.798   4.341  0.1294 -0.1512  0.1427
 2652W        W18786  11.900  12.580  14.723 -0.2559 -0.0930 -0.0442
 2653W        W18787   1.890  10.543   2.410  0.2708 -0.1966 -0.1854
 2654W        W18788  18.703   1.571  11.605 -0.0630  0.0412  0.1076
 2655W        W18789  18.580   2.336  11.606  0.1998  0.0481  0.2156
 2656W        W18790  17.921  10.012  11.193  0.0860 -0.3488 -0.1735
 2657W        W18791  17.181   0.941   1.381 -0.1094 -0.0334  0.2373
 2658W        W18792   4.877   2.034   5.338 -0.0171 -0.1073  0.1339
 2659W        W18793   7.058   9.531   1.015  0.0893  0.1727  0.2777
 2660W        W18794   0.142   6.195   5.313  0.0376  0.2590 -0.3252
 2661W        W18795   5.458   6.586  12.295  0.0894 -0.1140  0.3115
 2662W        W18796   9.532   6.217  12.876 -0.0344  0.2003 -0.0083
 2663W        W18797  17.912  18.874   2.537  0.0790 -0.3374  0.0462
 2664W        W18798  15.680  14.455   0.851  0.2555 -0.1433  0.1860
 2665W        W18799   2.935  15.261   3.932 -0.3295 -0.1419  0.1371
 2666W        W18800  18.131  10.482   5.664  0.2117  0.2019  0.0958
 2667W        W18801  17.297   9.758   2.868 -0.0093  0.1139  0.1301
 2668W        W18802   5.988   7.217   2.103  0.4987  0.1704 -0.0828
 2669W        W18803  17.317  17.623   2.185  0.1634  0.0660 -0.0949
 2670W        W18804   8.022   1.915  11.892 -0.0393  0.0644  0.2758
 2671W        W18805   7.037   3.456   2.690 -0.0145  0.2646 -0.2062
 2672W        W18806   1.944   2.601  12.198  0.1472  0.0979 -0.2145
 2673W        W18807  13.950   2.129   4.716 -0.0861 -0.1849  0.1385
 2674W        W18808   7.727   5.765   0.017 -0.2875 -0.0234  0.2040
 2675W        W18809   3.608   2.563   2.951  0.3757 -0.0854  0.2721
 2676W        W18810  17.206   1.444  12.579 -0.0113  0.0691  0.3967
 2677W        W18811  12.903  16.288  11.441 -0.1056  0.1062 -0.0805
 2678W        W18812   1.904   6.306   0.302  0.0255 -0.0780  0.1907
 2679W        W18813   4.887  18.153  13.861 -0.0782  0.0416 -0.0022
 2680W        W18814   9.390  18.987  10.604 -0.0154 -0.1391  0.1056
 2681W        W18815   5.592   2.924   4.013 -0.3189  0.0571 -0.0493
 2682W        W18816   3.951   3.084   4.109 -0.0238 -0.2074  0.0598
 2683W        W18817   9.706  15.303  11.181 -0.1662 -0.1804 -0.4882
 2684W        W18818  13.288  12.987  10.268 -0.1792 -0.2655  0.1243
 2685W        W18819  18.367  18.621   0.444 -0.0854 -0.1874 -0.1007
 2686W        W18820  18.765  13.743   0.125 -0.2150 -0.4616 -0.2492
 2687W        W18821  17.284  16.741   4.502 -0.2081  0.0536 -0.2476
 2688W        W18822   4.636  13.171   1.564  0.2086  0.0336  0.0619
 2689W        W18823   1.986   4.508   0.235 -0.1429  0.0177 -0.0463
 2690W        W18824  13.790  18.978  11.275  0.1630 -0.3331  0.1487
 2691W        W18825   0.146   3.018   5.158 -0.3468  0.0706  0.3091
 2692W        W18826  19.029   5.709  14.267  0.0229  0.1581 -0.1185
 2693W        W18827  15.598   2.206  14.490 -0.2059  0.0417  0.3962
 2694W        W18828   6.668   6.398   4.043  0.2377  0.1952  0.0031
 2695W        W18829  10.855   4.983  10.209  0.0952 -0.3940 -0.0916
 2696W        W18830   3.165  16.529   2.052  0.1108  0.0323  0.4136
 2697W        W18831   3.872  10.489   4.744 -0.1237 -0.0877 -0.0621
 2698W        W18832   0.444  10.664  14.290  0.2532  0.1227  0.2985
 2699W        W18833  13.614  13.369  13.261  0.2410 -0.0269 -0.2659
 2700W        W18834   5.651   7.051  12.078  0.0884 -0.0364  0.0947
 2701W        W18835   5.243   5.489   3.718  0.0894  0.1137 -0.0187
 2702W        W18836  18.037   5.188  14.988 -0.1714  0.0501  0.0747
 2703W        W18837   5.113   4.512  14.179  0.2967 -0.1160 -0.1488
 2704W        W18838   6.959  19.267  13.155 -0.3976 -0.2229 -0.0976
 2705W        W18839  13.699   1.974  12.612 -0.0912  0.0040  0.4002
 2706W        W18840   6.774   7.089   1.794 -0.3830 -0.0664 -0.0149
 2707W        W18841  10.331   2.797  12.469  0.2125 -0.4411  0.0939
 2708W        W18842  12.239  17.270  12.298  0.0622  0.3072  0.0669
 2709W        W18843   8.011   7.027   5.128  0.0453  0.1132  0.2446
 2710W        W18844   7.346  11.580   1.173  0.2983  0.1961 -0.3372
 2711W        W18845  13.123  13.604   1.840  0.1831  0.2815 -0.0637
 2712W        W18846   7.569   1.102  14.482 -0.1639  0.2790  0.0956
 2713W        W18847   9.881   5.166  14.319  0.3187 -0.1516  0.2248
 2714W        W18848   7.716   0.943   2.250 -0.0571  0.3023 -0.3559
 2715W        W18849   3.521   5.932   3.181  0.5815 -0.1037  0.0175
 2716W        W18850  13.650  10.979   5.573 -0.2583 -0.1491 -0.0874
 2717W        W18851  14.189  18.064  14.775 -0.0992  0.0636  0.0797
 2718W        W18852  14.650   3.676  13.048 -0.2367 -0.0295 -0.0933
 2719W        W18853   8.710   6.631   1.520  0.0059  0.0096  0.4889
 2720W        W18854  15.312   1.534  11.240 -0.3475 -0.0665 -0.0995
 2721W        W18855  15.485   7.909   2.927  0.1336 -0.2234  0.1492
 2722W        W18856  14.782  19.310   5.042 -0.5004 -0.0215 -0.0150
 2723W        W18857   9.991   8.057   2.806 -0.1487  0.1477  0.2317
 2724W        W18858   0.654   4.456   0.035  0.0974  0.1254  0.0450
 2725W        W18859   0.861   3.920  12.080  0.3536  0.0351 -0.0584
 2726W        W18860  12.130  12.991  13.711 -0.2053  0.1002 -0.1986
 2727W        W18861  12.860   2.111  14.459  0.1720 -0.0418 -0.4707
 2728W        W18862   2.834  14.670   2.721  0.2980  0.1022 -0.1008
 2729W        W18863   7.158  14.647  14.794 -0.1248 -0.1122  0.1517
 2730W        W18864   2.421   4.801  11.970 -0.0799  0.1581  0.0379
 2731W        W18865   2.090   8.125  14.269 -0.1484 -0.1082 -0.3262
 2732W        W18866   6.062  16.156  14.233  0.3726 -0.2398  0.0138
 2733W        W18867  17.121  18.752  13.680 -0.2714  0.3086 -0.5747
 2734W        W18868  12.380   5.735   2.986  0.1002  0.0826  0.1857
 2735W        W18869  13.749   4.952  14.439 -0.1805 -0.0744  0.0362
 2736W        W18870   8.634   4.017   4.798  0.1632 -0.5380 -0.3921
 2737W        W18871  15.936  15.920   1.020  0.0987  0.4573 -0.2544
 2738W        W18872  19.072   7.613  13.357 -0.0289  0.0101 -0.1534
 2739W        W18873   1.211   3.501  12.384  0.3171 -0.1549 -0.1574
 2740W        W18874   5.733   0.045  14.673 -0.0438  0.0637 -0.2584
 2741W        W18875  12.298  16.155  11.115  0.0165  0.0636 -0.0492
 2742W        W18876   5.287  11.999   4.386 -0.0853 -0.1129 -0.0048
 2743W        W18877   4.072  13.095  11.187  0.4196 -0.0445  0.2966
 2744W        W18878   5.368   9.728  11.062 -0.0621 -0.2589  0.1803
 2745W        W18879   8.114   6.840   2.527  0.0479 -0.1067  0.0934
 2746W        W18880   9.352  12.132  13.554  0.0684 -0.1225  0.1162
 2747W        W18881   7.782   0.846  12.086 -0.0361  0.0589  0.2603
 2748W        W18882   1.623   7.341   5.421 -0.4362 -0.4607 -0.2209
 2749W        W18883   6.572  15.071   4.898 -0.0728  0.0185  0.2516
 2750W        W18884  17.776   6.308  13.165  0.1969  0.3020 -0.0978
 2751W        W18885   7.042   5.793   2.534  0.0973 -0.2583  0.1908
 2752W        W18886  17.599  17.715   2.930  0.1482  0.0436 -0.2407
 2753W        W18887  18.336  18.900   4.120  0.2493 -0.0015 -0.3508
 2754W        W18888  18.042   3.261   0.594 -0.0900  0.0745 -0.3436
 2755W        W18889   4.028   2.264  10.122 -0.0281 -0.1087  0.0217
 2756W        W18890  13.011   9.973  14.426  0.2064 -0.1945  0.1196
 2757W        W18891  17.162  12.656   4.479  0.0026 -0.2231 -0.0429
 2758W        W18892  17.405   4.840   3.012  0.1082  0.1644  0.2730
 2759W        W18893  13.639   2.079  11.514  0.0998 -0.2721  0.0924
 2760W        W18894  19.339  19.216  12.081  0.2293  0.1217 -0.0718
 2761W        W18895   6.129  15.635   0.080  0.3384 -0.0152 -0.0733
 2762W        W18896  18.763   3.026  12.833 -0.2876  0.0255 -0.0575
 2763W        W18897  13.959   9.192  11.630  0.0085 -0.0874 -0.1134
 2764W        W18898   7.288   3.484  10.894  0.3330  0.0072  0.2491
 2765W        W18899   0.303  13.927  12.470 -0.3369 -0.1180  0.1363
 2766W        W18900  18.762  19.185   4.107  0.2284 -0.0356  0.3308
 2767W        W18901  18.012   5.471   3.609  0.0216  0.3387 -0.1553
 2768W        W18902   3.460   6.575  12.786 -0.1613 -0.0010 -0.0877
 2769W        W18903  17.273   3.326  14.477  0.0577  0.2522  0.3271
 2770W        W18904  17.820  19.156  10.205  0.0380 -0.0064  0.0820
 2771W        W18905  10.737  17.427  12.798  0.1036  0.1802  0.1711
 2772W        W18906  15.193   4.623  14.614 -0.1990 -0.1391 -0.3269
 2773W        W18907  15.310   2.062  11.937  0.1111 -0.2807 -0.2893
 2774W        W18908  16.073   0.450  10.678  0.1388 -0.0524  0.2257
 2775W        W18909  17.048  18.662   0.131  0.0032 -0.0147  0.3314
 2776W        W18910   4.274   2.962  12.705  0.0432  0.0520 -0.2461
 2777W        W18911   2.537  15.919  11.789  0.0466  0.0130 -0.1405
 2778W        W18912  14.560  12.078   3.972  0.2458 -0.1556  0.2843
 2779W        W18913  11.236  17.934   5.309  0.0228  0.1676  0.3952
 2780W        W18914   9.750  15.276   3.048 -0.0982 -0.2704 -0.3480
 2781W        W18915  19.337  11.725  13.587 -0.3426  0.0542 -0.1003
 2782W        W18916  13.008  12.505   2.688 -0.2608  0.0385  0.1273
 2783W        W18917   6.573  14.228  10.516  0.1100  0.2239  0.2906
 2784W        W18918   0.275  17.467   1.064 -0.0349  0.1103 -0.1645
 2785W        W18919  11.857   7.973   4.393  0.3091 -0.2144  0.1598
 2786W        W18920  12.432  10.735   0.351  0.2901  0.0737  0.3205
 2787W        W18921   8.620   8.815  13.772  0.3247 -0.4806  0.0725
 2788W        W18922   7.793  16.544   1.347  0.0905 -0.1942  0.0400
 2789W        W18923   3.595   2.779  12.069  0.1754  0.0965  0.2448
 2790W        W18924  17.610  11.543   3.969  0.0905  0.1487 -0.0780
 2791W        W18925  11.104  10.977  12.769 -0.0889  0.3136  0.0694
 2792W        W18926  15.625  11.272  10.862 -0.1540  0.3636  0.0903
 2793W        W18927  16.874   8.963  13.519  0.0674  0.1910  0.1497
 2794W        W18928   6.222   9.262  12.943 -0.1635  0.1827 -0.0039
 2795W        W18929  15.426   1.863   0.902  0.3572  0.0901  0.5447
 2796W        W18930  12.137   3.243  11.737 -0.0885  0.0569  0.0977
 2797W        W18931  17.188  12.612  11.618 -0.3810 -0.0114 -0.3945
 2798W        W18932  14.116  18.659  14.636  0.1420  0.1072 -0.3405
 2799W        W18933   8.195   8.755   5.515 -0.3066  0.5563  0.0288
 2800W        W18934   9.287  10.508   0.757  0.1603  0.1064  0.1837
 2801W        W18935   3.443   0.744   0.283 -0.1752  0.0107 -0.1409
 2802W        W18936  11.892  17.064   5.762 -0.2617 -0.1400 -0.1486
 2803W        W18937  14.045   5.543   0.587  0.0593 -0.0126 -0.0569
 2804W        W18938   7.390   7.049  14.061  0.0507 -0.5209 -0.1263
 2805W        W18939  15.528  12.993  11.106  0.3077  0.1851 -0.3187
 2806W        W18940  13.589  11.787  14.093 -0.0838 -0.2363  0.2677
 2807W        W18941  19.191   8.356  10.038  0.2090 -0.1222  0.2237
 2808W        W18942  10.437   8.658   4.782  0.3642 -0.1373  0.1390
 2809W        W18943   2.116  10.702  14.402 -0.1980 -0.0917 -0.0791
 2810W        W18944  19.197  14.141   2.542 -0.0448 -0.3684 -0.1761
 2811W        W18945  11.990   9.407   0.420 -0.2350  0.2710  0.0114
 2812W        W18946   5.169   2.809  11.999  0.4543 -0.0621  0.1683
 2813W        W18947   4.506   3.456  10.305 -0.1892  0.1318  0.2542
 2814W        W18948   6.734   3.134  13.606  0.1167  0.2937 -0.0072
 2815W        W18949  10.195   0.742   4.519  0.2989  0.0608 -0.0237
 2816W        W18950   6.492   9.036   0.176  0.1447 -0.1475  0.0789
 2817W        W18951  13.237   0.018   5.541  0.1339 -0.1512  0.0689
 2818W        W18952  19.215   6.565  10.627 -0.0610 -0.2065  0.1542
 2819W        W18953   8.836  13.547   0.505 -0.0089 -0.0456 -0.0082
 2820W        W18954   9.927  19.235  11.315 -0.0131  0.0449  0.0792
 2821W        W18955   4.110   5.857  12.323 -0.0201  0.0982  0.1241
 2822W        W18956   4.009  11.364  14.839 -0.2107  0.0060  0.2368
 2823W        W18957  16.603   3.336  12.138  0.2213 -0.1508  0.1893
 2824W        W18958   4.601   6.301   4.658  0.1044  0.0415 -0.0330
 2825W        W18959   2.978  18.628   0.023  0.0503 -0.0094  0.1241
 2826W        W18960  13.723  19.042   0.147  0.2735 -0.0072 -0.2787
 2827W        W18961  13.068   1.568  12.514  0.1261 -0.0855 -0.1945
 2828W        W18962   4.968  17.838  10.334 -0.1297 -0.1653 -0.0388
 2829W        W18963   5.133  10.046   3.087  0.2445 -0.0581  0.0801
 2830W        W18964   9.066   6.638   1.161 -0.3466  0.0604  0.1972
 2831W        W18965  12.949   7.434  11.673  0.0141 -0.1468  0.0552
 2832W        W18966   0.827   7.739   3.286 -0.1188  0.1162 -0.0564
 2833W        W18967   7.561   3.321  14.747 -0.0516  0.0693  0.0742
 2834W        W18968   8.703  11.947   2.246  0.4282 -0.0824 -0.0366
 2835W        W18969  17.328   7.739  11.515 -0.1177  0.1285  0.0171
 2836W        W18970   1.323   9.443  12.972 -0.1130 -0.1299  0.0274
 2837W        W18971   9.573  11.043  14.976  0.0346 -0.3526 -0.1060
 2838W        W18972  17.094   9.233  11.669  0.0592 -0.0454 -0.2279
 2839W        W18973  15.700  11.979  10.318  0.0186  0.3076 -0.2386
 2840W        W18974   9.071   6.395   2.868  0.0428  0.1519 -0.0837
 2841W        W18975  17.414  14.818  14.397  0.0154 -0.3550 -0.0458
 2842W        W18976   0.048  11.060   4.701  0.1104  0.3591 -0.1386
 2843W        W18977   9.113   2.768   0.084 -0.0079 -0.0581  0.0546
 2844W        W18978   4.652  11.600   3.474 -0.0741  0.1666 -0.1354
 2845W        W18979  17.582   9.702   9.321 -0.1128 -0.1986 -0.1129
 2846W        W18980  12.426  11.893   0.318  0.0326  0.1645  0.1095
 2847W        W18981   0.240   8.103  12.842  0.3340 -0.0881 -0.1451
 2848W        W18982   2.585   4.525   2.523 -0.0758  0.1963  0.1592
 2849W        W18983  13.803   9.271   3.927 -0.1800 -0.1482 -0.0202
 2850W        W18984   3.961  14.118  13.511  0.1223  0.3599 -0.1849
 2851W        W18985   4.514   2.689  13.430 -0.0890 -0.0780  0.1805
 2852W        W18986  12.818  14.230  11.532 -0.2092 -0.2340 -0.0896
 2853W        W18987   8.891   8.578   4.976 -0.0404  0.0494  0.2951
 2854W        W18988   6.964  14.369   4.534 -0.4353  0.1635  0.1432
 2855W        W18989   1.678   6.246  13.724  0.1747  0.0290 -0.1451
 2856W        W18990   4.656   7.227  13.487 -0.2353  0.5268 -0.0004
 2857W        W18991   7.773  10.328  13.868  0.3047  0.0983  0.0591
 2858W        W18992   4.228  17.715  11.078 -0.0746  0.1650  0.0485
 2859W        W18993  15.774   7.397  12.155  0.3353  0.1372  0.1166
 2860W        W18994   8.081   1.384  11.974  0.1130 -0.1166 -0.1459
 2861W        W18995   9.603  16.316  10.807  0.2533  0.1577  0.1843
 2862W        W18996   9.049  18.331   0.946  0.0434 -0.3801  0.1851
 2863W        W18997   2.129   4.442   2.046 -0.0743 -0.0328  0.1270
 2864W        W18998  17.088   4.986   0.947 -0.0269  0.0201 -0.0460
 2865W        W18999   7.062   7.840  11.486 -0.2376 -0.1229 -0.2106
 2866W        W19000  15.001  13.049   1.991 -0.1408  0.0372  0.2596
 2867W        W19001  10.915   5.396   0.706 -0.2318  0.3492 -0.0387
 2868W        W19002   6.026   2.174  14.283  0.0205  0.0911  0.0468
 2869W        W19003   7.036   0.150   3.995  0.0470  0.3139 -0.0897
 2870W        W19004   4.112   4.698   4.289  0.3064 -0.0716  0.2730
 2871W        W19005  14.167  14.460   2.882 -0.0298  0.0804 -0.0235
 2872W        W19006   7.467  12.229   3.710 -0.0421  0.0463 -0.0473
 2873W        W19007  17.695   1.966  10.947  0.1400 -0.1266  0.0081
 2874W        W19008   2.359  11.776  10.767 -0.1110 -0.0262  0.3117
 2875W        W19009   4.975   3.705  12.935 -0.0516  0.0067  0.1628
 2876W        W19010   7.761  19.237  12.928  0.1297  0.0013 -0.1304
 2877W        W19011   1.829   5.756   0.915 -0.3097 -0.1793 -0.0873
 2878W        W19012   9.334   2.177   5.479  0.0443 -0.3317 -0.0916
 2879W        W19013  15.640  13.443   5.373 -0.0661 -0.2339 -0.1541
 2880W        W19014  10.452  16.421  14.073  0.3802 -0.2383  0.1271
 2881W        W19015  14.425   6.262   0.694  0.2096  0.1317  0.2993
 2882W        W19016   7.782  13.857   1.972 -0.2919  0.0849 -0.0372
 2883W        W19017   3.200  14.951   1.737  0.2689  0.0495  0.2945
 2884W        W19018  17.132  11.655  14.489  0.1185  0.0404 -0.1604
 2885W        W19019   2.820  12.311  13.726 -0.2372  0.2107  0.0763
 2886W        W19020   2.974  12.483   2.227 -0.2164  0.2941  0.0024
 2887W        W19021  17.451  11.992   4.178 -0.1928  0.0176  0.1794
 2888W        W19022  14.579   2.215  12.544 -0.1929  0.2012  0.0015
 2889W        W19023   3.846  18.049  11.032 -0.3660  0.0163 -0.1393
 2890W        W19024  16.052  14.770   1.073 -0.2903 -0.2572  0.0717
 2891W        W19025  18.033  16.486   4.701 -0.3208  0.1592 -0.0032
 2892W        W19026   6.982  11.978  12.231  0.2327  0.0995 -0.0475
 2893W        W19027   3.683  10.325   3.577 -0.1231 -0.0159 -0.0845
 2894W        W19028   4.521  14.455   1.352 -0.2016 -0.1213  0.1662
 2895W        W19029  13.073  10.882   3.845 -0.3423  0.0866 -0.2569
 2896W        W19030  17.534   6.034  10.294 -0.1273 -0.2141  0.0172
 2897W        W19031  15.521   2.681  14.611  0.2459  0.1042  0.2476
 2898W        W19032   6.167  18.587  12.631  0.0447 -0.0888  0.1139
 2899W        W19033   8.318   2.076   3.420  0.1710  0.0440  0.1620
 2900W        W19034   3.460   1.456  12.410 -0.0965  0.1996 -0.0001
 2901W        W19035   7.584  10.543   0.380  0.1990  0.4782 -0.0685
 2902W        W19036   8.205   2.664  11.117  0.0279 -0.2040 -0.1601
 2903W        W19037   3.492   9.636   3.585 -0.0712 -0.0749  0.1535
 2904W        W19038   7.252   9.155   5.133  0.0319 -0.0334 -0.2987
 2905W        W19039  16.556  10.117   2.608 -0.0281  0.1226 -0.3533
 2906W        W19040   2.000   3.978  14.085  0.0408 -0.0761  0.6008
 2907W        W19041   8.740  16.452  12.034 -0.1377  0.1942  0.1853
 2908W        W19042   2.538   2.234   1.879 -0.1071  0.1482 -0.0520
 2909W        W19043  11.276   3.259   0.854  0.0459 -0.0647 -0.0626
 2910W        W19044  15.033   1.190  13.401  0.0045  0.1040  0.3365
 2911W        W19045   8.824   1.415  14.995 -0.1710  0.1218  0.0966
 2912W        W19046  18.871   6.044   4.978 -0.0229  0.0793  0.1772
 2913W        W19047   4.767  15.354   2.768  0.3146  0.1358  0.0121
 2914W        W19048  16.415  15.541   0.909 -0.1368  0.1601 -0.4457
 2915W        W19049  14.680  18.018   2.284 -0.1392  0.5269 -0.2247
 2916W        W19050  12.473  11.862   1.745 -0.1347  0.2835 -0.2096
 2917W        W19051  12.071  17.385  13.986  0.1145  0.2040 -0.0507
 2918W        W19052   6.987   6.765   2.508  0.5246  0.1695  0.1781
 2919W        W19053   3.716   1.083  10.618  0.0732 -0.1062  0.0110
 2920W        W19054  16.441   3.097   0.840 -0.2220  0.2800 -0.1632
 2921W        W19055  16.672   8.269   0.944  0.0871 -0.3278 -0.0081
 2922W        W19056   3.259  19.213  14.409 -0.0732 -0.0553 -0.0129
 2923W        W19057   9.603  14.837  13.622 -0.1423 -0.1385 -0.1909
 2924W        W19058  11.078   4.716  11.543  0.0726 -0.1837 -0.1714
 2925W        W19059   2.569   7.387  10.122  0.1593  0.2900  0.0483
 2926W        W19060   0.932  16.586  13.170 -0.3319 -0.1202 -0.1188
 2927W        W19061  15.984   6.883  12.125 -0.1713 -0.0003  0.0726
 2928W        W19062  10.829  10.147  14.761 -0.1431 -0.3191  0.0751
 2929W        W19063   1.885   8.595  14.450  0.0895 -0.0762 -0.5035
 2930W        W19064   2.856  18.291   0.493  0.1767 -0.3145  0.2511
 2931W        W19065  18.467   9.588  12.137 -0.0545  0.1542 -0.2719
 2932W        W19066   6.987   0.413  11.997  0.1622  0.2326  0.1379
 2933W        W19067  14.462  13.842   1.951 -0.0344  0.0659  0.1006
 2934W        W19068   4.014   4.679   2.855 -0.1720  0.1334  0.0311
 2935W        W19069  15.235   8.627  11.733 -0.0288 -0.4885 -0.1072
 2936W        W19070   7.981  18.514   3.725  0.0445  0.0704 -0.1501
 2937W        W19071  17.295   3.207   0.829  0.0518 -0.0167 -0.1074
 2938W        W19072   5.805   9.774   1.469  0.1851 -0.0319  0.1277
 2939W        W19073  19.048   4.091  11.169  0.1755 -0.0166 -0.0134
 2940W        W19074  15.803  11.036   0.383  0.1418 -0.4174 -0.3874
 2941W        W19075   2.655   8.635   2.589  0.0542 -0.2577 -0.3106
 2942W        W19076   9.228  13.514  12.578  0.2682 -0.2421  0.4380
 2943W        W19077  17.522  17.118   4.388  0.2109  0.2620 -0.0378
 2944W        W19078  12.032   0.020  12.520  0.4579 -0.0654  0.2543
 2945W        W19079  10.235  12.923  13.274 -0.1385  0.1829 -0.1438
 2946W        W19080   4.052  13.637   0.901  0.0002  0.1078 -0.2776
 2947W        W19081   3.547   3.043   3.170  0.0914  0.0638 -0.3135
 2948W        W19082   8.535  15.316   5.428  0.2465 -0.3004 -0.1978
 2949W        W19083   3.124   7.594   5.096  0.0367 -0.1027  0.0576
 2950W        W19084  16.704   3.985  14.019 -0.0889 -0.3966  0.2630
 2951W        W19085   3.445   6.629   0.868 -0.1039 -0.1760 -0.4092
 2952W        W19086   1.585   6.543   1.301 -0.0493 -0.0394  0.0022
 2953W        W19087  13.751   5.762  10.920 -0.1268  0.1547 -0.1261
 2954W        W19088  12.168   1.601  10.918  0.1972  0.1767  0.1137
 2955W        W19089   2.665  14.400  12.962  0.3739 -0.1285  0.0402
 2956W        W19090  12.886  12.525  12.953  0.0497 -0.1217 -0.0781
 2957W        W19091  14.590   4.316  13.450  0.2083  0.0984  0.1468
 2958W        W19092   1.115  17.879   5.738  0.0043 -0.1652 -0.0326
 2959W        W19093  10.350   2.234   2.157 -0.1686  0.0218  0.0717
 2960W        W19094   6.078   2.101   2.125  0.0857  0.2604  0.0071
 2961W        W19095  16.271   6.931  13.713 -0.4773 -0.0641  0.1872
 2962W        W19096  11.975   4.926   2.412  0.0140  0.2073  0.1753
 2963W        W19097   7.806  10.517   3.429  0.0551 -0.2089  0.0396
 2964W        W19098   3.661   3.943  10.673  0.1395 -0.0462  0.1392
 2965W        W19099  18.419  10.005  11.814 -0.0499 -0.1726 -0.4588
 2966W        W19100   6.236  10.506  11.466  0.0832  0.1700 -0.0206
 2967W        W19101  11.099   9.217   1.831 -0.1729 -0.0306 -0.0725
 2968W        W19102  14.485  12.754   0.915  0.3270  0.0056  0.0018
 2969W        W19103  14.982  11.777  12.841  0.2290  0.1030  0.1585
 2970W        W19104  12.815   3.971  13.182 -0.2439 -0.3041  0.1373
 2971W        W19105  10.208  11.223  14.106  0.2954  0.1799 -0.0727
 2972W        W19106   3.621   8.016   3.495 -0.0955 -0.3564 -0.0111
 2973W        W19107   6.030  17.332   5.438 -0.1082 -0.0227  0.0879
 2974W        W19108  17.257  10.921  11.774 -0.0604  0.0737  0.1504
 2975W        W19109  14.417   1.818   3.444 -0.1442  0.2035 -0.0788
 2976W        W19110  13.893   2.427  10.745  0.3007 -0.0938  0.1179
 2977W        W19111  18.816   2.732   3.063  0.0126  0.1187  0.1813
 2978W        W19112   2.955   6.379  14.507  0.2686  0.2771  0.0136
 2979W        W19113  10.484   5.550  11.617 -0.0062 -0.1096 -0.3014
 2980W        W19114   9.943  17.339   0.004  0.3296 -0.0425  0.0040
 2981W        W19115   1.438   9.052  13.842 -0.1193 -0.2006  0.0269
 2982W        W19116   3.467   1.681  14.176  0.2289  0.0305 -0.2188
 2983W        W19117   9.899  10.860  13.220  0.0020  0.3873  0.1246
 2984W        W19118  11.209  14.651  10.867 -0.0883 -0.2754 -0.2458
 2985W        W19119   3.526  13.567   9.911 -0.2104 -0.3513 -0.1567
 2986W        W19120  16.695   6.696  14.014  0.2256 -0.0918  0.0275
 2987W        W19121   2.343   2.536  11.295  0.0724 -0.0995 -0.4156
 2988W        W19122  15.681  14.011   1.038 -0.0401 -0.1267 -0.0715
 2989W        W19123   1.744  10.679  10.890 -0.4536 -0.0174 -0.1990
 2990W        W19124  18.026  10.040   4.867  0.0022 -0.1559  0.0065
 2991W        W19125   2.286   9.313   1.311 -0.0366  0.3197  0.3191
 2992W        W19126  10.777   2.450  12.381  0.1227 -0.0663  0.3357
 2993W        W19127   5.329   7.709   2.251 -0.1446  0.0107  0.1213
 2994W        W19128   5.945   6.869  13.863 -0.1857 -0.1939 -0.4946
 2995W        W19129  10.080   2.262   3.838  0.1816 -0.1851  0.2227
 2996W        W19130   6.181   6.757   1.949  0.3042 -0.1958 -0.2510
 2997W        W19131   3.633   5.725   3.927 -0.1947 -0.1016  0.1068
 2998W        W19132   6.263  13.364   4.638 -0.4754  0.1067  0.2088
 2999W        W19133  11.716   2.436  13.264  0.1404 -0.0601 -0.2605
 3000W        W19134   8.014   4.977   3.500 -0.3905  0.0831 -0.2423
 3001W        W19135   1.613  14.988  14.152 -0.0610  0.1485  0.0184
 3002W        W19136   2.939   2.159   1.615  0.2320 -0.2159  0.2532
 3003W        W19137  10.515   9.819  14.991  0.1187 -0.1835  0.1579
 3004W        W19138   9.852  14.530   9.823 -0.0437 -0.1243 -0.0893
 3005W        W19139  15.137  12.509   3.341  0.2189  0.4955  0.2559
 3006W        W19140  11.405  14.067   4.024  0.0531  0.4626 -0.3492
 3007W        W19141  18.681   3.771   4.271  0.2365 -0.2373  0.2098
 3008W        W19142   1.445   0.729   1.957 -0.0145  0.0863  0.2752
 3009W        W19143   9.845   6.684  11.063 -0.0096 -0.2084  0.0119
 3010W        W19144   4.702   1.110  12.595  0.0158  0.0597  0.1157
 3011W        W19145   7.933  13.929   0.591  0.0362 -0.0174 -0.1518
 3012W        W19146   4.097  16.282  13.091 -0.1142 -0.3296 -0.0038
 3013W        W19147   8.740  15.724   4.517  0.2703 -0.1218  0.0033
 3014W        W19148   7.862  18.309   0.193  0.1610  0.3546 -0.2711
 3015W        W19149   0.254   6.288  11.180  0.4210  0.2204  0.1229
 3016W        W19150   7.011   5.147   5.483  0.4683 -0.4251  0.0620
 3017W        W19151  17.608  18.452   3.582  0.3301 -0.1099  0.4289
 3018W        W19152   4.843   3.207  12.850 -0.0612 -0.0689 -0.2730
 3019W        W19153   3.528  14.973  14.956  0.3660 -0.1325  0.1370
 3020W        W19154   0.510  18.905   1.386  0.3036 -0.2188 -0.0245
 3021W        W19155   9.023  10.083   0.856 -0.3230 -0.0981 -0.3871
 3022W        W19156  17.578  13.742  10.486 -0.0921  0.2732 -0.1714
 3023W        W19157   7.225   2.073   9.701  0.5044  0.1574 -0.1859
 3024W        W19158  18.003   6.579   2.187 -0.7119  0.0118 -0.0068
 3025W        W19159  15.875  10.471   1.665  0.0635  0.1212 -0.0666
 3026W        W19160   9.198  16.882  10.699  0.0916 -0.1580 -0.2800
 3027W        W19161   5.374  13.943  11.914 -0.0314 -0.1523 -0.3431
 3028W        W19162  15.004   2.902   2.658  0.2130 -0.0192 -0.2996
 3029W        W19163  14.136   3.471  10.674 -0.1374  0.0713 -0.1002
 3030W        W19164   4.225   2.460   2.167  0.3123 -0.3594 -0.0170
 3031W        W19165  17.388   7.151  12.804 -0.0858  0.2500  0.1625
 3032W        W19166  13.956  12.327   0.935 -0.2071 -0.0235  0.2002
 3033W        W19167  13.474  18.830  12.467 -0.0109  0.2382  0.1040
 3034W        W19168   7.858  17.871   9.764  0.0588  0.1399  0.2382
 3035W        W19169  10.868   5.756   0.134  0.0900 -0.0666 -0.1238
 3036W        W19170   1.607   2.544   9.207  0.0960 -0.1233 -0.2234
 3037W        W19171  19.160   3.233   3.803 -0.0040 -0.0070  0.1934
 3038W        W19172  10.002  18.446   3.472  0.0458  0.2156  0.1851
 3039W        W19173  12.588  10.562  10.685 -0.0320 -0.1756 -0.3262
 3040W        W19174   3.927  15.304   3.796  0.0401 -0.4098 -0.1877
 3041W        W19175   3.107   2.885   3.441  0.2031  0.0474  0.0705
 3042W        W19176  11.235   6.329   0.565  0.0418 -0.0111  0.3590
 3043W        W19177   3.586  13.565  11.478 -0.3257  0.1303  0.1197
 3044W        W19178  12.578  10.596  12.996  0.1189 -0.0312  0.2700
 3045W        W19179   0.595  17.183  11.261 -0.4627 -0.1000  0.1163
 3046W        W19180  12.307  10.118  10.748 -0.0666  0.2789  0.1145
 3047W        W19181   0.353   6.271   4.693 -0.1464 -0.2642 -0.3518
 3048W        W19182  15.863  10.656  11.780  0.2515  0.3001  0.0069
 3049W        W19183   5.640   0.677  10.034 -0.2486 -0.2096  0.2671
 3050W        W19184   2.671  10.317   3.796 -0.1796  0.1467  0.0548
 3051W        W19185  10.612   6.574   0.665 -0.0400  0.0999  0.0663
 3052W        W19186  13.581   7.449   1.525 -0.0004 -0.0063 -0.2113
 3053W        W19187   0.297  16.252  14.262  0.0893 -0.0936  0.2827
 3054W        W19188  14.608   0.628   5.595 -0.2421 -0.1165 -0.0629
 3055W        W19189  15.679   2.213   4.018  0.6494 -0.3958 -0.2087
 3056W        W19190  14.684  16.448   3.696 -0.1339 -0.1520  0.0245
 3057W        W19191  16.730   9.611   2.401  0.0365  0.1569  0.1313
 3058W        W19192  10.257   9.786  12.470  0.1628 -0.0983 -0.0629
 3059W        W19193   9.550   7.459   1.016  0.0847  0.1661  0.0361
 3060W        W19194  15.255  18.312   3.622  0.1628  0.2085 -0.2190
 3061W        W19195   9.699   7.792   2.540 -0.1701  0.1196 -0.2576
 3062W        W19196   0.721  10.187   0.744  0.2220 -0.1289 -0.0455
 3063W        W19197  13.718   1.235  14.098 -0.2832 -0.0992  0.1607
 3064W        W19198   4.361  17.128   1.302 -0.0435  0.1953 -0.3117
 3065W        W19199  15.734  14.833   0.020  0.0264 -0.1756  0.0245
 3066W        W19200   0.754   2.947   3.390 -0.0293  0.0370  0.0260
 3067W        W19201  10.177  14.174  10.690 -0.2106 -0.0438 -0.0934
 3068W        W19202   7.176  12.566  10.704 -0.3168 -0.1266  0.2300
 3069W        W19203   7.711   5.935   4.979 -0.0308  0.3340 -0.2373
 3070W        W19204  15.159   1.019  10.772 -0.3051 -0.1927 -0.2245
 3071W        W19205  11.653   8.671  13.558  0.0910 -0.0776  0.0538
 3072W        W19206  10.906   0.418   0.304  0.0829  0.1909  0.4656
 3073W        W19207  12.602   3.323   1.618  0.3678 -0.2815  0.2362
 3074W        W19208  13.528  10.450  10.086 -0.2514 -0.0737  0.4221
 3075W        W19209  10.895   4.548   3.139 -0.0035  0.1051  0.1065
 3076W        W19210  19.199  14.721  14.040 -0.1765  0.1742  0.0817
 3077W        W19211   5.121   9.780  13.324 -0.0670 -0.0365  0.3153
 3078W        W19212  17.089  13.514   0.139  0.1546  0.2457 -0.1178
 3079W        W19213  10.142  12.550  12.839 -0.0694  0.4070 -0.2969
 3080W        W19214  17.435   4.625   2.284  0.0830 -0.0714  0.1244
 3081W        W19215  15.103  13.251  14.844  0.3496 -0.1076  0.0920
 3082W        W19216   6.887  18.379  12.140  0.0663 -0.1026  0.1350
 3083W        W19217  18.099  14.715  11.494 -0.2039 -0.1140 -0.1191
 3084W        W19218  16.621  12.891  11.486 -0.0243 -0.2818 -0.0315
 3085W        W19219   5.891   8.186  13.517 -0.0563  0.0675 -0.2100
 3086W        W19220   4.580  15.178   1.949  0.3502 -0.0827 -0.3279
 3087W        W19221   6.928  13.232   2.527  0.0380 -0.1216 -0.2984
 3088W        W19222  10.355  11.488  13.116  0.1428 -0.0227  0.0932
 3089W        W19223   7.003  18.826  13.421 -0.1544  0.1093 -0.0926
 3090W        W19224   2.326  11.319   0.224 -0.5284 -0.3677  0.1192
 3091W        W19225  17.813   2.602  10.907  0.2218 -0.2331  0.0907
 3092W        W19226  16.790  12.872   1.473  0.2552  0.0802 -0.0287
 3093W        W19227  16.014   4.032  12.833 -0.0159  0.0505  0.1656
 3094W        W19228   1.864   5.463  14.348  0.2084  0.1580 -0.0136
 3095W        W19229  10.159  14.545  11.067  0.0175  0.0172 -0.4815
 3096W        W19230  16.811  17.651   1.796 -0.0365 -0.1376 -0.2456
 3097W        W19231  14.585  11.871  13.210 -0.0314  0.0296  0.0742
 3098W        W19232   0.226   2.489  14.508  0.1277  0.0537  0.2019
 3099W        W19233   7.651  14.765   2.335  0.1007  0.0736  0.0382
 3100W        W19234  12.006   7.938   2.628  0.0375  0.3283  0.1063
 3101W        W19235   8.309   4.572  13.162 -0.1335 -0.3117  0.2673
 3102W        W19236   4.398  12.498  11.654 -0.0971  0.3350 -0.0571
 3103W        W19237  10.252  11.120  11.513 -0.0640  0.0847  0.0902
 3104W        W19238  17.882  12.382   1.091  0.1125  0.1763 -0.1348
 3105W        W19239  14.127  13.357   4.847 -0.0500  0.1569 -0.3807
 3106W        W19240   7.151  18.466   1.180 -0.2991 -0.3923  0.1004
 3107W        W19241  12.059   4.993  14.078 -0.3629  0.1273  0.1746
 3108W        W19242  18.998  13.409  12.300  0.1146 -0.1918  0.0965
 3109W        W19243  15.305  12.989  14.478  0.1377  0.1357  0.1736
 3110W        W19244   0.457   6.730  14.275  0.2171  0.2049 -0.1403
 3111W        W19245   1.059   7.745  11.681  0.0304 -0.2117  0.2494
 3112W        W19246   7.760  12.985  13.938  0.2732 -0.1878  0.2021
 3113W        W19247  12.383  16.611   0.481  0.1427 -0.3739  0.1730
 3114W        W19248  15.735   8.915   3.595  0.0370  0.0813  0.0224
 3115W        W19249  16.264  13.061   4.002  0.0372  0.1468 -0.2956
 3116W        W19250  11.449   8.971  10.680  0.2954 -0.0876  0.4682
 3117W        W19251   3.547   6.786   3.155  0.2050 -0.0170  0.1123
 3118W        W19252  14.861   8.340   1.261  0.1198 -0.0214 -0.0638
 3119W        W19253  13.418  16.248   3.013  0.2499  0.0849 -0.3449
 3120W        W19254  12.860   7.355  14.141  0.1188 -0.0866  0.1263
 3121W        W19255  16.344   2.651   3.106 -0.0624  0.1905  0.2505
 3122W        W19256  13.294   7.651   5.420  0.0479  0.0341 -0.0431
 3123W        W19257   2.677   2.726   3.598 -0.2041 -0.1013 -0.0248
 3124W        W19258  12.163   5.653  12.006 -0.1737  0.2454  0.0556
 3125W        W19259   7.307  10.335  14.038 -0.1916 -0.2120  0.1292
 3126W        W19260  16.110  12.849   3.604  0.0022 -0.0161  0.0049
 3127W        W19261  11.233   3.724   5.520  0.1066  0.0980  0.0494
 3128W        W19262   5.490  16.025   4.679  0.0882  0.1846 -0.2439
 3129W        W19263  16.863   7.852  13.271  0.2946 -0.0574 -0.0962
 3130W        W19264   7.013   1.617   4.149  0.4321  0.3391  0.0020
 3131W        W19265  15.245   0.461  13.080  0.2649  0.0134  0.1957
 3132W        W19266  13.516  18.862   1.696 -0.1565  0.0883 -0.1298
 3133W        W19267  14.452  17.285   2.794 -0.0937  0.3966 -0.0253
 3134W        W19268   0.156   1.479   3.999  0.2377  0.3390 -0.2526
 3135W        W19269   2.348  10.445   5.561 -0.0218 -0.1877  0.0331
 3136W        W19270   0.517  19.220  12.144  0.1975 -0.1018  0.3765
 3137W        W19271  10.414  11.857   2.020  0.0282 -0.0923 -0.0732
 3138W        W19272  17.502  14.480  14.818 -0.1117 -0.3582 -0.0070
 3139W        W19273   5.773  18.528   2.079 -0.3802 -0.0199  0.0494
 3140W        W19274  11.426   6.720  12.597  0.1002  0.1383 -0.0472
 3141W        W19275  12.210  17.189   2.548  0.2099 -0.1072  0.0123
 3142W        W19276  13.116   1.669   5.321 -0.0787  0.0744  0.2206
 3143W        W19277  12.579   3.240  12.534  0.0678  0.1591  0.1298
 3144W        W19278  16.104   1.022  10.560  0.0578 -0.1335 -0.2057
 3145W        W19279   7.700   3.982  11.661  0.0721  0.4560 -0.1806
 3146W        W19280   5.579   1.008   0.851 -0.2133 -0.2743 -0.2749
 3147W        W19281   9.589   9.494  13.512 -0.1872 -0.1741 -0.1747
 3148W        W19282   3.997  12.877   2.334 -0.0805  0.4365  0.0691
 3149W        W19283  12.266  18.519   0.059  0.1707  0.1435 -0.1812
 3150W        W19284   1.968   6.731  11.423 -0.2841 -0.0609  0.0141
 3151W        W19285  13.685  13.479   0.186  0.1497 -0.0112 -0.4122
 3152W        W19286  11.612   9.880   3.132  0.1685 -0.3889 -0.0619
 3153W        W19287   5.379   2.004   2.763 -0.0679  0.2844  0.0069
 3154W        W19288  17.748  16.380   0.090  0.0916  0.1668  0.2928
 3155W        W19289   3.954   8.744   4.822 -0.2082  0.0286 -0.0523
 3156W        W19290  11.142   6.248   1.265  0.3839 -0.0659  0.0172
 3157W        W19291  14.571  10.342   3.878 -0.1443  0.0291 -0.1225
 3158W        W19292  14.758   7.713  11.958 -0.0908  0.0206 -0.1997
 3159W        W19293  10.345  11.556   4.770  0.0993  0.0965 -0.1091
 3160W        W19294  16.730   6.751   5.007  0.1702  0.0831  0.1175
 3161W        W19295  14.750  16.286   4.576 -0.4165 -0.1849 -0.1521
 3162W        W19296   0.919  12.497   2.483  0.0573 -0.1261  0.1945
 3163W        W19297  18.714   5.378  13.822  0.4419 -0.0845 -0.2562
 3164W        W19298   7.944  16.790   2.888  0.1051 -0.0431 -0.0878
 3165W        W19299   2.922   4.334   0.299  0.1103 -0.2969  0.0634
 3166W        W19300  12.960  12.151  13.574 -0.1929  0.1290 -0.1133
 3167W        W19301   7.624  16.853   0.802  0.0497 -0.1478 -0.1540
 3168W        W19302   1.357  12.062   0.585  0.0655 -0.2158  0.2481
 3169W        W19303   6.160  11.002   1.211 -0.1690 -0.1520 -0.0260
 3170W        W19304  18.261  12.729   2.767 -0.2551 -0.2237  0.1561
 3171W        W19305  17.310   1.623   3.335 -0.2954 -0.0872  0.1808
 3172W        W19306  11.780   6.738   2.664  0.0691  0.1338 -0.0061
 3173W        W19307  13.322   1.825  14.600  0.0538 -0.2121 -0.0563
 3174W        W19308  19.009   4.462  12.279  0.0021 -0.3449  0.0231
 3175W        W19309   7.517   8.117  13.294 -0.3141  0.2144 -0.1316
 3176W        W19310   5.042  15.385  13.744  0.2743  0.0697 -0.0410
 3177W        W19311  10.889   3.832   4.232 -0.3679 -0.0320 -0.0239
 3178W        W19312   4.911  16.569  13.329  0.0370  0.2975  0.0501
 3179W        W19313  11.899   7.306   3.320  0.1974 -0.0567 -0.1786
 3180W        W19314  17.133  17.477   4.314  0.1298  0.1700  0.0555
 3181W        W19315  15.760   2.030   3.342 -0.2187 -0.0353 -0.0312
 3182W        W19316   3.769   2.363  14.375 -0.1912  0.0915 -0.2654
 3183W        W19317   5.966   8.690  12.701  0.2547 -0.0257 -0.1301
 3184W        W19318  10.149   7.101   0.205  0.0496  0.4220  0.0307
 3185W        W19319   6.803   0.738   1.700  0.1958  0.1155  0.0524
 3186W        W19320   3.167   7.707   3.600  0.0229  0.0485  0.3494
 3187W        W19321   4.392   8.238  12.760 -0.0586  0.1354  0.1291
 3188W        W19322  15.977  15.956  11.986  0.1880  0.0647  0.1115
 3189W        W19323   8.540   6.186   4.538  0.2362  0.1404  0.2965
 3190W        W19324  15.271   3.584   4.949 -0.0155 -0.1929 -0.2547
 3191W        W19325   4.054   9.631  12.932 -0.1237 -0.2391  0.1248
 3192W        W19326  12.776  12.265  12.132 -0.2341  0.0256  0.3473
 3193W        W19327  17.640  13.889  13.221 -0.1053  0.0273  0.0575
 3194W        W19328  13.383  13.249   2.669 -0.1482 -0.2322  0.0821
 3195W        W19329   4.092  12.797   0.853 -0.2232 -0.1048  0.3540
 3196W        W19330   8.548   7.394  13.099  0.3139 -0.2573 -0.1174
 3197W        W19331   1.612  18.668  10.134  0.0005 -0.3436 -0.2234
 3198W        W19332   5.493   4.840   3.049 -0.0267 -0.1107  0.1233
 3199W        W19333  16.132  11.567  11.692  0.0633  0.0702 -0.0303
 3200W        W19334  16.731  16.602  11.641  0.3598  0.0213  0.0563
 3201W        W19335   8.280  16.254   0.411 -0.3250 -0.0757  0.1159
 3202W        W19336   3.773  15.813   0.788 -0.2151 -0.2930 -0.0598
 3203W        W19337   2.028  12.134   5.202 -0.0625 -0.0932 -0.1687
 3204W        W19338  13.967  17.271   3.863 -0.1613  0.1835 -0.1619
 3205W        W19339  11.813  11.618   2.383  0.3442  0.4536  0.2494
 3206W        W19340  13.890   4.524   1.983 -0.2217  0.1192 -0.1196
 3207W        W19341   6.858  11.392   1.367 -0.3816  0.0503  0.2192
 3208W        W19342   4.981  14.493   3.108  0.0083  0.0159 -0.2603
 3209W        W19343   5.100  17.755   2.588 -0.1203  0.2774  0.3670
 3210W        W19344  14.884   7.710   1.233  0.2446  0.2178  0.0757
 3211W        W19345   1.010  11.690  12.699 -0.0271  0.3037  0.2189
 3212W        W19346   1.404  10.476   1.157 -0.1713  0.3619 -0.1518
 3213W        W19347   7.146  15.680   2.653  0.2632  0.2698 -0.4665
 3214W        W19348  12.008  15.396  12.144  0.2235 -0.0350 -0.1318
 3215W        W19349   8.287   8.782   4.208 -0.3740  0.1101  0.1564
 3216W        W19350   8.431   5.445  12.787  0.0026 -0.1061 -0.3335
 3217W        W19351  18.967   8.753   5.203  0.0207 -0.2177 -0.0051
 3218W        W19352  17.375   4.412   4.321  0.3165  0.0028  0.1341
 3219W        W19353   5.730   2.062  13.845  0.2474 -0.1475 -0.0765
 3220W        W19354   5.746  12.296   0.727 -0.3473  0.1487 -0.2063
 3221W        W19355  12.284   5.180  13.693 -0.0449  0.0933 -0.1818
 3222W        W19356  12.232   2.305   4.926 -0.0062 -0.1840  0.1509
 3223W        W19357   2.691   9.318  11.836 -0.0017  0.0411 -0.1387
 3224W        W19358   3.070  11.629   0.658  0.1853 -0.2315 -0.0210
 3225W        W19359   0.127   3.947  11.499  0.2241  0.0756  0.0961
 3226W        W19360   9.078   8.288   4.568  0.3915  0.1787 -0.2027
 3227W        W19361  12.541  16.082   2.888  0.1832  0.0093  0.0146
 3228W        W19362   9.933  16.394  10.482  0.1221  0.0494 -0.1867
 3229W        W19363   8.538  12.976   5.209  0.2408  0.0456  0.2272
 3230W        W19364  19.300  12.427   2.739  0.2412 -0.1134  0.4786
 3231W        W19365  12.184  10.579   0.907 -0.0145 -0.1338  0.0085
 3232W        W19366   5.470  18.952  12.881  0.0596 -0.0317  0.1892
 3233W        W19367   7.038   2.946  11.017 -0.1967  0.1157  0.0001
 3234W        W19368   7.507   0.334  14.485 -0.1804 -0.0433 -0.1154
 3235W        W19369   7.209  10.705   0.039 -0.1974 -0.1595 -0.2426
 3236W        W19370   9.776   4.260   0.584  0.0729 -0.0027  0.0174
 3237W        W19371  15.820   4.390   1.952  0.3513  0.1839  0.0535
 3238W        W19372  10.630   5.152   0.335 -0.0064  0.1099 -0.1323
 3239W        W19373  14.917  14.046   0.965 -0.0901  0.1981 -0.1014
 3240W        W19374   1.288   1.066   0.194 -0.0558 -0.0118 -0.1612
 3241W        W19375   0.317  13.848   0.571  0.0437 -0.1497 -0.0283
 3242W        W19376  16.427   4.942  14.366  0.3466 -0.0733  0.0345
 3243W        W19377  13.418   8.048  13.176 -0.1275  0.0105  0.0877
 3244W        W19378  16.501   2.668  14.519 -0.0575 -0.1713  0.1266
 3245W        W19379  10.857   6.707  11.526  0.1251  0.2381 -0.0679
 3246W        W19380   8.003   6.430   0.583 -0.1000 -0.5683  0.0865
 3247W        W19381   7.469  16.001   0.701  0.1201 -0.0712  0.2263
 3248W        W19382  15.627   1.861  10.538 -0.1508 -0.0243  0.4926
 3249W        W19383   5.400   4.189  13.970 -0.3093  0.4112  0.0649
 3250W        W19384   8.421  12.416  13.571 -0.1261 -0.2583 -0.0326
 3251W        W19385  14.053   6.831   4.511  0.0812  0.2223 -0.2428
 3252W        W19386  12.150  12.414   1.153  0.1502 -0.2015 -0.0868
 3253W        W19387   3.420   7.880   4.779  0.1620 -0.0250 -0.2843
 3254W        W19388  12.637  16.076   5.262  0.0320 -0.2542 -0.0862
 3255W        W19389  16.627  15.460   2.134  0.0555 -0.1145 -0.1450
 3256W        W19390   8.268  16.311  12.344 -0.0367  0.0680  0.1566
 3257W        W19391  17.600   2.748   3.088  0.1290  0.2739  0.0705
 3258W        W19392  11.564  10.602  11.031  0.1394  0.0535  0.2868
 3259W        W19393  17.849  18.303   2.554 -0.0503 -0.0234 -0.2251
 3260W        W19394  11.829  10.411  13.916 -0.0696 -0.0631  0.1954
 3261W        W19395   6.762  18.543   1.477 -0.1405  0.0404  0.1242
 3262W        W19396   7.767   2.435   1.521  0.0711 -0.1280  0.3981
 3263W        W19397   8.237   0.291  13.697 -0.1925  0.2189 -0.3436
 3264W        W19398   9.970  16.835   3.941 -0.0496 -0.0639  0.0075
 3265W        W19399   5.822   4.221  11.805  0.3184  0.2287 -0.0137
 3266W        W19400  15.612  18.031   0.961 -0.2262  0.2375 -0.0355
 3267W        W19401   1.105   6.339   1.247  0.1858 -0.1682 -0.0388
 3268W        W19402  15.180  18.529   1.449  0.1972 -0.1338 -0.1154
 3269W        W19403  15.872   5.295   2.329 -0.2850  0.1546 -0.0274
 3270W        W19404  17.909   3.210   4.221 -0.1660  0.1406  0.0076
 3271W        W19405   7.049   8.455  10.719  0.2721 -0.1894  0.0677
 3272W        W19406  15.513   9.577   0.947  0.0252  0.3528  0.1854
 3273W        W19407   2.769   9.601   2.772  0.0562 -0.3139 -0.1843
 3274W        W19408   4.461  12.957   2.466  0.0730 -0.3032 -0.1476
 3275W        W19409   3.671   9.663  14.550 -0.1423  0.0368  0.1949
 3276W        W19410   1.552   5.739   1.784 -0.0190  0.2497 -0.5446
 3277W        W19411  15.796   1.060  12.731 -0.2035  0.1590 -0.2743
 3278W        W19412   6.064  14.097  10.423 -0.3849  0.1886  0.3453
 3279W        W19413   9.113  11.036  14.525 -0.2595  0.2605 -0.2058
 3280W        W19414  15.272   4.921  13.115  0.0039 -0.1137  0.0333
 3281W        W19415  10.742  18.900   3.485 -0.0894 -0.2456  0.2366
 3282W        W19416  16.194   0.280   1.014  0.0590  0.0855 -0.0769
 3283W        W19417   7.961   9.999   1.746 -0.0925 -0.1974  0.1031
 3284W        W19418  16.429  16.389  10.711 -0.2601 -0.2566 -0.0817
 3285W        W19419   8.932  10.517  11.813  0.1465 -0.2238  0.0996
 3286W        W19420   7.016   8.080  15.001  0.0451  0.0285 -0.0262
 3287W        W19421  15.933   7.737   9.954 -0.2153 -0.1794  0.0157
 3288W        W19422   4.631   1.079  14.460  0.1089 -0.0498 -0.0461
 3289W        W19423   3.940   3.866  14.294  0.2327  0.0046  0.1164
 3290W        W19424   5.043   5.768  12.139  0.1560 -0.1302 -0.2981
 3291W        W19425  16.518   3.011   2.083  0.1986  0.0462 -0.2182
 3292W        W19426   8.033   0.911   2.682  0.6677  0.0043  0.1383
 3293W        W19427   9.572   8.905   4.364  0.0510 -0.0099 -0.0422
 3294W        W19428   7.702   5.041  11.451 -0.2289 -0.1554 -0.1511
 3295W        W19429   2.114   4.532  12.740  0.1410 -0.0461 -0.1196
 3296W        W19430   2.757  10.347  10.852  0.0877 -0.0842 -0.5174
 3297W        W19431   3.927  16.222   4.943  0.1576 -0.1194  0.2449
 3298W        W19432   2.169  18.338  10.038 -0.0748  0.2057 -0.0015
 3299W        W19433   4.583  18.822   1.868  0.2160  0.1093 -0.2056
 3300W        W19434   9.559  16.782   2.022 -0.3274 -0.2554  0.1334
 3301W        W19435  13.442   5.405   4.596  0.2158  0.2122 -0.1241
 3302W        W19436  13.550   7.479   4.719  0.1693 -0.1167  0.0666
 3303W        W19437   7.135   0.687  11.211  0.0704  0.0497 -0.3399
 3304W        W19438   6.774   8.925  14.775  0.0361  0.0136  0.2727
 3305W        W19439  15.797   0.566  11.193 -0.1402 -0.5452 -0.1677
 3306W        W19440  13.034  16.898   4.115  0.1130 -0.0771 -0.1672
 3307W        W19441   3.388   4.600   0.987 -0.3388  0.3346  0.1852
 3308W        W19442  10.454  19.154  11.359  0.3276  0.0413  0.1952
 3309W        W19443  12.676  14.962   0.721 -0.1411 -0.1817 -0.1704
 3310W        W19444   5.456   2.492  11.112 -0.2407 -0.0682 -0.0926
 3311W        W19445  13.479   5.767   2.890  0.2576 -0.0627  0.0299
 3312W        W19446   6.705  17.679  14.700  0.0706 -0.2255  0.3336
 3313W        W19447  12.000   5.525  11.453 -0.0731  0.0989 -0.2525
 3314W        W19448   2.284  11.422  12.419  0.0083  0.0307  0.5345
 3315W        W19449  13.326  17.916  11.808 -0.3775  0.0155  0.0135
 3316W        W19450  14.652   8.871  10.422  0.1095  0.0125  0.0495
 3317W        W19451   2.768  11.407  13.524 -0.0132 -0.4495 -0.0436
 3318W        W19452  11.463  12.813  14.341  0.0612  0.1359 -0.1745
 3319W        W19453   8.009   9.555   1.521 -0.2494 -0.1888 -0.1545
 3320W        W19454   2.050  13.744  13.860 -0.0025  0.0776 -0.0880
 3321W        W19455   8.265  13.354  10.441 -0.0129 -0.1035  0.1985
 3322W        W19456   6.318   0.065  13.881 -0.0705 -0.1109  0.1733
 3323W        W19457  15.653  16.599  13.321  0.1990 -0.2233  0.0356
 3324W        W19458  17.685  15.960   1.554  0.1076 -0.3032  0.0081
 3325W        W19459   0.452  12.534   3.027 -0.1444  0.1590  0.4196
 3326W        W19460   9.689  12.349   2.137 -0.2075 -0.0707 -0.1964
 3327W        W19461   0.526   4.857   0.583 -0.0111  0.2604 -0.2235
 3328W        W19462   8.335  17.023   3.096  0.1995  0.0407 -0.0214
 3329W        W19463   4.628   4.148   1.234  0.2919  0.1142  0.0214
 3330W        W19464  12.432   9.192   5.197  0.2461  0.0452  0.0037
 3331W        W19465   8.479  16.537   5.093  0.3723  0.1505 -0.2769
 3332W        W19466  18.407   5.383   1.842  0.0674 -0.1590 -0.2558
 3333W        W19467  16.606  13.478   4.914 -0.0105 -0.0263  0.1723
 3334W        W19468  17.510   3.474  13.710  0.0334 -0.3587 -0.2298
 3335W        W19469   4.320   7.109   4.363  0.2226  0.1383 -0.0036
 3336W        W19470   3.134   0.687   1.906 -0.1187 -0.4934  0.2608
 3337W        W19471  12.551   2.672  10.574  0.0943  0.1768 -0.2161
 3338W        W19472  10.770   2.368  11.686 -0.4300  0.1313  0.0048
 3339W        W19473  15.052  10.896   3.145  0.1592 -0.2452  0.1457
 3340W        W19474   4.940   6.935   4.986  0.3361 -0.2462  0.0286
 3341W        W19475  12.500   6.302   0.974  0.0893  0.1513  0.0758
 3342W        W19476  18.718   3.507   9.618  0.0781 -0.0379  0.1081
 3343W        W19477  13.249  14.109   4.205  0.0791  0.0666  0.0198
 3344W        W19478  17.659  13.524  12.269  0.2446  0.4342 -0.3342
 3345W        W19479  10.179  16.734  13.642 -0.2371  0.0036 -0.4211
 3346W        W19480  16.065   9.832   4.130 -0.0502 -0.1585  0.0270
 3347W        W19481  16.653  15.066  13.393  0.1644 -0.0977  0.0410
 3348W        W19482  10.232  10.815   1.393 -0.1171  0.1039  0.1430
 3349W        W19483   6.638   6.338   0.117 -0.0549 -0.2877  0.1920
 3350W        W19484   6.257   8.137  11.650 -0.0176 -0.0811  0.0266
 3351W        W19485  18.270  13.021  14.537  0.1001  0.1802  0.0244
 3352W        W19486   0.609   8.012  11.591 -0.1037  0.1227 -0.1781
 3353W        W19487   5.977   6.489  11.628 -0.3302  0.2625  0.0925
 3354W        W19488   8.247   0.988   3.642  0.4436 -0.0056 -0.0135
 3355W        W19489  13.001  16.755   4.876  0.0332  0.0634  0.0682
 3356W        W19490   6.598   9.029  11.982  0.0143 -0.0308 -0.2066
 3357W        W19491  14.052   7.861  11.271 -0.3602 -0.0242  0.1040
 3358W        W19492   4.239   7.220  11.863 -0.1554 -0.4073  0.0618
 3359W        W19493  18.654  16.378   4.679  0.4152  0.0771 -0.0365
 3360W        W19494   6.930  18.002  15.001  0.1396 -0.3012  0.1636
 3361W        W19495  12.120   0.436  11.602  0.0731 -0.1131 -0.0443
 3362W        W19496   2.581  15.605  14.157  0.3855  0.2166 -0.3748
 3363W        W19497   2.053   1.415  14.804 -0.1114  0.3334 -0.0715
 3364W        W19498  12.369  14.464  14.917  0.3895  0.3451  0.2956
 3365W        W19499   4.069  16.330  12.205  0.1291  0.0417 -0.1780
 3366W        W19500   3.452  17.907  13.919 -0.0525 -0.2403 -0.0578
 3367W        W19501  15.455   9.240   0.530 -0.2926 -0.0934  0.0262
 3368W        W19502   6.130  12.601  12.335 -0.1546  0.0085  0.0330
 3369W        W19503   6.651   2.182   4.006 -0.3368  0.1111  0.0786
 3370W        W19504  15.594   4.047   1.520 -0.1263  0.0596  0.0427
 3371W        W19505   7.754  13.484  11.662  0.0399 -0.0106  0.1118
 3372W        W19506   4.631   3.575   4.643 -0.2350 -0.1621 -0.0297
 3373W        W19507  17.788   2.118   3.871 -0.1506  0.0682 -0.3667
 3374W        W19508   4.667   6.001   5.194 -0.0618  0.2003 -0.3958
 3375W        W19509  15.262  17.797  10.809 -0.3176  0.0281  0.2323
 3376W        W19510  15.113  12.685   1.688  0.0585  0.3292 -0.0642
 3377W        W19511  10.736   0.883   1.411  0.4301  0.1387 -0.3611
 3378W        W19512   9.852   2.653  10.104 -0.2611  0.2305 -0.0753
 3379W        W19513  12.963  13.570  10.761 -0.1618  0.0167 -0.0149
 3380W        W19514   0.324   7.164   4.863  0.0897  0.3756  0.2471
 3381W        W19515   2.075   2.224   4.057  0.0930 -0.4944 -0.1990
 3382W        W19516  18.999  12.642   0.778  0.2368 -0.1692 -0.0313
 3383W        W19517   6.878   8.772   1.413  0.0773 -0.0086  0.4057
 3384W        W19518   8.041  12.874   1.353 -0.1817  0.1036  0.2160
 3385W        W19519   8.025  16.886   1.150  0.2524 -0.0668  0.0179
 3386W        W19520  12.918  13.936   1.020 -0.0019 -0.1401 -0.1042
 3387W        W19521  14.773  10.283   4.318  0.1223  0.3333 -0.0896
 3388W        W19522  11.831  18.676  13.887 -0.0490  0.0059 -0.2352
 3389W        W19523  16.473  13.705  11.785 -0.1003  0.0088  0.2264
 3390W        W19524  10.179  12.282   2.150 -0.0719  0.1476  0.1175
 3391W        W19525  16.377  13.992   4.850 -0.4042  0.0056 -0.0020
 3392W        W19526   7.378  13.390   4.454 -0.0629  0.1681  0.0283
 3393W        W19527  16.932   6.299   4.127  0.1293 -0.3197  0.1593
 3394W        W19528  10.933  14.112  13.928  0.0211 -0.3176  0.1643
 3395W        W19529   5.511   0.230  10.288 -0.1527 -0.1609 -0.4614
 3396W        W19530  16.250  10.196  11.419 -0.0180  0.1611 -0.0117
 3397W        W19531  13.738   3.590   4.453  0.0801  0.0244 -0.0254
 3398W        W19532   3.211  15.209  10.800  0.1293  0.2047 -0.0283
 3399W        W19533   6.439   7.220  12.234 -0.4316 -0.0329  0.0320
 3400W        W19534   6.572   3.997  10.807  0.1460  0.1725  0.2727
 3401W        W19535  17.846   2.739  12.588  0.1821  0.2071  0.0329
 3402W        W19536   1.430  16.992  12.277  0.0357  0.0901  0.0707
 3403W        W19537  11.190  17.983   4.757 -0.1258  0.3542  0.3191
 3404W        W19538   6.296   7.266  12.693  0.1321  0.5569 -0.0833
 3405W        W19539  19.308  14.525   1.965 -0.1936 -0.0592 -0.0178
 3406W        W19540   5.575  12.093   2.855  0.0654 -0.2194  0.2558
 3407W        W19541   0.406  11.022   4.275  0.4167  0.0967 -0.1352
 3408W        W19542   5.749   0.812  12.417  0.0224 -0.0264  0.1783
 3409W        W19543  15.040  16.628  10.957 -0.0033 -0.0187  0.0062
 3410W        W19544  17.547  12.398   4.439 -0.1431 -0.4691 -0.0979
 3411W        W19545   5.865   8.093  14.402  0.2067 -0.1340  0.0505
 3412W        W19546   1.826  14.539   2.020  0.1527 -0.1018 -0.0095
 3413W        W19547   3.622   7.840   5.266 -0.3363 -0.0685 -0.0424
 3414W        W19548  13.890  11.912   9.239 -0.2994 -0.0423  0.3362
 3415W        W19549   7.137  11.660   4.228  0.2417 -0.1429  0.1674
 3416W        W19550  15.469  18.512   3.039 -0.0568  0.0738  0.1331
 3417W        W19551   8.102  16.568  13.332  0.0285 -0.2233 -0.1481
 3418W        W19552  16.958  15.171  14.279 -0.1075  0.1320  0.1007
 3419W        W19553  18.346   5.817   1.129  0.1136  0.3273 -0.1487
 3420W        W19554   4.621  18.641  12.534  0.1736  0.0769 -0.1937
 3421W        W19555   0.012  10.979  10.768  0.1020 -0.0976 -0.3885
 3422W        W19556   9.391   4.413   4.575  0.0068  0.0332 -0.0813
 3423W        W19557  14.096   6.087  10.939 -0.1459  0.2563  0.0095
 3424W        W19558  11.680   3.499   5.663 -0.2351 -0.1467 -0.2226
 3425W        W19559   2.162   0.910   3.880  0.2136 -0.1140  0.2440
 3426W        W19560   5.817  17.168  13.349  0.1683 -0.1856  0.0450
 3427W        W19561  16.101  10.789  13.530  0.0540  0.2316  0.3235
 3428W        W19562  11.243   2.222  13.173  0.1166 -0.0158  0.0688
 3429W        W19563   9.228   4.963  11.165 -0.3704  0.1257  0.4205
 3430W        W19564   3.216   0.231   0.250  0.0326  0.0092  0.3187
 3431W        W19565   6.547   9.038  14.283  0.0838  0.3629 -0.0861
 3432W        W19566   6.448  17.564  12.172 -0.1536  0.1487  0.1960
 3433W        W19567   3.712  11.226  12.090 -0.0861 -0.2464  0.0411
 3434W        W19568  18.666   2.300   1.199 -0.2890  0.0649  0.0756
 3435W        W19569  14.533   7.233   0.907 -0.3264  0.0740  0.0576
 3436W        W19570  10.258   6.753  12.902 -0.0325  0.1146  0.3114
 3437W        W19571  16.173  14.313   1.827  0.2145  0.0882  0.2406
 3438W        W19572  13.965   7.687   0.532 -0.0510  0.1821 -0.3207
 3439W        W19573   8.745   1.018   2.239  0.0694  0.5119 -0.1817
 3440W        W19574  13.852   5.776   4.687  0.1538 -0.1819  0.2854
 3441W        W19575  11.273   1.760  12.529 -0.3153 -0.3359  0.5593
 3442W        W19576   7.690   2.402   0.208 -0.2469  0.0153  0.0553
 3443W        W19577   9.680   5.178   3.096  0.0169 -0.1901  0.1441
 3444W        W19578   4.799  11.922   4.802  0.0880 -0.0097 -0.3127
 3445W        W19579   4.816   8.133   3.030 -0.0934  0.4776  0.0779
 3446W        W19580  16.876   4.512  13.751  0.1260 -0.0096 -0.0092
 3447W        W19581  17.973  12.203  12.224 -0.0545 -0.1838 -0.2777
 3448W        W19582   0.932  15.489   9.831 -0.2950  0.0632  0.1179
 3449W        W19583   4.768   1.459  11.110 -0.1583  0.2510  0.1402
 3450W        W19584   5.084   8.433  11.552 -0.1894  0.2328 -0.3231
 3451W        W19585  18.569  16.177   1.161  0.2064 -0.3079  0.1112
 3452W        W19586  14.583   5.074   4.877  0.2070  0.2688 -0.1567
 3453W        W19587   0.549  12.078   3.367 -0.3187 -0.0548  0.0489
 3454W        W19588   7.301  14.429   4.138  0.2660 -0.1503 -0.0196
 3455W        W19589  19.063  13.775   0.593  0.1789  0.2764  0.2841
 3456W        W19590   9.492   8.244   2.686 -0.3177  0.0994  0.1069
 3457W        W19591   2.788   5.088   2.413  0.3668 -0.1946 -0.1568
 3458W        W19592  18.221   3.616   0.964 -0.1599  0.0416  0.0772
 3459W        W19593  16.426  16.405   4.262  0.1616 -0.1383 -0.3866
 3460W        W19594   6.589   4.867   0.363  0.2241 -0.5713  0.1642
 3461W        W19595   7.921  19.145   2.953 -0.0475  0.0187 -0.2427
 3462W        W19596  12.063   3.228   1.631  0.1556 -0.1565 -0.0182
 3463W        W19597  18.306   0.098   4.030 -0.0474  0.1600  0.0288
 3464W        W19598   3.325   4.000  13.468 -0.0369  0.0046  0.1534
 3465W        W19599  16.675  14.524   2.226  0.1716 -0.0661  0.1011
 3466W        W19600   5.661  16.232   1.519 -0.2909  0.2613 -0.0877
 3467W        W19601   1.894   4.003   4.742  0.0639 -0.0743 -0.1836
 3468W        W19602  14.867  12.600  14.273  0.1720 -0.1252  0.3074
 3469W        W19603  10.646   7.856  13.778  0.0597 -0.1472  0.2489
 3470W        W19604   6.871   3.707   5.343 -0.2498  0.1496  0.0056
 3471W        W19605   2.540   4.488   4.579  0.0631 -0.1997 -0.3556
 3472W        W19606   9.730  15.766   3.159 -0.0979 -0.2235  0.0370
 3473W        W19607  12.092   7.768   0.133  0.0090  0.1513  0.1933
 3474W        W19608   8.020   1.068   1.202 -0.2890  0.0710 -0.0093
 3475W        W19609   0.567   2.530  12.487 -0.0969 -0.0631  0.0659
 3476W        W19610   6.081  16.430   3.339  0.1780  0.2781 -0.0388
 3477W        W19611   6.160  15.153   0.076 -0.3409  0.0292 -0.0029
 3478W        W19612   4.821   5.053   0.512  0.1751  0.3987  0.0374
 3479W        W19613   3.185   0.316  12.523  0.0778 -0.3211 -0.0965
 3480W        W19614  15.897  14.438  13.875  0.1740  0.1080 -0.2369
 3481W        W19615  12.015  11.353  13.699 -0.0751 -0.1427 -0.2136
 3482W        W19616  15.278  18.540   0.557 -0.0731  0.1849 -0.0432
 3483W        W19617  11.882  12.847   2.513 -0.1654 -0.1320 -0.3135
 3484W        W19618  10.138   2.899   2.990 -0.1055 -0.0917 -0.1401
 3485W        W19619   2.356   3.088   0.374 -0.2384  0.0977  0.4402
 3486W        W19620   4.316  18.956  12.750 -0.0563  0.2807 -0.3720
 3487W        W19621  12.341   4.941   0.782 -0.0771  0.0788 -0.0242
 3488W        W19622  19.284  16.902   4.204  0.3296  0.1364  0.1531
 3489W        W19623   0.399   3.073   3.833 -0.0590 -0.2586  0.0672
 3490W        W19624   3.043  12.890   0.801  0.0029 -0.0757  0.0973
 3491W        W19625   6.269   3.249  13.463 -0.2472 -0.0504 -0.0819
 3492W        W19626   3.760   7.415  14.407 -0.0767  0.0400  0.0134
 3493W        W19627  18.047   5.829  13.463  0.0755  0.2790 -0.1542
 3494W        W19628   6.362   4.868  11.359  0.0987 -0.3422  0.0295
 3495W        W19629  10.415  11.088  12.740  0.2785  0.3465  0.2870
 3496W        W19630  11.347  17.029   2.278 -0.0848  0.0432 -0.0768
 3497W        W19631  14.542   5.906  12.406 -0.1640 -0.0100  0.1189
 3498W        W19632  16.473   2.044   1.666 -0.2335  0.0514  0.1145
 3499W        W19633  14.638  11.391   0.599 -0.1535 -0.0897  0.1155
 3500W        W19634   5.196  13.945   4.002  0.0028 -0.2180 -0.3619
 3501W        W19635   2.422   8.780  10.936 -0.0254  0.2487 -0.2636
 3502W        W19636   4.233  15.740   1.091 -0.1701  0.2953 -0.1261
 3503W        W19637  16.045   5.273  10.117 -0.0943 -0.0572 -0.1092
 3504W        W19638   7.475  18.314  12.156 -0.0236 -0.1070 -0.2589
 3505W        W19639  11.069  16.606  12.657 -0.3652  0.2706  0.0785
 3506W        W19640   3.469   3.768   3.075 -0.0238 -0.1752  0.1240
 3507W        W19641  11.921   0.873   1.120  0.2533  0.1804 -0.2615
 3508W        W19642  12.520   6.580   0.182 -0.0324  0.1172 -0.3136
 3509W        W19643   6.390   4.728  13.532 -0.1637 -0.0234  0.1390
 3510W        W19644   3.000  16.889   3.600  0.1418  0.2063  0.3713
 3511W        W19645  15.110  19.211  11.641  0.2994 -0.3491  0.0169
 3512W        W19646   2.141   9.830  13.952  0.0510 -0.2091  0.0064
 3513W        W19647  10.066  14.750   2.993 -0.2705  0.4430 -0.0707
 3514W        W19648   8.983   8.200  11.956  0.0571  0.1043 -0.4988
 3515W        W19649  13.237   7.013  10.999  0.0391  0.3162  0.1951
 3516W        W19650   9.261   1.206   1.477 -0.0545  0.3994  0.0869
 3517W        W19651  17.902   1.176  14.584 -0.2091  0.0179  0.1534
 3518W        W19652   2.209   3.760   2.831 -0.1277 -0.2868  0.2868
 3519W        W19653  11.240   2.824   0.687  0.1715 -0.1465 -0.1793
 3520W        W19654  19.019  16.645   1.172 -0.0299  0.2199  0.1714
 3521W        W19655   5.565   1.579   1.898 -0.2984 -0.1413  0.0422
 3522W        W19656  16.638   1.295  14.890  0.0747 -0.2712  0.0232
 3523W        W19657  16.529   0.332   9.451  0.2098 -0.3669 -0.2902
 3524W        W19658   7.463   3.006   1.377  0.3196  0.5497  0.1033
 3525W        W19659  16.565  18.101  12.343  0.2259 -0.1105  0.2655
 3526W        W19660   9.563   6.744   4.344 -0.1490  0.0919 -0.1493
 3527W        W19661  14.506  12.056   4.855 -0.1917  0.2659  0.0369
 3528W        W19662  13.813   0.825  12.682 -0.0711 -0.0728 -0.0813
 3529W        W19663   7.680  11.269  14.154  0.5020  0.1732  0.2038
 3530W        W19664  11.174  14.553  14.323  0.0005  0.0844  0.1130
 3531W        W19665   9.608   6.254  11.011  0.1849 -0.0110  0.0430
 3532W        W19666  17.987   1.615  12.851  0.0447  0.0205  0.1544
 3533W        W19667   0.312  14.359  12.224 -0.0116 -0.3496 -0.0229
 3534W        W19668   6.592  14.907  12.843 -0.1234  0.2113 -0.1860
 3535W        W19669   1.166   6.707   0.024 -0.1401 -0.1954 -0.0864
 3536W        W19670   1.766   9.022   0.481 -0.1480 -0.2695  0.0911
 3537W        W19671  12.501   3.005   3.073  0.1304 -0.2216  0.3015
 3538W        W19672  16.782  15.461   1.283 -0.0751  0.1148  0.1926
 3539W        W19673   2.459   6.906   1.759  0.0070  0.0835  0.1137
 3540W        W19674  15.269   4.339   3.578 -0.0021  0.3445  0.1959
 3541W        W19675   4.203   2.843  12.265 -0.0375  0.0207 -0.4952
 3542W        W19676   1.273   5.608   4.920  0.1333  0.1498 -0.4145
 3543W        W19677   9.899   1.910   1.194  0.0339 -0.2835 -0.0529
 3544W        W19678   3.874  16.804   3.537  0.1568  0.4478 -0.2655
 3545W        W19679   0.756  14.719   3.237  0.1134 -0.2854 -0.1034
 3546W        W19680   0.436   1.957  12.618  0.0058  0.0334 -0.1764
 3547W        W19681  12.829   6.808  13.921 -0.1540  0.2203 -0.0384
 3548W        W19682  17.252  17.590  11.441  0.3517  0.2210  0.0029
 3549W        W19683   8.400   4.176  11.419 -0.0412 -0.2331  0.0965
 3550W        W19684  17.692   9.142   2.452 -0.3560  0.0172  0.2464
 3551W        W19685   8.705   7.124   2.389 -0.3822  0.0442 -0.1626
 3552W        W19686   2.551   3.210  14.454  0.2106  0.1066  0.0397
 3553W        W19687  10.070   6.292  12.884 -0.1409  0.2555 -0.0808
 3554W        W19688  10.573  13.543   3.699 -0.0733  0.1508  0.3575
 3555W        W19689   0.073   1.406  13.916 -0.0830  0.1617 -0.0595
 3556W        W19690   0.252  12.762   4.037 -0.1884 -0.1343  0.1067
 3557W        W19691   6.141   0.224   4.689 -0.1322 -0.1215 -0.1208
 3558W        W19692  11.707   5.407   1.640 -0.2353  0.3961 -0.1959
 3559W        W19693   4.640  12.145   3.436 -0.0605  0.3500 -0.2744
 3560W        W19694  19.052   0.289  11.842 -0.0009 -0.0773  0.0001
 3561W        W19695   3.737  10.253   0.320  0.2139 -0.0443  0.0126
 3562W        W19696  10.881  17.741  12.149 -0.0662  0.1056 -0.2889
 3563W        W19697  12.349  11.574   5.201 -0.0431  0.2091 -0.1015
 3564W        W19698  12.816   1.642  12.951  0.0713  0.0422  0.0579
 3565W        W19699  18.734   5.593   4.836 -0.1354  0.4363 -0.3799
 3566W        W19700  11.675  10.870   1.854  0.0623  0.0801 -0.1099
 3567W        W19701   6.893  15.397   4.736  0.1057  0.2176 -0.1379
 3568W        W19702  15.016   2.954   3.842  0.0114  0.0015 -0.3799
 3569W        W19703   6.188  16.302  11.222  0.0213 -0.2614  0.2446
 3570W        W19704  16.700  10.070   0.144  0.3027  0.1705  0.1287
 3571W        W19705  10.722   3.118  12.600 -0.2269  0.0957  0.3498
 3572W        W19706  10.011  10.127   1.710 -0.1012 -0.2081 -0.1563
 3573W        W19707   3.986   4.989  13.874 -0.0429  0.0593  0.2098
 3574W        W19708   6.526  11.252  12.955 -0.1758  0.0164  0.1821
 3575W        W19709  16.458   1.289   4.420  0.2059  0.1033 -0.3114
 3576W        W19710  13.367  18.508  11.556  0.0737  0.1918  0.4243
 3577W        W19711  13.581  13.717   2.392 -0.1108  0.0289 -0.0476
 3578W        W19712  11.504  11.369   1.976  0.0301 -0.3349 -0.3171
 3579W        W19713   7.991   2.351   4.169 -0.1601 -0.0989 -0.2018
 3580W        W19714  14.011   3.273  12.347  0.1921 -0.2892  0.0034
 3581W        W19715  14.959   9.789   5.641  0.1668  0.1954 -0.0284
 3582W        W19716   5.268  12.537  11.221 -0.0468 -0.1189 -0.0283
 3583W        W19717   9.929   3.612   4.967 -0.1645 -0.0893 -0.2557
 3584W        W19718  12.484  10.497  12.062 -0.0978 -0.2315  0.0286
 3585W        W19719  11.789   3.450   0.502  0.1592 -0.3075  0.2344
 3586W        W19720   0.558  16.140  10.420 -0.0014  0.2693  0.1949
 3587W        W19721   1.328   1.941   3.904 -0.0312  0.1644  0.2011
 3588W        W19722  14.037   1.424   1.483  0.0975 -0.2371 -0.1287
 3589W        W19723   6.248   8.245   0.284  0.0914  0.3613  0.0467
 3590W        W19724   7.914  19.005  12.519 -0.2044 -0.0395  0.3856
 3591W        W19725   1.646  11.107  13.128  0.0428 -0.2728  0.0482
 3592W        W19726   0.825   3.639   2.840 -0.0932 -0.1743 -0.1945
 3593W        W19727  17.569   7.011   3.055 -0.4342 -0.0378 -0.1010
 3594W        W19728   1.693   7.762   1.955  0.2344 -0.0374 -0.0931
 3595W        W19729   9.490  13.832  14.670  0.1393 -0.2198  0.2626
 3596W        W19730   9.937   8.524  11.669  0.0489  0.0658  0.0722
 3597W        W19731   0.922  17.052   3.910  0.1558 -0.0103 -0.0354
 3598W        W19732   8.129   0.398  10.474  0.0125 -0.3344  0.3073
 3599W        W19733  17.014  12.809  12.093 -0.0422 -0.2511 -0.0199
 3600W        W19734   0.880   6.720   2.346 -0.1061 -0.1008  0.0837
 3601W        W19735  11.035   4.998   3.902  0.1389  0.1952  0.1192
 3602W        W19736   5.953   1.593   0.911  0.2488  0.0255 -0.0190
 3603W        W19737   5.088   9.178  14.803 -0.0098  0.3596 -0.1698
 3604W        W19738   4.932  11.666   2.137 -0.1756  0.3543 -0.2746
 3605W        W19739  11.352  13.495  11.386  0.0621 -0.1203 -0.0630
 3606W        W19740   5.611   3.622   3.589  0.1316 -0.0527 -0.2483
 3607W        W19741  16.817  17.346   2.395 -0.1574  0.3249 -0.0155
 3608W        W19742   7.740   1.276  12.393  0.0736 -0.0667 -0.3145
 3609W        W19743  19.150   7.180   1.745  0.1400 -0.0574  0.3352
 3610W        W19744  11.807  18.794   3.301 -0.0051  0.0208  0.2628
 3611W        W19745   5.650   7.523  11.806 -0.2944 -0.0004 -0.1244
 3612W        W19746   8.623   3.237   3.833 -0.1383  0.2982  0.0302
 3613W        W19747   7.383  18.505  10.921  0.1036  0.0064  0.0070
 3614W        W19748   1.705   6.572   2.765 -0.1925  0.0410 -0.0473
 3615W        W19749   6.136  19.213   1.338  0.1328 -0.0176  0.0544
 3616W        W19750  14.463  17.056   0.031 -0.1638  0.0629  0.0369
 3617W        W19751  13.135   4.894   4.336 -0.4397 -0.0489 -0.0763
 3618W        W19752   3.157  11.032  14.954 -0.4280 -0.1399  0.0978
 3619W        W19753  16.621   6.623   2.651  0.2250  0.2620 -0.3250
 3620W        W19754  17.124   3.375   5.214 -0.2395 -0.0493  0.0858
 3621W        W19755  18.525  16.038   1.598 -0.3060  0.1576 -0.1390
 3622W        W19756   6.737  10.982  14.731 -0.2001  0.2469 -0.2014
 3623W        W19757   2.933  14.193   3.536 -0.2256  0.5075  0.2321
 3624W        W19758   0.682   1.064   1.221  0.4597 -0.2660  0.1023
 3625W        W19759  14.764  14.292   4.892 -0.3604 -0.1529 -0.2510
 3626W        W19760  10.061   8.571   2.900  0.2393  0.4654 -0.0887
 3627W        W19761  18.395  16.773   4.468  0.0743  0.1515 -0.0117
 3628W        W19762   4.131  10.418  13.846  0.2381  0.4233  0.3218
 3629W        W19763   3.724   6.794   2.673  0.0903 -0.0158 -0.2481
 3630W        W19764   4.122   6.270   1.970 -0.0699 -0.1051 -0.1367
 3631W        W19765   8.862   4.511   4.694 -0.0124  0.0082  0.1552
 3632W        W19766   5.525  18.535  14.018  0.1718 -0.2748  0.2229
 3633W        W19767  11.924   6.603   4.805  0.0174  0.1148  0.2323
 3634W        W19768  15.914   1.224  13.194  0.0741 -0.1458  0.1688
 3635W        W19769   0.735  12.189   0.686  0.0190 -0.4020  0.1329
 3636W        W19770  16.700   0.893   3.665 -0.1669 -0.2202  0.2723
 3637W        W19771   6.583  12.204   5.285  0.3242 -0.1625  0.5153
 3638W        W19772  13.436  19.159  13.939  0.3168 -0.2761 -0.0494
 3639W        W19773   3.917   1.353   4.586 -0.1394 -0.0919 -0.1034
 3640W        W19774   0.381   2.074   4.888 -0.1379 -0.0822  0.0609
 3641W        W19775   6.399   1.268   4.619 -0.0010 -0.0701 -0.1496
 3642W        W19776  19.241   0.237  10.847  0.2072  0.1429  0.0789
 3643W        W19777   0.980   2.177  12.382  0.1149  0.0408 -0.0181
 3644W        W19778   3.817  15.503   4.841 -0.0082 -0.3704 -0.2883
 3645W        W19779  17.769  18.977  11.291  0.4258 -0.0853 -0.0956
 3646W        W19780   0.823   4.637  13.368 -0.4427 -0.3621  0.1014
 3647W        W19781   9.794   1.311   5.444 -0.1591 -0.3152  0.0241
 3648W        W19782  10.104   2.684   1.795 -0.0084 -0.2191 -0.0852
 3649W        W19783   2.740   1.617  13.371 -0.2991  0.1398 -0.1149
 3650W        W19784  16.689  10.915  14.190  0.1549 -0.2601 -0.0860
 3651W        W19785  17.099   2.102  13.091  0.6013  0.1226  0.0882
 3652W        W19786  12.950  14.784   0.354  0.1356  0.2648 -0.0243
 3653W        W19787   2.484  12.599   1.939 -0.0589  0.1544 -0.0581
 3654W        W19788   5.862  14.481   1.480 -0.0661 -0.0707  0.1198
 3655W        W19789  16.029   5.799  10.175  0.3214  0.1884  0.3909
 3656W        W19790   5.424  17.881  10.329 -0.5034  0.1451 -0.4235
 3657W        W19791   8.077   8.283   1.753 -0.0051 -0.1457 -0.0668
 3658W        W19792   2.093   5.885  13.745 -0.2033  0.2003  0.0073
 3659W        W19793   7.581   0.327  11.052  0.3022  0.1117 -0.3506
 3660W        W19794  10.292   3.789   5.421  0.1392  0.1465  0.0389
 3661W        W19795   5.246   8.710   2.096  0.1539 -0.1744  0.0509
 3662W        W19796   9.090   6.812  13.577  0.3280 -0.0484 -0.0901
 3663W        W19797  15.279  17.212  14.981 -0.0236 -0.0774 -0.2349
 3664W        W19798  15.648   5.158  11.440 -0.0613 -0.2215  0.2563
 3665W        W19799   4.693   1.792   0.295 -0.3964  0.2215  0.0951
 3666W        W19800   5.614  11.779  12.783 -0.0876 -0.3631 -0.7100
 3667W        W19801  15.048   1.475   0.841  0.0317 -0.6833 -0.0042
 3668W        W19802   0.378   9.157   0.002 -0.1649  0.0747  0.0063
 3669W        W19803  10.037  15.709   3.990 -0.0358  0.0641 -0.0564
 3670W        W19804   2.646   4.207   1.939 -0.1721  0.0558  0.2171
 3671W        W19805  14.804  18.849  14.931  0.0852 -0.0537  0.2115
 3672W        W19806  13.626  15.942  12.133  0.0956 -0.0128 -0.1023
 3673W        W19807   8.362  18.145   0.383  0.1342  0.1714 -0.1468
 3674W        W19808  14.194  14.178  13.429  0.1823 -0.0171 -0.1404
 3675W        W19809  10.033   8.918  13.871  0.0630 -0.0984  0.1981
 3676W        W19810   9.154   4.941   4.636 -0.1548 -0.2753  0.0588
 3677W        W19811   2.384  14.892  12.008 -0.1504  0.0563  0.0717
 3678W        W19812  10.541  11.213   5.038  0.2636  0.0133 -0.0724
 3679W        W19813  14.221  11.529  11.883 -0.2707  0.0577  0.1723
 3680W        W19814   6.323   3.529  14.850 -0.3041 -0.2336  0.3759
 3681W        W19815   2.837   9.849  11.756  0.2226 -0.1578 -0.0974
 3682W        W19816  16.323  10.111  14.213  0.1015  0.1196 -0.1864
 3683W        W19817  15.491  10.913   1.587  0.2497  0.1968 -0.0394
 3684W        W19818  10.078   3.195   5.333  0.0882 -0.2110  0.1106
 3685W        W19819   7.924  10.864  14.495  0.0024  0.1833 -0.0587
 3686W        W19820  14.294   5.221  10.325  0.1979  0.3588  0.3736
 3687W        W19821  17.831  11.968   3.201  0.5008 -0.0747 -0.0944
 3688W        W19822  13.824  11.194  10.514  0.3197 -0.3547  0.2203
 3689W        W19823  11.680  19.297  14.341  0.0262  0.2106 -0.0589
 3690W        W19824   7.873  17.698  14.382  0.0295 -0.1094 -0.2383
 3691W        W19825   6.552   4.912   9.520 -0.3364  0.1238 -0.0816
 3692W        W19826   8.714  13.989  14.441  0.1969  0.3124  0.1922
 3693W        W19827   8.301   9.812   9.748  0.0758 -0.1996  0.0037
 3694W        W19828  13.194   4.429  12.040 -0.2044  0.1227 -0.1175
 3695W        W19829   8.419  10.783  13.576  0.0500  0.1809 -0.0437
 3696W        W19830  11.437  13.666   3.617 -0.2642 -0.0464  0.0492
 3697W        W19831   6.087  16.736   2.754  0.2538 -0.1096  0.1334
 3698W        W19832  15.858  17.089  10.418 -0.0373 -0.2889  0.2555
 3699W        W19833   2.205   8.471  10.528  0.0035  0.2338  0.1962
 3700W        W19834  11.894   5.953  11.748 -0.0982 -0.3840 -0.1577
 3701W        W19835  16.351   3.146  12.629 -0.0442 -0.1224  0.0433
 3702W        W19836   4.858  12.049   4.149  0.1876 -0.4527 -0.3130
 3703W        W19837   2.569   8.777  14.679 -0.0269 -0.1340  0.2160
 3704W        W19838   3.578  10.976  14.752  0.3156 -0.0420 -0.2932
 3705W        W19839  11.131   0.577   6.325 -0.3719 -0.2167  0.2087
 3706W        W19840  16.259   4.745  10.320 -0.4502 -0.1584  0.1944
 3707W        W19841  18.085   7.513   0.067  0.0998  0.0369  0.1281
 3708W        W19842  15.702  14.918  12.563 -0.2747 -0.0751  0.1632
 3709W        W19843   2.498   4.213   4.049 -0.0730 -0.1071  0.0524
 3710W        W19844   5.949  13.197   3.648  0.2709  0.0978  0.1605
 3711W        W19845   6.112   5.128   1.682 -0.0667 -0.0733  0.0441
 3712W        W19846   8.849   9.584  14.946  0.1580 -0.1907  0.1873
 3713W        W19847  13.348  15.334   4.243 -0.2979  0.0282  0.0803
 3714W        W19848  11.156  12.686   4.131  0.1167  0.1728 -0.1259
 3715W        W19849  14.747  10.829   0.938  0.0804  0.1181 -0.0187
 3716W        W19850   0.939   0.764  10.327 -0.0480  0.1798 -0.1246
 3717W        W19851  14.233   4.683  13.160  0.1998  0.0303 -0.0720
 3718W        W19852  17.352   8.461   1.871 -0.0053  0.2303  0.0651
 3719W        W19853  13.143   9.050   3.173 -0.1034 -0.1086  0.1576
 3720W        W19854   2.561   3.343   2.848 -0.0256  0.0197  0.1589
 3721W        W19855   1.436  18.923  12.286 -0.1482 -0.5147  0.0907
 3722W        W19856  16.937  15.017  12.557  0.1881 -0.2261 -0.1948
 3723W        W19857   5.074   6.696  11.656  0.0225 -0.0059 -0.2552
 3724W        W19858   5.133  12.960   0.692  0.0423 -0.1404  0.0938
 3725W        W19859   8.942   7.210   4.035  0.3009  0.0942 -0.0051
 3726W        W19860   9.579   2.463   1.859  0.1415 -0.2053  0.1162
 3727W        W19861   8.399   0.245  13.101 -0.0259 -0.1533  0.2533
 3728W        W19862   9.004   6.233   4.204 -0.1700 -0.1653  0.1849
 3729W        W19863   8.811  16.488   2.444 -0.0472  0.2105 -0.0141
 3730W        W19864  18.317  15.830   4.104 -0.1255  0.0385 -0.1344
 3731W        W19865  10.075   9.666   2.325  0.2434  0.1407 -0.0063
 3732W        W19866   7.420   6.474   2.458 -0.0619 -0.0499  0.0200
 3733W        W19867   5.537  19.195   3.549 -0.2550 -0.2114  0.0787
 3734W        W19868   3.479   8.949  13.524  0.0733  0.2761  0.4040
 3735W        W19869  13.813  12.948   4.642 -0.1121  0.0511  0.0423
 3736W        W19870  11.835   9.517   1.597 -0.1666  0.0542  0.3227
 3737W        W19871  10.854  11.338   1.299 -0.0568  0.0888 -0.0483
 3738W        W19872  15.853   6.738  10.225 -0.1581 -0.0814  0.0800
 3739W        W19873  16.719   1.650   9.411  0.2420  0.2176 -0.1216
 3740W        W19874  18.169   4.795   0.600 -0.1581  0.0934  0.0628
 3741W        W19875   1.826  13.580  12.644  0.0836 -0.1692  0.2495
 3742W        W19876   2.435   3.355   3.730  0.0891 -0.1435  0.1120
 3743W        W19877  12.672  18.998   3.917 -0.0702 -0.2103 -0.0901
 3744W        W19878   0.138   3.634   0.038  0.0795  0.2131  0.0730
 3745W        W19879   0.792  10.593  13.662  0.2002 -0.0119 -0.2392
 3746W        W19880  16.405  12.304   1.061  0.0214 -0.2363 -0.1261
 3747W        W19881  12.534   9.028  10.006 -0.0269 -0.0541  0.0910
 3748W        W19882   5.514   6.922  12.824 -0.4036 -0.1371  0.3889
 3749W        W19883  18.323   4.214  14.583  0.0423  0.2320  0.2850
 3750W        W19884  11.271   8.792  12.247 -0.1875 -0.0075  0.2626
 3751W        W19885  15.015   2.839   9.806  0.0786  0.0349  0.1194
 3752W        W19886   8.030   1.159  10.724 -0.0262  0.0391 -0.1143
 3753W        W19887   1.387  13.775   1.220 -0.0136  0.2372 -0.0302
 3754W        W19888   1.115  13.173  10.958  0.0789  0.0997 -0.0444
 3755W        W19889  16.861   1.323   4.062 -0.2035 -0.0084  0.0160
 3756W        W19890  10.486  12.197   2.847 -0.2798  0.2805  0.0647
 3757W        W19891  17.711   2.566  12.105  0.0809  0.0233  0.0947
 3758W        W19892   4.372   5.175  14.305 -0.1022 -0.1347  0.1182
 3759W        W19893  13.098  16.735  13.285  0.1773  0.1046 -0.2656
 3760W        W19894  15.289   2.991  10.263 -0.1032 -0.0040  0.1415
 3761W        W19895  19.217   3.749   1.281  0.4433 -0.0432  0.1386
 3762W        W19896  15.248   0.431  11.239 -0.0141  0.1925 -0.1039
 3763W        W19897  14.074   3.379  14.616  0.3144  0.0236 -0.0056
 3764W        W19898   2.177   0.322   4.165 -0.1949  0.2017  0.2402
 3765W        W19899   7.389   9.895   2.768 -0.0083  0.1546 -0.5471
 3766W        W19900   1.764  13.155   0.772  0.1529  0.0568  0.0555
 3767W        W19901   9.230  15.862   3.035 -0.0635 -0.1301  0.0550
 3768W        W19902   8.604  16.616   4.570  0.1100 -0.1789  0.2885
 3769W        W19903  10.161  10.059  13.684 -0.2168  0.0261 -0.3161
 3770W        W19904   4.320   0.265   9.949  0.0415 -0.0004 -0.0079
 3771W        W19905   3.686  16.526   3.960 -0.0458 -0.1002 -0.0208
 3772W        W19906   5.691  11.358   1.420  0.2167  0.1789 -0.0992
 3773W        W19907  13.907   3.757   2.777 -0.1037  0.0754  0.4991
 3774W        W19908   2.052   6.660   1.540 -0.1647  0.0916  0.3199
 3775W        W19909  10.986  13.826  11.649 -0.1737 -0.0365  0.2880
 3776W        W19910   1.159  13.706  12.128 -0.0937 -0.1703 -0.0988
 3777W        W19911  18.435  19.074  14.991  0.2895 -0.1894 -0.0336
 3778W        W19912  14.129  17.339  13.674  0.0846  0.2714 -0.0703
 3779W        W19913   5.026  12.859   0.177 -0.0557  0.2705 -0.1091
 3780W        W19914   3.620  10.841  13.335  0.1094  0.1177 -0.0063
 3781W        W19915   0.007   1.271   3.281  0.0530 -0.0370  0.0669
 3782W        W19916   5.913  14.463   3.597  0.0591  0.2832 -0.2239
 3783W        W19917   2.951  13.808   4.400  0.2212  0.0776 -0.1494
 3784W        W19918   2.252  17.947   2.247  0.1698 -0.0684 -0.2442
 3785W        W19919  18.292   4.657  13.607 -0.1226  0.0583 -0.0384
 3786W        W19920  16.016  14.437  13.386  0.1735  0.3317  0.1023
 3787W        W19921  15.044   6.257   4.553  0.2233  0.0928  0.3379
 3788W        W19922  17.861   4.064  12.956 -0.0165 -0.1573  0.1148
 3789W        W19923  12.841  11.332   3.497  0.2024 -0.2542 -0.0217
 3790W        W19924  13.382  13.444   0.598 -0.0158 -0.3775 -0.0231
 3791W        W19925  11.435   5.505   0.860 -0.1399 -0.0625  0.0831
 3792W        W19926   6.591   4.619   4.329 -0.2859  0.4394 -0.1391
 3793W        W19927  17.691  14.476   0.995  0.1502  0.0770  0.1096
 3794W        W19928  18.043   2.257  11.238 -0.0764 -0.2225  0.0300
 3795W        W19929   2.164  13.046   2.142  0.0788 -0.1604  0.0229
 3796W        W19930   8.590  16.492  10.903  0.1213  0.0627 -0.2232
 3797W        W19931  18.907   1.002  10.494  0.0258  0.0777 -0.1363
 3798W        W19932   4.249   0.555  14.897 -0.2530  0.0824 -0.0533
 3799W        W19933  10.735   0.018  12.694 -0.0622 -0.0635 -0.3436
 3800W        W19934  16.058  15.363  10.212 -0.2001 -0.3337  0.2631
 3801W        W19935   5.314  12.365  14.218  0.0820  0.0934 -0.0871
 3802W        W19936   2.479   9.343   4.693 -0.0403  0.4318 -0.1018
 3803W        W19937  11.075   7.670  14.868 -0.0005 -0.1989 -0.1367
 3804W        W19938  14.793   8.333   2.278 -0.1291  0.1185  0.2004
 3805W        W19939   2.712  11.560   2.209  0.0289 -0.1817  0.3729
 3806W        W19940  18.358   3.650  12.225  0.2789  0.0957  0.0485
 3807W        W19941   8.855  11.788  10.845 -0.0854 -0.1334  0.0929
 3808W        W19942   6.471  10.651  13.379 -0.1557 -0.1392 -0.2616
 3809W        W19943  14.966  14.874  14.539 -0.2829  0.1957  0.1175
 3810W        W19944  18.349   7.868  13.904 -0.2375 -0.4644 -0.1263
 3811W        W19945  10.172  15.677  12.631 -0.0312  0.0697 -0.2425
 3812W        W19946  14.681  13.969  13.104  0.1164 -0.1774 -0.1112
 3813W        W19947   6.212   1.835   0.600  0.0018  0.0344  0.3767
 3814W        W19948  15.977  12.936  10.868  0.0832 -0.0437 -0.2059
 3815W        W19949  19.166   1.028   2.279 -0.0043  0.3609  0.1316
 3816W        W19950   0.142  16.600   1.471 -0.1554 -0.2110 -0.2561
 3817W        W19951  15.526   3.172   0.792 -0.0317 -0.2426 -0.1301
 3818W        W19952   2.684  19.074  13.093  0.0960  0.0717  0.0849
 3819W        W19953  16.144  17.782  13.263  0.0381 -0.4648  0.2302
 3820W        W19954  11.121  13.934  10.292 -0.1288  0.1061 -0.0167
 3821W        W19955  17.736   2.305   2.788 -0.0888  0.1025  0.1222
 3822W        W19956  15.051  15.980  11.810 -0.1624 -0.1164 -0.3949
 3823W        W19957   0.145  15.599   3.035  0.2128  0.1946  0.1381
 3824W        W19958  15.959  10.519   3.662 -0.1769 -0.1188  0.0171
 3825W        W19959  19.006  16.469  11.915 -0.0710 -0.2097  0.1946
 3826W        W19960  17.794   7.066   0.513  0.4128 -0.1652 -0.1283
 3827W        W19961  13.183  12.610  14.265  0.0039  0.1981 -0.0585
 3828W        W19962  12.174   7.289  10.420 -0.1323 -0.1064  0.0721
 3829W        W19963   2.740   2.543   9.603 -0.1329 -0.0854 -0.2228
 3830W        W19964  10.624  15.617   0.139 -0.1030 -0.0376  0.6150
 3831W        W19965  12.401  15.248   3.859  0.0489 -0.1101 -0.2760
 3832W        W19966  10.793  11.443   4.477 -0.1798  0.0046 -0.4143
 3833W        W19967   8.761  12.306  13.204 -0.0343  0.1199  0.4673
 3834W        W19968   9.838  12.854  14.610  0.1066  0.0827  0.4498
 3835W        W19969   7.415  11.607  10.716 -0.2386 -0.0829  0.1826
 3836W        W19970  18.945   1.601   0.441  0.2665  0.0536  0.0362
 3837W        W19971   4.879  17.320   1.229 -0.1646  0.2942  0.1179
 3838W        W19972   5.546   0.964  11.459 -0.3019  0.0368  0.0087
 3839W        W19973   1.472   4.449  10.314 -0.1161 -0.2884  0.0880
 3840W        W19974  11.082   9.290  11.995 -0.2308 -0.2773  0.3459
 3841W        W19975   1.691   0.768   1.002 -0.0324  0.0886 -0.1357
 3842W        W19976  11.555   9.627  13.948 -0.0320  0.0454  0.2784
 3843W        W19977  13.115  15.778   0.066  0.1258 -0.2895 -0.0733
 3844W        W19978   6.220   6.972   4.883  0.0147 -0.1206  0.0336
 3845W        W19979   1.049  14.494   2.488  0.0889  0.1530  0.0229
 3846W        W19980  16.741  18.376   5.056  0.0533 -0.1221 -0.2241
 3847W        W19981   9.326  11.761  10.715 -0.1581  0.0276  0.1682
 3848W        W19982   6.451  19.122   0.582 -0.1405  0.1592  0.3899
 3849W        W19983   3.611  15.429  11.081 -0.1037  0.2684  0.1299
 3850W        W19984   4.399  10.741  13.565 -0.3673  0.2038 -0.2800
 3851W        W19985   0.196  13.672   1.427 -0.1751 -0.3495  0.2867
 3852W        W19986  17.514  14.986  12.150 -0.2336  0.2178 -0.3346
 3853W        W19987   2.829   8.870  10.519  0.0599  0.1617  0.1732
 3854W        W19988  19.212  16.021   0.631 -0.0927 -0.0885 -0.1075
 3855W        W19989  15.805   8.718  13.860 -0.3632 -0.2749  0.0020
 3856W        W19990   5.977   6.998   4.042 -0.2548 -0.1043 -0.3250
 3857W        W19991   3.979   6.779   4.544  0.0613 -0.1308  0.0379
 3858W        W19992   4.122  10.600   3.412 -0.1844  0.1911  0.2418
 3859W        W19993   9.665  13.643   3.881 -0.0138  0.0065  0.1280
 3860W        W19994   0.034  14.690  11.830  0.1196  0.2209 -0.0468
 3861W        W19995  10.813  14.921  14.233  0.0813  0.1311  0.0522
 3862W        W19996   1.912   7.909  12.026  0.0013  0.0562 -0.1160
 3863W        W19997  14.981   5.664  14.701  0.1959  0.0856  0.1593
 3864W        W19998   7.209  13.289  13.356  0.0555 -0.1591  0.2536
 3865W        W19999  11.539   7.629   0.054  0.1314  0.4776 -0.0256
 3866W        W20000  15.382   0.685   1.447  0.2812 -0.0047 -0.0987
 3867W        W20001   9.638   6.958   0.922  0.1397  0.0634  0.0998
 3868W        W20002  18.471   3.578   1.878  0.0750  0.2583  0.3546
 3869W        W20003   6.868   8.301   4.703  0.2372  0.1099  0.0846
 3870W        W20004  10.121   0.696   2.287  0.1328  0.0698  0.0079
 3871W        W20005  11.854  13.891   2.852 -0.2961  0.2782 -0.1933
 3872W        W20006  15.682  10.452   3.213 -0.1513  0.0961 -0.1732
 3873W        W20007  11.815   9.006   3.763 -0.3069 -0.0292  0.0600
 3874W        W20008  11.723  18.995  13.347  0.0741  0.0693  0.0242
 3875W        W20009   1.516  17.305  14.014  0.0870 -0.1312  0.0554
 3876W        W20010   2.936   4.657  12.196 -0.5621  0.0705  0.2376
 3877W        W20011  19.249  18.869   4.541 -0.3552  0.1907 -0.0591
 3878W        W20012   2.183   9.199  11.684  0.2953  0.0636 -0.0952
 3879W        W20013  10.234   7.219  14.029  0.4112 -0.2344  0.3124
 3880W        W20014  16.441  19.113   9.712  0.3014 -0.0130 -0.0332
 3881W        W20015   3.744   2.893  12.514  0.0295 -0.0867  0.4082
 3882W        W20016   8.717   2.537   1.872  0.1202  0.1705  0.2049
 3883W        W20017   9.744   9.991   3.163 -0.1705  0.3792 -0.0684
 3884W        W20018   0.453  16.750   1.826  0.0866  0.1606  0.1625
 3885W        W20019  11.601  16.936   1.681  0.5048 -0.3989  0.0608
 3886W        W20020  14.404   4.722  10.395 -0.0022  0.1274  0.0813
 3887W        W20021   7.214   7.110   4.146 -0.1517 -0.1938 -0.2041
 3888W        W20022  14.769   9.789  10.252  0.1355  0.2640  0.0045
 3889W        W20023   9.342  17.794   4.902  0.1306 -0.0463 -0.0105
 3890W        W20024   6.578   2.529  11.823  0.2073  0.0674  0.0691
 3891W        W20025   1.176   2.792  10.725 -0.0854  0.2027 -0.1805
 3892W        W20026   7.620   0.667  14.092  0.1192 -0.1627 -0.1358
 3893W        W20027  13.570   5.225   1.079 -0.0306 -0.1798 -0.1850
 3894W        W20028  13.226  13.847  12.364  0.0576 -0.0162 -0.1947
 3895W        W20029  12.477   1.342  11.262  0.1163 -0.1706 -0.0632
 3896W        W20030  14.541   5.947  10.629 -0.0658  0.0481 -0.1721
 3897W        W20031  12.480   9.333  10.445  0.1626 -0.3302 -0.0168
 3898W        W20032   7.482   9.448   9.977  0.0652 -0.1925 -0.2491
 3899W        W20033  17.167  18.982  13.162 -0.1592 -0.0950 -0.1833
 3900W        W20034  15.407  10.693   2.462 -0.2488 -0.2818 -0.0749
 3901W        W20035  13.421  13.970   1.971 -0.1807 -0.1943 -0.4431
 3902W        W20036  11.164   1.909  14.765  0.1739 -0.1743  0.0192
 3903W        W20037   2.088  11.849   0.886 -0.0744  0.0079  0.1141
 3904W        W20038  17.951   0.760  13.520  0.0218 -0.1481 -0.0267
 3905W        W20039  11.198  16.630   3.586  0.0307 -0.0791 -0.1990
 3906W        W20040  16.623   7.852   3.747 -0.0254 -0.1931 -0.0768
 3907W        W20041   6.185   5.839   2.335  0.2666 -0.0481 -0.1994
 3908W        W20042   0.300   7.241  11.141 -0.0279  0.0433  0.1652
 3909W        W20043  18.664   3.947   2.161 -0.0424 -0.1443 -0.1113
 3910W        W20044   9.985   9.947  12.855  0.3887 -0.0295 -0.2703
 3911W        W20045  16.485  15.784   3.763  0.0774  0.1985 -0.2157
 3912W        W20046   7.051  10.269   3.612  0.3519  0.0416  0.2559
 3913W        W20047  11.615  13.014  11.412 -0.2668 -0.1293  0.1505
 3914W        W20048  13.234  11.152   5.219 -0.3270 -0.4781  0.2635
 3915W        W20049   0.738   9.311   3.047 -0.2221  0.0743 -0.2128
 3916W        W20050  16.242   5.840  13.922 -0.1480  0.1040 -0.2489
 3917W        W20051   4.586  16.060  11.903  0.1490 -0.1595 -0.1885
 3918W        W20052  12.812   2.272   3.517 -0.2767 -0.0687  0.2261
 3919W        W20053  17.903  15.889  10.523  0.2073 -0.2124 -0.1347
 3920W        W20054   0.300   4.036  10.438  0.1174 -0.0216  0.1029
 3921W        W20055  16.897  17.159  12.337 -0.1394  0.3177  0.2757
 3922W        W20056   7.939   2.415  10.533 -0.1936  0.0474  0.0041
 3923W        W20057  15.359  15.663  13.496  0.0800 -0.0455  0.1128
 3924W        W20058  10.728   0.149  11.659 -0.0804  0.0793 -0.1301
 3925W        W20059   6.137  14.641  13.377 -0.3474  0.3373 -0.2251
 3926W        W20060   2.339  17.264  14.635 -0.1153  0.0845  0.2954
 3927W        W20061   3.918   9.734   0.308 -0.1070 -0.0494  0.0519
 3928W        W20062  15.500  14.100  12.033 -0.0793  0.2071 -0.3419
 3929W        W20063   4.868   8.142  13.001  0.1716  0.0728  0.0711
 3930W        W20064  13.687   1.586   2.666  0.0161  0.0111  0.4557
 3931W        W20065   0.183  12.198   0.985 -0.1802 -0.1660 -0.1154
 3932W        W20066  19.243  10.259   2.957 -0.1578  0.2933 -0.2199
 3933W        W20067  17.024   5.420  14.846 -0.3234 -0.0689 -0.0910
 3934W        W20068   1.175   3.028  12.303 -0.2552 -0.1403  0.2033
 3935W        W20069  16.761   3.125  14.537 -0.3243  0.0639  0.0616
 3936W        W20070   4.373   9.606   2.170  0.0028  0.0222  0.1149
 3937W        W20071   2.990   6.480  12.807  0.2214  0.1546  0.0691
 3938W        W20072   3.223   1.051  14.141 -0.1010  0.1498  0.0986
 3939W        W20073  13.068  18.992  12.842  0.1716 -0.2272 -0.0425
 3940W        W20074   5.176  18.385   3.671 -0.3920 -0.1473  0.0412
 3941W        W20075   9.471   7.255  13.509 -0.1171 -0.2415 -0.0330
 3942W        W20076  11.116  16.427  10.812  0.1440 -0.0191  0.1666
 3943W        W20077   2.572   4.996   4.169  0.2727  0.0886 -0.2971
 3944W        W20078   9.075  15.967   2.435  0.1138 -0.1155  0.0749
 3945W        W20079   0.658   6.723   4.759  0.2348 -0.1180  0.1517
 3946W        W20080  11.257  10.463  14.787 -0.1815  0.1699 -0.0520
 3947W        W20081   9.592  12.027   3.047  0.1413  0.0143 -0.0096
 3948W        W20082  17.930  10.314   1.165  0.2606  0.1348  0.0909
 3949W        W20083  17.767   3.063   1.760 -0.0298  0.0886 -0.1925
 3950W        W20084   2.903  12.251   3.604  0.0622  0.1245  0.1009
 3951W        W20085   1.331  13.767   4.525 -0.0201 -0.1389 -0.2119
 3952W        W20086  15.957   3.201  11.051  0.1551  0.0245 -0.2111
 3953W        W20087   8.541   4.675  14.605  0.1900  0.1991  0.0953
 3954W        W20088   8.844   5.248   0.907 -0.0260  0.0918  0.1881
 3955W        W20089   4.607   8.619   4.647 -0.0927  0.0744 -0.0806
 3956W        W20090   8.717  13.348   4.910 -0.1266  0.1756 -0.0445
 3957W        W20091  10.113  17.270   4.870  0.0624 -0.5453 -0.3006
 3958W        W20092   3.081   0.036   4.061  0.0001  0.0858  0.2296
 3959W        W20093   2.564   2.897   4.680 -0.0741  0.0797 -0.0217
 3960W        W20094   7.077  15.058   0.165 -0.3797 -0.4454 -0.0504
 3961W        W20095  16.028   7.307  13.431  0.2653  0.0480  0.1481
 3962W        W20096   7.553   0.823   5.179 -0.3544  0.2607  0.2290
 3963W        W20097   7.681  13.422   1.770 -0.3197  0.0741 -0.0341
 3964W        W20098  16.438  18.327  14.014 -0.1749 -0.1368 -0.0741
 3965W        W20099   6.321  17.891  14.422  0.0452  0.3225 -0.0264
 3966W        W20100   0.176   3.062  11.721  0.0765  0.3048 -0.0160
 3967W        W20101   6.405  12.724   0.077 -0.2773 -0.1799  0.1058
 3968W        W20102   9.633   0.805   2.289 -0.0924 -0.1116  0.1373
 3969W        W20103   4.784  11.052  14.422 -0.0495  0.0090 -0.0656
 3970W        W20104  11.699   1.780  14.796  0.3570 -0.0731  0.4278
 3971W        W20105   3.352  15.404   2.559 -0.1524  0.0366 -0.2912
 3972W        W20106  17.123  18.638  10.200 -0.0695 -0.0495  0.0444
 3973W        W20107  19.123   3.635  10.976  0.0340 -0.1698  0.0984
 3974W        W20108   2.029   0.183  12.396  0.0499  0.2329 -0.1285
 3975W        W20109   8.387  17.646  11.406  0.1934 -0.0565  0.4537
 3976W        W20110   3.464  17.250  13.872 -0.1426  0.3444 -0.2529
 3977W        W20111   5.630  17.827   3.939 -0.1917  0.2182  0.1973
 3978W        W20112  14.304   1.755  14.351  0.1703 -0.1546 -0.2357
 3979W        W20113  14.498   8.884  12.311 -0.0493 -0.0577  0.0325
 3980W        W20114   1.155   0.289   1.284 -0.1000 -0.1066  0.2864
 3981W        W20115   4.615   7.646  11.479 -0.3810  0.0532 -0.1957
 3982W        W20116  11.962  14.742  11.604 -0.4243 -0.1960  0.0947
 3983W        W20117   7.683  18.378  13.066 -0.1781  0.1904 -0.1392
 3984W        W20118  11.893  16.309   4.753 -0.2604 -0.2102 -0.3995
 3985W        W20119   6.548  12.626   3.335  0.0993  0.0426  0.1457
 3986W        W20120  10.793   9.697  11.672  0.3805  0.0442  0.1566
 3987W        W20121  10.290  13.116  13.808 -0.5569 -0.1857  0.0039
 3988W        W20122   9.644   4.369  10.693 -0.0261 -0.0226 -0.0778
 3989W        W20123  12.464   0.210  14.916 -0.2475  0.0624 -0.1060
 3990W        W20124   4.619   5.236   3.358  0.0277  0.0995 -0.2409
 3991W        W20125  10.166  17.087  10.485 -0.2058  0.0601 -0.4342
 3992W        W20126   0.526  10.345  12.343 -0.0144 -0.0648  0.2566
 3993W        W20127   7.561  14.682  11.226 -0.1381 -0.2922  0.3420
 3994W        W20128  15.568   9.418  13.515 -0.2634 -0.3977 -0.1010
 3995W        W20129   0.328  13.232   3.814  0.1460  0.3600  0.0232
 3996W        W20130  19.067  17.769  14.235  0.0649  0.0828  0.0148
 3997W        W20131   0.298  10.036   4.398  0.0577 -0.3441  0.0596
 3998W        W20132  15.710   1.268  14.700 -0.1088 -0.3193  0.2599
 3999W        W20133  16.431   7.229   1.772  0.0661  0.0067  0.1313
 4000W        W20134   0.837  18.903   0.246 -0.1689 -0.0571  0.0602
 4001W        W20135  17.342  13.211  13.588 -0.2710  0.1724 -0.1269
 4002W        W20136   7.467  14.578   3.062 -0.2319 -0.0372 -0.0561
 4003W        W20137  16.205   0.277  11.127 -0.1365  0.1918  0.3992
 4004W        W20138  10.309   5.857   5.188 -0.3572 -0.0028 -0.0339
 4005W        W20139   6.625   0.503   5.094  0.2015 -0.1901 -0.0440
 4006W        W20140  16.401  15.501   3.283 -0.1708 -0.1707  0.1032
 4007W        W20141  14.214   0.499  14.009  0.0193  0.1891  0.0095
 4008W        W20142   3.404   8.926  10.540 -0.2742  0.3159  0.1895
 4009W        W20143   8.550  14.650  10.672 -0.1014 -0.0836 -0.3005
 4010W        W20144   2.289  10.073  10.891 -0.3363  0.0330  0.1482
 4011W        W20145   7.959   6.131  11.490 -0.0288 -0.1751  0.1244
 4012W        W20146  14.258   2.122   0.134  0.0469  0.1200  0.1729
 4013W        W20147   7.229   9.089  14.785  0.2971  0.0518  0.0782
 4014W        W20148   9.937   7.626  13.239 -0.0625 -0.3619 -0.1624
 4015W        W20149  15.296   8.420   3.090 -0.0440  0.0821  0.0407
 4016W        W20150  15.934  13.518  14.520  0.2487 -0.0007 -0.0851
 4017W        W20151   7.177   3.554  14.483 -0.2074 -0.0480  0.0531
 4018W        W20152  15.865   9.440   3.070 -0.1876 -0.0585 -0.0727
 4019W        W20153   3.181  11.523   2.420  0.0888  0.0646 -0.2474
 4020W        W20154  12.334   8.081  14.094  0.0902  0.0872 -0.0308
 4021W        W20155   0.068  12.754   3.239 -0.0325 -0.2285 -0.1885
 4022W        W20156  10.553  16.639   2.079 -0.0879  0.0691 -0.2162
 4023W        W20157  18.920   1.345   4.198  0.2542  0.1503 -0.1856
 4024W        W20158  11.567   6.983  13.553 -0.1306 -0.0231  0.0319
 4025W        W20159   7.238  15.137   0.980 -0.2099  0.4747  0.0877
 4026W        W20160  18.910   0.646   0.182 -0.0417  0.1038  0.0392
 4027W        W20161   0.401  10.349  11.493  0.0346 -0.0368 -0.0259
 4028W        W20162   6.279  19.030  12.293  0.1128  0.1593  0.2335
 4029W        W20163   0.986  10.628   4.896  0.2560  0.0348  0.0464
 4030W        W20164   4.937   5.729  12.618 -0.0536  0.3261  0.2984
 4031W        W20165   5.172  10.965   2.978 -0.3794  0.1595  0.0097
 4032W        W20166  17.089  11.091  13.654  0.0248  0.0309  0.0906
 4033W        W20167   4.287   5.589  11.624 -0.1029  0.1962  0.0257
 4034W        W20168  12.278   7.100  13.460  0.2045 -0.0011 -0.2926
 4035W        W20169   1.651  15.772  14.171 -0.1029  0.2310 -0.1115
 4036W        W20170  13.974  13.005  13.849 -0.3218 -0.1255  0.2054
 4037W        W20171  16.300  19.317   2.058  0.1270 -0.3072  0.0889
 4038W        W20172  10.436  17.782  14.439  0.0470 -0.0628 -0.1122
 4039W        W20173   5.424   1.765  13.579 -0.1609 -0.4100  0.0274
 4040W        W20174  14.603   8.478   4.169 -0.2214  0.0963 -0.1413
 4041W        W20175  18.762   7.541   3.503  0.0583 -0.2442  0.0815
 4042W        W20176  11.827   1.309  11.854  0.1102  0.1320  0.0413
 4043W        W20177  10.673  11.553   2.584 -0.1299 -0.1270  0.0614
 4044W        W20178  17.555   9.832   4.669  0.0968  0.1883 -0.1599
 4045W        W20179   2.135   7.573   0.867  0.0067 -0.0156  0.1094
 4046W        W20180   8.734   2.969  13.137  0.2902 -0.0029  0.1063
 4047W        W20181  17.050   5.985   3.564 -0.1493  0.2297 -0.1871
 4048W        W20182  14.060  16.529  10.723 -0.0478 -0.2444  0.1784
 4049W        W20183   4.198   8.591  10.982 -0.1349  0.1804  0.4869
 4050W        W20184   6.772  16.393   5.249  0.1390  0.1801 -0.1123
 4051W        W20185   1.358   4.449   0.776  0.1683  0.0126 -0.1811
 4052W        W20186  13.436   3.343   2.802 -0.2515 -0.2015 -0.0990
 4053W        W20187  12.468  13.560   4.151  0.0096 -0.0292 -0.0771
 4054W        W20188  13.942   8.275  11.578  0.2952  0.3669 -0.3498
 4055W        W20189  15.563  17.021  10.852 -0.0079  0.0041 -0.3132
 4056W        W20190  15.441   4.014  14.847 -0.1372  0.0107 -0.0008
 4057W        W20191   8.263  10.797   1.527 -0.0160  0.2322  0.1598
 4058W        W20192   6.881  13.092   4.320  0.1935  0.1962 -0.2406
 4059W        W20193   3.331   3.966  11.642  0.0283  0.1929  0.1101
 4060W        W20194  13.586   6.105   4.364 -0.2727 -0.0186  0.1901
 4061W        W20195   6.575   3.798  14.496  0.0016  0.1127  0.0071
 4062W        W20196  12.455   6.072  12.213 -0.1160 -0.2637  0.0596
 4063W        W20197  18.417  12.047  12.021  0.2401 -0.2847  0.2320
 4064W        W20198  14.956   1.526   3.951  0.0876 -0.0462  0.1643
 4065W        W20199  13.766  16.302   2.631  0.1276 -0.0130  0.1466
 4066W        W20200  11.014  16.645  13.118  0.0032  0.0333 -0.1058
 4067W        W20201  17.279  10.277  14.159  0.0632 -0.0840  0.0854
 4068W        W20202  12.488   1.772   2.322 -0.0442  0.1543 -0.2871
 4069W        W20203   3.440  13.651   0.343 -0.0118  0.1184  0.2936
 4070W        W20204  18.696   2.921  14.337  0.2723 -0.3925 -0.2582
 4071W        W20205  12.373   2.643  14.070 -0.0321 -0.2210  0.0434
 4072W        W20206  17.281   2.517  13.837  0.0022 -0.1801 -0.0453
 4073W        W20207  12.763   0.895   4.207  0.0032 -0.0388 -0.0490
 4074W        W20208   2.165   5.509   4.991  0.1179  0.1441 -0.0534
 4075W        W20209   6.676   7.406   4.758 -0.1037 -0.3624  0.0628
 4076W        W20210  14.100   2.586  14.088 -0.1529 -0.0215 -0.0741
 4077W        W20211   0.643  19.028   4.408 -0.0403  0.1428  0.1046
 4078W        W20212   0.052   4.336   9.691 -0.1117 -0.1259  0.0555
 4079W        W20213   4.981  10.135   4.165 -0.3010 -0.4725 -0.3281
 4080W        W20214  18.318   8.842  10.827 -0.2150  0.2537 -0.0087
 4081W        W20215   8.431   2.740   4.654  0.2545 -0.1365 -0.2130
 4082W        W20216  14.704   0.922   5.098  0.0380  0.0619 -0.2539
 4083W        W20217  15.100   7.879   5.590 -0.0497 -0.1502  0.2230
 4084W        W20218  15.532   9.457  14.498 -0.1238  0.2387  0.1124
 4085W        W20219  18.458  15.775   0.400 -0.2470  0.0522 -0.0085
 4086W        W20220  15.023   9.084  12.158  0.0759  0.0405  0.0999
 4087W        W20221   5.913   4.097  14.049  0.0190  0.0317  0.2171
 4088W        W20222   2.094  10.062  11.657  0.5331  0.2389 -0.2348
 4089W        W20223   7.085   6.454   3.301 -0.0935  0.0042 -0.1563
 4090W        W20224  11.597   4.482   3.316 -0.1409  0.0210  0.0062
 4091W        W20225  10.101  11.229  12.056  0.4810  0.2840  0.1620
 4092W        W20226  15.843   3.898   1.988  0.2037 -0.0732 -0.0839
 4093W        W20227  15.211   4.819   3.568  0.0312  0.0151 -0.0193
 4094W        W20228  15.044   5.771  12.664 -0.2128 -0.1098  0.0007
 4095W        W20229  11.301  10.655   2.567 -0.0507 -0.1509  0.3779
 4096W        W20230   1.877  10.237  12.869 -0.2728 -0.3132 -0.0363
 4097W        W20231   6.690  10.664  12.783  0.1399  0.0471 -0.0200
 4098W        W20232  17.614  16.200   5.220  0.1722 -0.0802 -0.0000
 4099W        W20233   0.290   5.584  12.957  0.2332  0.1869 -0.0114
 4100W        W20234   0.792   6.932   5.212 -0.1271 -0.3261 -0.2658
 4101W        W20235  19.039   0.512   2.247  0.1785 -0.1551 -0.0801
 4102W        W20236  14.590   8.940  13.090  0.3471 -0.2305 -0.0689
 4103W        W20237  18.707   2.825   1.248  0.0600 -0.0434  0.0389
 4104W        W20238  11.262  10.502  11.360 -0.1455  0.2547 -0.3087
 4105W        W20239   4.445  14.762   4.483  0.2657  0.1049  0.0408
 4106W        W20240  15.184  13.230   4.142  0.0193  0.1083 -0.0168
 4107W        W20241   3.045   3.253  14.223  0.1377 -0.3252  0.1131
 4108W        W20242  13.986   7.252   9.772  0.0324 -0.2866  0.0269
 4109W        W20243   8.720   6.083  14.855  0.1939 -0.0316 -0.0902
 4110W        W20244  13.921  11.219   3.629 -0.0584  0.2002 -0.2885
 4111W        W20245   0.237  10.047   0.545  0.1709  0.0590  0.0786
 4112W        W20246   9.885  10.242  14.236  0.0013 -0.0721  0.1096
 4113W        W20247   1.825   2.703  13.956 -0.0248  0.0266  0.1426
 4114W        W20248   0.935   8.078  10.326  0.1495 -0.2292 -0.1018
 4115W        W20249   7.342  17.209   4.604 -0.0040  0.0571  0.0819
 4116W        W20250  17.613   8.225   1.185 -0.1262  0.0309  0.0535
 4117W        W20251   8.143  18.682   0.382 -0.1699  0.0712  0.1336
 4118W        W20252   3.585  17.203   2.797 -0.2264  0.0819 -0.0270
 4119W        W20253   8.586  10.938  11.983  0.2179 -0.4675 -0.1418
 4120W        W20254  10.633   6.935  12.219  0.0712 -0.0195 -0.3237
 4121W        W20255  14.424   4.836   9.864 -0.0978  0.2396  0.1294
 4122W        W20256  11.591   9.634  10.460 -0.0285  0.1012 -0.1664
 4123W        W20257  13.594   2.081  10.638 -0.0647  0.0789  0.1680
 4124W        W20258   6.621  17.988  11.877 -0.3471  0.0545  0.1370
 4125W        W20259  12.515   4.701   4.958  0.2103  0.2792 -0.2164
 4126W        W20260  17.713  11.205  11.817  0.0257  0.1185  0.3006
 4127W        W20261   8.318  13.408   0.793 -0.0010 -0.1111  0.2499
 4128W        W20262  14.366  14.143   4.624  0.1093 -0.0469  0.1611
 4129W        W20263   5.268  18.040   1.403 -0.0022 -0.1758 -0.1989
 4130W        W20264  12.840   4.507  11.088  0.6440  0.2379 -0.1990
 4131W        W20265  12.420  16.319  10.515  0.0565  0.4146  0.4115
 4132W        W20266  10.333   5.915  14.998  0.1231 -0.3102  0.2421
 4133W        W20267   8.866   3.874  14.498 -0.1597 -0.2027 -0.0075
 4134W        W20268   1.851   5.814  13.198  0.1757 -0.5454  0.3148
 4135W        W20269  13.308   1.781   0.123  0.0895  0.1286  0.0059
 4136W        W20270  18.850   7.694   3.017 -0.0895 -0.0813  0.1701
 4137W        W20271  17.242  18.040  12.651  0.2476 -0.2091 -0.0279
 4138W        W20272  13.932   2.663  13.169  0.1657  0.1632 -0.2463
 4139W        W20273  15.633  10.818   1.081  0.1322 -0.1534 -0.5087
 4140W        W20274   5.493   8.595   4.642 -0.2115  0.1662 -0.2492
 4141W        W20275  19.263  18.334   4.596  0.0176  0.4411  0.0312
 4142W        W20276   5.566   9.274  13.713  0.0556 -0.3340 -0.1346
 4143W        W20277   5.458   8.136   3.358 -0.1814  0.3646 -0.2349
 4144W        W20278   3.172  19.323  13.913  0.1573 -0.2337  0.0807
 4145W        W20279   7.469   3.395   2.864 -0.1274  0.5133  0.0488
 4146W        W20280  11.668   5.995  13.115 -0.0390  0.0408  0.1504
 4147W        W20281   8.260   0.586   4.492 -0.1795  0.0155  0.0109
 4148W        W20282  11.765   5.372  11.894  0.1859  0.2888 -0.2436
 4149W        W20283   9.234  18.391  13.130  0.2433 -0.2154 -0.2623
 4150W        W20284  10.200   6.000   4.708  0.1697 -0.0500  0.0666
 4151W        W20285   3.301   7.871   3.125 -0.2931  0.3441  0.0469
 4152W        W20286  18.740   3.168   3.469  0.0012 -0.0406  0.1150
 4153W        W20287  17.022   4.475  10.653 -0.0845 -0.0270  0.0726
 4154W        W20288   9.430   0.905  14.414  0.1502 -0.1665 -0.1066
 4155W        W20289  16.400  18.918   3.404 -0.0902  0.0098 -0.0449
 4156W        W20290   2.237   7.420  12.346 -0.2307 -0.1053 -0.0234
 4157W        W20291   5.341  18.885   0.018  0.1366 -0.1519  0.0418
 4158W        W20292  17.541   8.482  10.333  0.0765  0.1686 -0.2791
 4159W        W20293   4.509  13.797  11.955 -0.1212  0.0934 -0.2572
 4160W        W20294  11.966   6.147  10.828  0.5096  0.1445 -0.0491
 4161W        W20295  15.937  12.025   1.168 -0.0397 -0.1547 -0.0585
 4162W        W20296   2.533  11.036  10.853  0.4093  0.3438 -0.1704
 4163W        W20297  17.903   7.650   4.610 -0.0384 -0.1509 -0.1238
 4164W        W20298  10.494   9.916  11.158  0.1034  0.1558 -0.1807
 4165W        W20299  18.746   9.009  11.964  0.0543  0.2562  0.0358
 4166W        W20300   4.872   7.440   2.448 -0.0560  0.0488  0.2618
 4167W        W20301  12.635   7.819   2.446 -0.0555  0.1750 -0.3835
 4168W        W20302  12.199   2.573  13.508  0.2105  0.2864 -0.1932
 4169W        W20303   9.688  11.319   1.177  0.0223  0.3063 -0.1423
 4170W        W20304   1.742   1.674  10.201  0.1601  0.0195  0.3054
 4171W        W20305  14.350   5.273   1.022 -0.0908  0.1318  0.5539
 4172W        W20306  11.847  13.985  14.213 -0.1069 -0.2751 -0.2220
 4173W        W20307  12.274   8.407   1.724  0.2100  0.2228 -0.1145
 4174W        W20308  11.506   6.884  10.911 -0.1422 -0.0834 -0.1993
 4175W        W20309   7.824   3.337  10.773  0.1918 -0.3056  0.0379
 4176W        W20310   2.220   9.596  12.764 -0.3443  0.0445  0.0507
 4177W        W20311   9.172   4.845  11.618  0.0317  0.0188 -0.1797
 4178W        W20312  14.342  19.098   3.482 -0.0223 -0.2461  0.1602
 4179W        W20313  16.685  16.006  13.194  0.1629 -0.2154 -0.1831
 4180W        W20314  14.674  13.434   3.197  0.1459 -0.0639 -0.3084
 4181W        W20315  15.718   6.850  14.202 -0.1088  0.0832  0.1654
 4182W        W20316  15.862   9.835  10.618  0.0423  0.2065 -0.0955
 4183W        W20317   7.539  11.524   0.119 -0.0275 -0.1014 -0.0119
 4184W        W20318  19.175   9.823   0.335  0.3914  0.0502  0.1289
 4185W        W20319   5.532  13.651   2.571 -0.0039  0.2217  0.4363
 4186W        W20320   2.692  11.198   3.490  0.3329 -0.1072 -0.0836
 4187W        W20321  16.963  14.962   2.922  0.1175 -0.0179 -0.1805
 4188W        W20322   1.824  12.952  11.954 -0.2419  0.0063 -0.1371
 4189W        W20323  18.222   3.655   2.815  0.1655 -0.2710 -0.3285
 4190W        W20324  15.580  17.953   3.395  0.1157  0.2382 -0.2149
 4191W        W20325  11.288   1.311   2.503 -0.0214  0.0824  0.1289
 4192W        W20326  15.311   1.454  14.166  0.0719 -0.4316  0.0130
 4193W        W20327  15.090  14.073  10.551  0.1312  0.1340  0.3571
 4194W        W20328  11.789  14.284   1.802 -0.1528 -0.0470 -0.4540
 4195W        W20329  18.353   2.794  12.523 -0.1494  0.1046 -0.1268
 4196W        W20330  16.563  11.928   2.356 -0.3163  0.2087  0.1474
 4197W        W20331   9.992   3.085  10.445 -0.0789 -0.0965 -0.2613
 4198W        W20332  12.044   1.885   2.668 -0.4408 -0.0718  0.0655
 4199W        W20333   7.639   6.051   0.463  0.2595 -0.3284  0.0251
 4200W        W20334  18.367   3.908   3.907 -0.1038  0.1578 -0.0850
 4201W        W20335  18.666  10.324  13.732 -0.2010 -0.3631  0.0452
 4202W        W20336  18.840  17.117   3.767  0.4192 -0.3856 -0.0047
 4203W        W20337   0.542   7.540  13.470  0.3032 -0.0579  0.0323
 4204W        W20338   5.229  13.620  14.878 -0.1601  0.1289  0.1303
 4205W        W20339  10.019   9.968   2.712  0.0613  0.0107 -0.1783
 4206W        W20340   6.947  12.352  14.391 -0.1750  0.1219  0.0250
 4207W        W20341  10.073  17.235   2.668 -0.1307  0.2941  0.1845
 4208W        W20342  15.688   2.593   1.535  0.1428 -0.2748 -0.1681
 4209W        W20343  16.051  11.909  13.956  0.1654 -0.2347 -0.1611
 4210W        W20344  11.160   6.620  13.398 -0.1548 -0.0047 -0.0486
 4211W        W20345  15.738   5.009  13.897 -0.2290 -0.0671 -0.0177
 4212W        W20346   6.553  18.466  11.713 -0.0061  0.0502  0.2692
 4213W        W20347   6.625  19.326   5.276 -0.0521  0.1325 -0.2561
 4214W        W20348  15.411  16.268  10.228  0.1110  0.1647 -0.1804
 4215W        W20349  18.968  17.307  14.514  0.0648 -0.1154  0.2704
 4216W        W20350  11.773  18.288  13.347 -0.1308 -0.3095  0.0381
 4217W        W20351  16.492   0.029  11.506 -0.1019  0.0920 -0.0826
 4218W        W20352  12.109  17.509   3.703 -0.1780 -0.4169  0.0960
 4219W        W20353  16.195   2.156   3.123 -0.3365 -0.0159  0.1975
 4220W        W20354  10.077  14.342   9.192 -0.1865 -0.4092  0.1125
 4221W        W20355   3.043  19.135   0.366 -0.1360  0.2111  0.1556
 4222W        W20356  11.549   2.192  12.768  0.2988  0.0193  0.0959
 4223W        W20357  18.041  19.076  12.660  0.0595 -0.1168  0.1177
 4224W        W20358  12.875  17.734   4.499  0.0237  0.1365 -0.1417
 4225W        W20359  13.334   6.893   3.842  0.1244  0.0283 -0.2091
 4226W        W20360  14.895   1.506  14.873 -0.3461  0.0189  0.0839
 4227W        W20361  12.555  19.037   2.925 -0.0682 -0.0567 -0.0304
 4228W        W20362  11.596  17.775   2.020 -0.0083 -0.0482  0.1298
 4229W        W20363   4.904   3.840   3.064  0.2005  0.2465  0.1367
 4230W        W20364  13.416  13.892   0.380  0.0150  0.0890  0.0527
 4231W        W20365  11.373  11.342  14.253  0.1303  0.2497  0.2309
 4232W        W20366  15.139   6.516  12.051 -0.0004 -0.2075 -0.0494
 4233W        W20367  18.540  12.819   2.093  0.0158  0.1908 -0.0870
 4234W        W20368  14.287   4.085  10.978  0.2067  0.2487 -0.0062
 4235W        W20369   7.075  19.194   3.053 -0.1738  0.0841  0.6117
 4236W        W20370  12.270   7.049  10.818  0.1246  0.1800  0.0397
 4237W        W20371   6.047   9.965  11.296 -0.1431  0.1400 -0.1127
 4238W        W20372  15.142  12.198   1.488 -0.0346 -0.5225 -0.1464
 4239W        W20373   4.019   9.264  10.124 -0.0694  0.0662 -0.1205
 4240W        W20374   4.014  15.013  12.657  0.0734 -0.0560 -0.0522
 4241W        W20375   7.146   6.461  13.978  0.2865  0.2494 -0.0367
 4242W        W20376   8.564  16.393   5.570  0.1575  0.1067  0.2813
 4243W        W20377   8.202   3.954   5.990 -0.0159 -0.1591  0.0149
 4244W        W20378  18.486  10.153  12.950 -0.0048  0.1675  0.3832
 4245W        W20379  13.207  14.595  14.539 -0.1721  0.0830  0.2845
 4246W        W20380   3.972   9.786   1.192 -0.1154  0.3983 -0.1819
 4247W        W20381   4.260  12.940   9.905 -0.3213  0.1616  0.2599
 4248W        W20382   4.892   3.642   2.572  0.0435 -0.3750  0.0796
 4249W        W20383  18.501  11.056   3.105  0.1245 -0.1706  0.3630
 4250W        W20384   7.655   7.831   2.560  0.0658 -0.2743  0.0027
 4251W        W20385  14.383   6.827   4.877 -0.0381 -0.0807 -0.1580
 4252W        W20386   8.498  17.264  12.765  0.2519  0.1477  0.1143
 4253W        W20387   3.469  11.903   2.337 -0.1374  0.0028 -0.1852
 4254W        W20388  10.324   1.048  11.243  0.1824  0.0663 -0.0346
 4255W        W20389  15.504  10.858   2.953  0.1506  0.0233 -0.2451
 4256W        W20390  18.887   9.597  10.268  0.1988 -0.1645  0.0600
 4257W        W20391  14.067  15.075   3.605  0.2203 -0.0377 -0.1641
 4258W        W20392   4.407  11.510   2.741  0.2317  0.1930 -0.2421
 4259W        W20393  11.278   7.881  11.893  0.0695  0.2394  0.4487
 4260W        W20394   1.234  12.664   1.481  0.1830 -0.1970  0.3060
 4261W        W20395  10.423   1.375   4.693 -0.1248 -0.1863 -0.0883
 4262W        W20396   1.605   1.457  12.499 -0.0718  0.0509  0.2152
 4263W        W20397   2.861  11.729   1.114  0.1065  0.2498  0.0493
 4264W        W20398   0.973   6.035  12.562 -0.0449 -0.0006 -0.1953
 4265W        W20399  12.729  15.167   3.461 -0.0944  0.1202  0.1755
 4266W        W20400   1.140   6.648   1.740 -0.0769 -0.2076  0.2013
 4267W        W20401   5.384   5.934  11.820 -0.2120  0.2524  0.0869
 4268W        W20402  18.939  16.621  12.688 -0.3919  0.1783 -0.1099
 4269W        W20403  16.402   6.759  12.986 -0.1917  0.1922 -0.0012
 4270W        W20404  16.080  17.890   0.679 -0.0414 -0.0634 -0.0330
 4271W        W20405   1.759  14.509   4.250 -0.2309  0.2595 -0.0974
 4272W        W20406   8.335   5.414   0.966 -0.0469 -0.0626 -0.0832
 4273W        W20407   5.694  14.020  11.084  0.0224  0.0669 -0.5604
 4274W        W20408   0.694   9.902  10.110  0.0994 -0.1725 -0.1132
 4275W        W20409   3.811   8.292   5.044  0.2008  0.1575  0.0485
 4276W        W20410  13.491  16.160  10.144 -0.0658  0.0374  0.1080
 4277W        W20411   8.229  16.399  11.666 -0.3036  0.1733 -0.0778
 4278W        W20412  15.771   9.945   3.086 -0.0164 -0.0411 -0.0877
 4279W        W20413   7.175  10.812   4.447 -0.1195 -0.0911 -0.1520
 4280W        W20414  14.271  17.731   1.374  0.0779 -0.1549 -0.0593
 4281W        W20415   0.480  18.851   3.689 -0.2817  0.5415  0.0025
 4282W        W20416   3.836  14.349   3.841 -0.0478 -0.0203  0.2810
 4283W        W20417   1.032  10.177  14.489 -0.1163 -0.1415  0.1054
 4284W        W20418  17.226  10.538   3.845 -0.1991 -0.1787  0.0691
 4285W        W20419  14.377  10.631   0.068  0.4026  0.2406  0.0831
 4286W        W20420   2.462   5.043  13.839  0.1576 -0.0312 -0.0760
 4287W        W20421  11.990   8.488   3.394 -0.1175 -0.0460 -0.1693
 4288W        W20422   7.380   4.401   0.273  0.2391  0.2474 -0.2005
 4289W        W20423  18.690  11.868   4.632 -0.1506 -0.0101 -0.3722
 4290W        W20424   0.433  15.750   2.376 -0.0568 -0.0734  0.0289
 4291W        W20425  15.133   5.072  12.414  0.1315 -0.3054  0.1115
 4292W        W20426  16.279  12.693   1.394 -0.1354  0.1518 -0.0555
 4293W        W20427   1.827  12.825   4.055  0.1986 -0.0803 -0.3469
 4294W        W20428   1.093   9.602   0.910  0.5219 -0.1122 -0.0687
 4295W        W20429  10.173  11.864   2.444  0.0609 -0.0940  0.3027
 4296W        W20430  12.009  10.170   3.715 -0.2717  0.0010  0.1975
 4297W        W20431   8.693  14.082   5.434 -0.3505 -0.1543 -0.0920
 4298W        W20432  11.244   6.785   1.411 -0.2328  0.0850  0.0539
 4299W        W20433   1.941   9.165  13.596  0.0691  0.0672  0.3727
 4300W        W20434   1.686  10.116  13.329 -0.0921  0.0277  0.1116
 4301W        W20435  16.624   5.146  14.756 -0.2999 -0.1863 -0.1124
 4302W        W20436   0.027   1.665   0.837  0.1290  0.2081 -0.2232
 4303W        W20437  18.066  18.386   1.159  0.2085 -0.2506 -0.1735
 4304W        W20438   7.954  15.059   0.739 -0.2686 -0.2688 -0.1688
 4305W        W20439  13.162  15.991  12.305  0.1562  0.1475  0.0286
 4306W        W20440  14.600   3.729  14.388 -0.4547  0.2281  0.0312
 4307W        W20441  18.721   1.814   1.826  0.2691 -0.0533 -0.2288
 4308W        W20442  13.991   2.215   2.019  0.1633 -0.1280  0.1482
 4309W        W20443   1.234  13.030   0.911  0.1384 -0.0568  0.0841
 4310W        W20444   6.000  17.708   4.202 -0.0382  0.0877  0.0557
 4311W        W20445   2.809  19.018   1.497  0.0496  0.1874 -0.1813
 4312W        W20446  15.437   2.845   0.382  0.1388  0.1524 -0.0578
 4313W        W20447  12.335   4.658   1.715  0.4126  0.2647 -0.2083
 4314W        W20448  18.752  11.442   2.043 -0.0244 -0.0390  0.2294
 4315W        W20449   4.103  18.293   2.151 -0.1392 -0.1284  0.2486
 4316W        W20450  18.480  18.566   2.423  0.0425  0.0065 -0.0197
 4317W        W20451   4.131  16.230  11.693  0.2998 -0.0552  0.1790
 4318W        W20452   9.298  13.571   0.635 -0.0316 -0.2228 -0.1053
 4319W        W20453   2.105   9.395   3.785 -0.2019 -0.2094 -0.0376
 4320W        W20454  12.486   8.094  13.148 -0.1288  0.2152 -0.2968
 4321W        W20455   6.272   4.188  15.001 -0.4060  0.1042  0.0097
 4322W        W20456  16.646   7.996   3.165  0.0156 -0.0609 -0.1299
 4323W        W20457   4.313  10.956   4.617 -0.2477 -0.1729  0.0120
 4324W        W20458  14.603   6.016  11.544  0.1215  0.1250  0.2302
 4325W        W20459   5.223  17.497   4.898  0.1556  0.1698 -0.2106
 4326W        W20460  11.098  16.240  11.299  0.0520 -0.0711  0.1848
 4327W        W20461   9.601  12.877   1.989 -0.1964 -0.4824 -0.1316
 4328W        W20462  17.838   1.161  10.040 -0.0981 -0.1988 -0.0858
 4329W        W20463   5.083  16.511  14.161  0.2016 -0.1026 -0.0919
 4330W        W20464   2.190  12.023   2.665 -0.0274 -0.1206 -0.3484
 4331W        W20465  13.229  12.474  11.147 -0.2501  0.0516 -0.3021
 4332W        W20466  11.954   0.065   0.815  0.2252 -0.1320  0.4187
 4333W        W20467  18.530   8.223  12.555  0.0786 -0.0049  0.1843
 4334W        W20468   6.287   2.617  14.183  0.0158 -0.0033 -0.0225
 4335W        W20469  14.784  15.702   3.121 -0.0946 -0.0018 -0.0400
 4336W        W20470  13.275   3.496   1.087  0.2536 -0.1433  0.0447
 4337W        W20471  16.176  18.234   0.246 -0.0242 -0.0323  0.0155
 4338W        W20472  12.237   8.965  14.906 -0.4716  0.2429 -0.1834
 4339W        W20473   1.010   2.435   0.007  0.0148  0.1709  0.2110
 4340W        W20474   0.777   9.245  11.016  0.1403 -0.0083  0.1247
 4341W        W20475   4.810   5.665   1.401 -0.0994  0.2011  0.2701
 4342W        W20476   1.766   5.888   5.001 -0.0362 -0.2154 -0.2163
 4343W        W20477  14.382  14.604   4.874  0.0610  0.0128 -0.0634
 4344W        W20478  11.769  17.279  12.128  0.0810  0.0625 -0.1372
 4345W        W20479   9.826  13.630   0.119 -0.1382 -0.0081  0.0176
 4346W        W20480   1.426  14.100   2.017  0.2224 -0.0950 -0.2631
 4347W        W20481   6.234   7.015  10.363  0.1671 -0.1115 -0.0773
 4348W        W20482   7.522  17.512   1.770  0.0132  0.1497  0.2498
 4349W        W20483   4.369  13.945  13.854  0.3102  0.1473 -0.1897
 4350W        W20484  12.728  17.371   4.209 -0.2005  0.0813  0.3989
 4351W        W20485   0.573  15.916   0.077  0.1792  0.0672 -0.0026
 4352W        W20486  11.737   9.039  12.464 -0.0282 -0.3261  0.1683
 4353W        W20487   4.305   9.135   0.217 -0.0178 -0.1551  0.2300
 4354W        W20488  15.639   2.229   4.957  0.0032  0.1302  0.2121
 4355W        W20489   8.436  10.111   4.953  0.1301  0.2755  0.0319
 4356W        W20490  16.722  17.103   4.429  0.1087  0.3241  0.1395
 4357W        W20491  10.098   5.125   0.270 -0.0295  0.4106 -0.1656
 4358W        W20492  11.768   2.053  14.393  0.3876 -0.1933  0.0220
 4359W        W20493  15.416  15.480   0.651  0.1247 -0.3284  0.3104
 4360W        W20494   9.447  15.309  10.634  0.1905  0.0596  0.1340
 4361W        W20495   9.679   1.144   6.268  0.0860 -0.0473 -0.1233
 4362W        W20496   7.334  18.634   3.707  0.0053  0.4759 -0.1477
 4363W        W20497  15.972   7.845  14.345  0.1146 -0.0913 -0.0010
 4364W        W20498   7.779  13.280   3.846  0.0494 -0.0719  0.1955
 4365W        W20499  16.911   1.370   9.856 -0.0269 -0.1700  0.3896
 4366W        W20500   1.482  18.012   5.351 -0.0632 -0.0625  0.2492
 4367W        W20501   1.564   8.624   4.147 -0.3369 -0.0489 -0.3005
 4368W        W20502  17.765  15.018   1.785 -0.3919  0.0269  0.4295
 4369W        W20503   0.364  12.268  14.386  0.0891 -0.1585 -0.3902
 4370W        W20504   9.215   5.988  10.591 -0.2300  0.1592  0.0502
 4371W        W20505   7.912  10.811   1.131  0.1862  0.0669  0.3676
 4372W        W20506   5.622   0.308  12.330  0.3890  0.0392  0.3508
 4373W        W20507  16.743   5.246   5.011 -0.4193  0.0235  0.0871
 4374W        W20508  18.463   8.802  10.284  0.0252 -0.1455  0.3454
 4375W        W20509  19.181   2.041  12.726 -0.1142 -0.4572 -0.0329
 4376W        W20510   3.555   8.296   2.797  0.1075  0.0765 -0.0182
 4377W        W20511   3.018   1.258  12.709  0.0415 -0.0168 -0.2473
 4378W        W20512   1.238   3.757  10.645 -0.2413  0.0240 -0.1264
 4379W        W20513  12.481   8.590  13.161  0.3397 -0.3459  0.1481
 4380W        W20514  14.090   1.054   3.800  0.1112 -0.1621 -0.0967
 4381W        W20515   8.627  12.022  12.272 -0.1898 -0.2645 -0.1439
 4382W        W20516   0.800  11.009  12.624  0.0076  0.2362 -0.0332
 4383W        W20517   5.311   7.805  14.421 -0.0420  0.1143 -0.1362
 4384W        W20518   5.904  15.903   5.040 -0.0364 -0.0853  0.3852
 4385W        W20519  14.587  14.081  12.226 -0.0687  0.0963  0.0818
 4386W        W20520  19.053  14.814  14.614 -0.1620 -0.1799 -0.3686
 4387W        W20521  13.161   2.101  10.835  0.2959 -0.2847 -0.5540
 4388W        W20522   9.066   2.211   3.628 -0.0659 -0.4851  0.1443
 4389W        W20523  13.024  10.617   0.359  0.0924  0.1477  0.1330
 4390W        W20524  19.262  13.821   5.274  0.1479  0.0630  0.1333
 4391W        W20525   9.126  12.222  11.937 -0.0715 -0.0954  0.1005
 4392W        W20526  19.310  12.548  13.574 -0.3370  0.2003  0.2884
 4393W        W20527  13.274  15.147   3.730  0.1393  0.0408 -0.0925
 4394W        W20528   7.603   3.856   1.561 -0.0901 -0.0321 -0.3226
 4395W        W20529   5.206  14.156   2.337  0.1941  0.0413 -0.0732
 4396W        W20530  14.936  18.424   2.419  0.0384 -0.0713  0.3673
 4397W        W20531  12.234  14.918  12.621  0.4193  0.1887 -0.0072
 4398W        W20532   1.750  17.791  14.154  0.1542  0.2224 -0.3204
 4399W        W20533   8.968   0.097   4.679 -0.4330  0.2199  0.0071
 4400W        W20534  13.004  13.162  12.264 -0.1438  0.1150  0.0807
 4401W        W20535  14.837   5.938   0.703  0.1694  0.4100 -0.0642
 4402W        W20536   7.964  16.601  10.870  0.1746  0.0592  0.4070
 4403W        W20537   2.452  14.398   1.598 -0.1838 -0.3835 -0.2181
 4404W        W20538   6.733  11.519   5.178  0.0624 -0.0286  0.0868
 4405W        W20539   8.694  17.320   5.817  0.0210 -0.0414 -0.0427
 4406W        W20540  12.307  16.536  14.989  0.1533  0.1156 -0.1558
 4407W        W20541   5.618   9.525  10.662  0.0124  0.1314 -0.2011
 4408W        W20542   2.218   4.710   0.689  0.1355  0.2350  0.1024
 4409W        W20543  12.001  13.250  13.243  0.1800 -0.0400  0.1188
 4410W        W20544  10.540   5.017   3.581  0.0299  0.3578  0.2693
 4411W        W20545  13.730   0.991   1.484  0.0006  0.0005  0.0241
 4412W        W20546   5.343   4.547   2.684 -0.3804  0.1179 -0.3333
 4413W        W20547   0.903  18.482   0.565 -0.0898  0.1481 -0.1018
 4414W        W20548  13.740  13.096  10.203 -0.1962  0.0407  0.0427
 4415W        W20549   3.771  11.403  12.942  0.0153  0.2136  0.1523
 4416W        W20550  12.651   5.044   1.832 -0.0485  0.0402 -0.2897
 4417W        W20551  10.262   4.839  13.870 -0.0963  0.4442  0.0072
 4418W        W20552   7.774   8.061   3.128  0.1575 -0.0479  0.0316
 4419W        W20553  19.029   3.244   0.496 -0.0857  0.0229 -0.3660
 4420W        W20554  10.807  12.989  14.536  0.1256 -0.4312 -0.3005
 4421W        W20555   9.611   5.167   5.749 -0.0681  0.5559  0.1077
 4422W        W20556   2.695  17.714   1.070  0.2928  0.3464  0.2071
 4423W        W20557   5.059  17.296   3.620  0.2458 -0.2269  0.1430
 4424W        W20558   7.546   9.903  14.276 -0.0697  0.1317  0.2825
 4425W        W20559   8.149  13.845   2.905 -0.1915  0.3140 -0.1113
 4426W        W20560   2.655   3.424  13.853  0.0443 -0.2186  0.1891
 4427W        W20561  12.789  16.520  12.419  0.2370  0.0045 -0.2507
 4428W        W20562  16.776   6.401  10.504 -0.4834 -0.3383 -0.0341
 4429W        W20563  11.702   1.327   4.679 -0.3040 -0.0565 -0.0019
 4430W        W20564   9.640  19.101  13.822  0.3319  0.2058  0.0071
 4431W        W20565  13.569   4.212  11.316 -0.2018  0.0632 -0.3120
 4432W        W20566   4.474  17.238  13.798 -0.2586  0.0476 -0.1369
 4433W        W20567  15.736  15.509  11.999  0.0358  0.1694  0.0586
 4434W        W20568   4.085  17.829   0.795 -0.2132 -0.3273  0.0591
 4435W        W20569   6.713   2.993   2.532 -0.1740  0.3038  0.0140
 4436W        W20570  16.069  15.565   0.233  0.0640  0.3206 -0.4016
 4437W        W20571   9.847   7.678  14.075  0.0731 -0.0563 -0.0710
 4438W        W20572   8.065  15.145  13.828  0.2360  0.0165 -0.1145
 4439W        W20573   9.154  10.805  13.893 -0.2500  0.0602  0.0631
 4440W        W20574  11.523  12.165   2.421 -0.2538  0.0180  0.1053
 4441W        W20575  12.130  13.011   0.049  0.1640 -0.1583 -0.2673
 4442W        W20576   0.320  10.346   1.761 -0.0103  0.1644  0.4755
 4443W        W20577  11.428  10.877  11.761 -0.0985 -0.0337  0.0803
 4444W        W20578  10.444   7.146   2.336 -0.1608 -0.0032 -0.1718
 4445W        W20579   7.129  13.217   2.984 -0.1387  0.0317  0.1957
 4446W        W20580   9.204  13.151  11.345 -0.1934  0.0787 -0.0471
 4447W        W20581   4.130   6.145   1.498 -0.3479  0.1624  0.1237
 4448W        W20582   7.650  19.197   0.519 -0.2006  0.0607 -0.1020
 4449W        W20583  14.554  18.728  10.918  0.0835 -0.0751 -0.2444
 4450W        W20584   0.626  16.811   4.647  0.2802 -0.1090  0.2463
 4451W        W20585   7.051  11.703   4.762 -0.2294  0.2318 -0.0552
 4452W        W20586   6.059  15.650  13.097 -0.1774 -0.3078  0.2106
 4453W        W20587   9.448  14.383  11.514  0.2233 -0.2309  0.1523
 4454W        W20588  13.000   0.923  14.992  0.0700  0.0561  0.2368
 4455W        W20589  12.300  13.682  12.401 -0.1061 -0.2641 -0.0794
 4456W        W20590   6.445  15.371  14.666 -0.0363  0.0519 -0.0231
 4457W        W20591   4.122  18.679  11.170 -0.0083  0.1642 -0.1355
 4458W        W20592  16.309  16.804   1.758 -0.1634 -0.0586 -0.1771
 4459W        W20593   1.745  14.522  11.682  0.1475 -0.1707  0.2529
 4460W        W20594  17.185   8.569  11.746 -0.2844  0.2862  0.0339
 4461W        W20595  16.429  13.797   5.325  0.2022 -0.1490 -0.0984
 4462W        W20596   4.462   0.571  10.366 -0.2954 -0.0910 -0.0547
 4463W        W20597   9.435  13.841   5.488 -0.1880 -0.2769  0.2908
 4464W        W20598  15.132   7.350   3.902 -0.2043 -0.0327 -0.0012
 4465W        W20599  17.510   6.824  11.455  0.0025  0.0683  0.0967
 4466W        W20600   6.120   5.796   5.540  0.0316 -0.3712  0.0399
 4467W        W20601   7.516   1.414   0.458  0.4416  0.1200 -0.2427
 4468W        W20602  16.645   2.205  12.778  0.2700  0.1261  0.2438
 4469W        W20603  17.784  13.753   2.851 -0.1665 -0.2570 -0.1180
 4470W        W20604   5.383   8.436  13.092 -0.0230  0.1595  0.2620
 4471W        W20605  15.321   5.930  14.380 -0.2090  0.0058 -0.1605
 4472W        W20606   6.087  11.385   0.914  0.0330  0.2059  0.1705
 4473W        W20607   0.253   0.602  10.950  0.0760 -0.1919 -0.2752
 4474W        W20608   5.543   7.674  14.879 -0.2650 -0.4591 -0.2688
 4475W        W20609  18.316  18.375  10.701 -0.0173  0.3264 -0.3376
 4476W        W20610   2.791   6.011  12.928 -0.1186 -0.1365 -0.2839
 4477W        W20611  13.762   5.106  11.440 -0.0678  0.2285  0.1959
 4478W        W20612   1.108  17.687  10.755  0.2035 -0.0694 -0.0082
 4479W        W20613   3.599   2.906  10.846  0.0790 -0.3096  0.2095
 4480W        W20614  19.225   5.763  11.245  0.0019 -0.0217  0.1815
 4481W        W20615   7.850   8.993  14.026  0.1838 -0.3139  0.1559
 4482W        W20616   1.808   2.796  13.140  0.0501  0.1846 -0.0450
 4483W        W20617  14.697   6.187   1.123  0.2275  0.2252  0.0080
 4484W        W20618  17.288  13.583  10.807  0.1915 -0.0988  0.3550
 4485W        W20619  12.782   7.935   4.871  0.0343 -0.1082 -0.0730
 4486W        W20620   2.012  14.075  14.712  0.0437 -0.0981  0.1674
 4487W        W20621   3.949  15.843  14.058  0.3212 -0.0523  0.1521
 4488W        W20622  11.254  14.543   3.927  0.0317 -0.4046 -0.0791
 4489W        W20623  11.792   2.231  12.219 -0.0485 -0.0121  0.3027
 4490W        W20624  14.030   1.165   0.088  0.0684 -0.6166  0.0014
 4491W        W20625   3.081   4.489   1.798  0.1252  0.0777 -0.4052
 4492W        W20626   6.589   0.216  12.766 -0.2013 -0.3019  0.0957
 4493W        W20627  15.102  12.598   1.116  0.1319 -0.2215 -0.0405
 4494W        W20628   2.064   2.347  14.321 -0.4007  0.3048 -0.0485
 4495W        W20629   9.115  18.788  14.541  0.1358 -0.1611 -0.2687
 4496W        W20630   8.393   1.999   5.196  0.1885 -0.0046  0.1831
 4497W        W20631   6.786  16.277  10.136 -0.0007 -0.2210  0.0247
 4498W        W20632  15.522  12.350   1.781  0.1431 -0.1657 -0.2189
 4499W        W20633  10.542  18.277   3.213  0.1580 -0.0760  0.0678
 4500W        W20634  18.897   8.977  13.682  0.0417  0.0031 -0.5401
 4501W        W20635   1.607  17.401   2.730 -0.1744  0.2454  0.0776
 4502W        W20636  17.861   7.788  13.974  0.3298  0.0717 -0.0805
 4503W        W20637   2.757   0.446   8.936 -0.1164  0.3429  0.5940
 4504W        W20638   4.525  17.261  13.185  0.0663 -0.0104 -0.3516
 4505W        W20639   1.162   2.821  14.241  0.1008 -0.0728 -0.2323
 4506W        W20640  17.593   7.707  14.453 -0.0483 -0.2649 -0.3274
 4507W        W20641  18.319   0.102  10.029  0.3891  0.1577 -0.0967
 4508W        W20642  13.907  14.496   1.280  0.1589  0.2515  0.1030
 4509W        W20643  10.537  12.590   2.318 -0.0853 -0.3734  0.0603
 4510W        W20644  15.028   3.016  11.550  0.0808  0.1433  0.0057
 4511W        W20645  16.863   4.807  11.432 -0.6273 -0.1894 -0.1048
 4512W        W20646  13.982   5.078  12.337 -0.0672  0.1243 -0.1339
 4513W        W20647   5.585  15.580   3.193  0.2215  0.0679  0.1487
 4514W        W20648   0.278   9.646   0.172  0.2241  0.1284 -0.2689
 4515W        W20649   1.291   1.344  11.600  0.0605 -0.1862  0.3202
 4516W        W20650  12.253  17.914  13.440 -0.2413  0.1070  0.0389
 4517W        W20651  10.508   0.133   3.873  0.1841  0.2198  0.3569
 4518W        W20652   0.859  14.980  14.133  0.0680 -0.1581  0.0726
 4519W        W20653   6.499   7.961  14.979 -0.1512 -0.0547  0.1953
 4520W        W20654   5.163  17.962   4.128  0.0556 -0.0081  0.0851
 4521W        W20655   3.143  18.805  14.192 -0.4722 -0.0597 -0.0526
 4522W        W20656   5.777   6.089   3.734  0.3707  0.1049  0.1807
 4523W        W20657   0.748  14.728   3.755  0.0103  0.1875  0.3538
 4524W        W20658   1.252   9.042   0.723 -0.0805 -0.1820  0.3972
 4525W        W20659   1.729  16.766  12.630  0.0764 -0.1679 -0.0755
 4526W        W20660   7.422  18.030   4.696 -0.2722 -0.2615  0.2910
 4527W        W20661  12.730   4.272   0.742  0.2437 -0.1527  0.2355
 4528W        W20662   7.308  11.283   4.591  0.1085 -0.5185  0.0014
 4529W        W20663   6.521  11.424  11.538  0.0709  0.1798  0.1118
 4530W        W20664   8.051  16.906  14.690  0.1801 -0.2041  0.0331
 4531W        W20665  14.320   2.251  11.558 -0.2931 -0.1492  0.1847
 4532W        W20666   7.390   5.825  10.907  0.3794  0.4015 -0.0032
 4533W        W20667   8.025  12.824   0.866 -0.2638  0.1048  0.0192
 4534W        W20668   6.700   5.469   3.844  0.1129 -0.0672 -0.0989
 4535W        W20669  15.462   0.351   0.432  0.2910  0.0615  0.0582
 4536W        W20670   9.529   2.609   4.883 -0.1463  0.0291 -0.0515
 4537W        W20671   8.748   3.154   5.999 -0.2459 -0.0040  0.2292
 4538W        W20672  16.367  11.181   4.186  0.1582 -0.1420 -0.0648
 4539W        W20673   6.432   3.040   1.090  0.0844  0.0635 -0.4307
 4540W        W20674  13.236   4.690   3.297 -0.2647  0.2806 -0.0605
 4541W        W20675  11.470   2.073   0.634 -0.2076  0.1448  0.1951
 4542W        W20676  18.942   2.884  12.332 -0.0631 -0.3384  0.2531
 4543W        W20677  11.171   3.273  12.649  0.1360 -0.3296  0.0901
 4544W        W20678  16.290   6.868   0.464 -0.1827 -0.0914  0.1335
 4545W        W20679   7.678   4.069   9.801  0.0173  0.3276 -0.0397
 4546W        W20680   7.443  15.912  12.518  0.1747 -0.0363 -0.1608
 4547W        W20681   4.230  16.996   0.272  0.0972  0.0091  0.1903
 4548W        W20682  18.758  18.118  11.976  0.0179  0.0853 -0.4830
 4549W        W20683  12.879  17.405   0.492 -0.1143 -0.0118 -0.1919
 4550W        W20684   0.040  12.383   0.449  0.2464 -0.3917  0.0335
 4551W        W20685   6.154  15.541  11.128  0.1908 -0.0641 -0.0612
 4552W        W20686   9.283   0.195   2.996  0.4185 -0.2401  0.0494
 4553W        W20687   3.819  12.956  12.151 -0.1864 -0.1663  0.2205
 4554W        W20688   5.589  13.937  14.893 -0.3171 -0.1617  0.1103
 4555W        W20689  11.341   0.782   3.733 -0.0768  0.0502 -0.3430
 4556W        W20690   7.202   7.733  13.473 -0.0749  0.0970 -0.0469
 4557W        W20691   8.389  15.845   1.858 -0.1081 -0.0507 -0.0339
 4558W        W20692   8.694  11.539   4.669 -0.2336 -0.1094 -0.3643
 4559W        W20693  13.949   7.335   3.038 -0.0029  0.2029  0.1761
 4560W        W20694   4.131  11.492   4.782 -0.0642  0.0421 -0.1562
 4561W        W20695  17.029   0.385  13.860 -0.1605 -0.0501  0.0446
 4562W        W20696  17.054   0.259  12.711 -0.2499  0.1786  0.0320
 4563W        W20697  15.738  15.225   4.072 -0.2447 -0.3974  0.1471
 4564W        W20698   5.361  11.552  12.235  0.2476 -0.1528 -0.3253
 4565W        W20699  15.580  10.373  13.679 -0.1327  0.0400 -0.2129
 4566W        W20700   3.027   3.914   1.938  0.2158  0.0110  0.4432
 4567W        W20701  14.475   2.976   2.508 -0.1412 -0.0651 -0.1804
 4568W        W20702  17.302  13.780  13.764  0.1131  0.0539  0.2904
 4569W        W20703  16.721   0.451  13.062  0.3126  0.0146 -0.0827
 4570W        W20704   1.513  17.436  12.127 -0.2418 -0.2960  0.2420
 4571W        W20705   5.207  13.043   4.375 -0.0886 -0.2183 -0.0003
 4572W        W20706  14.044   9.810   1.418 -0.1381  0.1760  0.1098
 4573W        W20707  13.086  12.735   3.917 -0.2183  0.0633 -0.2491
 4574W        W20708  14.027   7.365   2.086  0.1350 -0.0676  0.0754
 4575W        W20709  17.043   2.591  11.367 -0.2476  0.5682 -0.0140
 4576W        W20710   4.933   7.234  12.556  0.4559  0.2421  0.0282
 4577W        W20711  12.475   9.799  12.627  0.0432 -0.1459  0.0088
 4578W        W20712   3.900  17.086   1.981  0.2618  0.1586 -0.0336
 4579W        W20713  10.613  15.783   4.758  0.0628 -0.0257  0.3696
 4580W        W20714   8.768  11.305   4.242  0.1066 -0.2243 -0.3619
 4581W        W20715  10.479   3.330  13.336  0.3196 -0.0509  0.1031
 4582W        W20716  11.388   4.273   2.877 -0.4380  0.1331  0.0656
 4583W        W20717   4.815  18.217  12.252 -0.1339 -0.0187  0.1797
 4584W        W20718  16.637   5.211  11.284  0.2115 -0.1678 -0.1602
 4585W        W20719  13.021   5.235  10.375  0.0390 -0.2155 -0.1146
 4586W        W20720  14.822   8.713  14.600 -0.0087  0.1318 -0.4535
 4587W        W20721  18.230   4.957   3.534  0.3298 -0.2218 -0.2193
 4588W        W20722  17.376  13.082   4.615  0.1298  0.0448  0.1347
 4589W        W20723  10.370  18.235   4.186  0.0491 -0.1396  0.2306
 4590W        W20724  17.359  18.805  11.480 -0.0058  0.2227 -0.0617
 4591W        W20725  18.128  15.580   4.594  0.0345  0.2027 -0.0734
 4592W        W20726  11.322  14.384   1.686  0.2722 -0.2307 -0.1989
 4593W        W20727  16.735   9.643   0.946 -0.2490  0.1137  0.2038
 4594W        W20728  15.112   4.755  11.718  0.0294 -0.1045  0.0195
 4595W        W20729   6.533  15.886  12.468  0.0221  0.4147  0.1225
 4596W        W20730   2.677  11.885   1.783  0.0226 -0.1597 -0.0623
 4597W        W20731  18.582  17.242  11.490  0.0705 -0.4984 -0.1065
 4598W        W20732  11.547   3.692   0.945 -0.0388  0.1745 -0.0952
 4599W        W20733  13.985  16.666  12.063  0.0752  0.1148 -0.0268
 4600W        W20734   1.785   4.098   2.928  0.2248 -0.1281  0.1521
 4601W        W20735   2.438   4.024  14.413 -0.0299 -0.0471 -0.0673
 4602W        W20736   6.988  14.580  10.390 -0.1706  0.1840  0.1691
 4603W        W20737  16.891   1.114   2.797 -0.1079 -0.1162 -0.1365
 4604W        W20738   6.320   6.277  11.908 -0.0414  0.3499  0.0145
 4605W        W20739  17.919   0.033   2.708 -0.2008 -0.1914 -0.4762
 4606W        W20740   6.569   7.480   0.005 -0.1047  0.1362  0.4067
 4607W        W20741  13.213   7.821  12.558  0.2741 -0.2019  0.1862
 4608W        W20742  15.297  18.600   5.269 -0.1667 -0.4446  0.1582
 4609W        W20743  16.655  17.232   1.595  0.1084  0.0456 -0.0122
 4610W        W20744   4.284   1.884  13.010 -0.1065 -0.0627  0.0977
 4611W        W20745   1.955  18.266  10.896 -0.1200 -0.2320 -0.0041
 4612W        W20746   1.791  16.537  11.418  0.1243  0.1277  0.0287
 4613W        W20747  13.981   2.983  10.818 -0.3376  0.1177  0.2181
 4614W        W20748  18.984  15.881  13.126 -0.1473 -0.1485  0.1459
 4615W        W20749   7.701   9.096  13.357 -0.4031 -0.1907 -0.0713
 4616W        W20750   4.284   5.834   0.109  0.2482  0.0622  0.0602
 4617W        W20751  17.578  16.116   2.361 -0.1563 -0.0281  0.0379
 4618W        W20752   3.121  12.146   0.080  0.3475 -0.1005 -0.4142
 4619W        W20753   1.737   2.598   3.515  0.0742  0.1022 -0.0454
 4620W        W20754  16.749   0.190  10.322  0.2082  0.0665 -0.0118
 4621W        W20755  11.654  14.120  10.770  0.0825  0.4491 -0.2986
 4622W        W20756  13.011  10.341   2.916  0.0085  0.0325 -0.2262
 4623W        W20757  17.351  17.440  13.959 -0.3720 -0.1720  0.0814
 4624W        W20758  18.572  12.384   4.159  0.1258 -0.4213  0.0566
 4625W        W20759  14.994   1.326   3.415 -0.1559 -0.3340  0.2125
 4626W        W20760  10.539   0.683   3.764  0.0549  0.0266  0.1524
 4627W        W20761   7.042  16.492   0.067 -0.0710 -0.1540  0.3717
 4628W        W20762  13.282   0.739   3.262 -0.0064  0.2476 -0.0164
 4629W        W20763  17.897   5.472  10.409  0.1903  0.0144 -0.0321
 4630W        W20764  13.070   9.858  10.806  0.1255 -0.0933  0.0310
 4631W        W20765  13.644   9.345  13.414  0.3275  0.1367 -0.0551
 4632W        W20766  10.732   2.784   0.579  0.2715 -0.1188  0.1837
 4633W        W20767   5.794  13.140  11.197 -0.2862  0.0583 -0.2726
 4634W        W20768  11.491   4.266   1.540 -0.1065 -0.0522  0.2509
 4635W        W20769  15.172  14.429  11.644 -0.2963 -0.3231  0.2035
 4636W        W20770   9.648   2.435   0.952 -0.0223  0.2279  0.2455
 4637W        W20771  12.973   7.189   3.103  0.0094 -0.0325 -0.0110
 4638W        W20772   3.981  15.646  14.623 -0.0293 -0.1250 -0.0112
 4639W        W20773   9.442  10.786  13.441 -0.0681  0.0723  0.0507
 4640W        W20774  17.956   7.022  13.772 -0.0274 -0.2176  0.0356
 4641W        W20775  17.518  11.104   1.766  0.0784  0.4556 -0.0989
 4642W        W20776  16.879  17.009   9.210  0.2499 -0.0063 -0.0816
 4643W        W20777   1.750   0.010  14.479 -0.1879 -0.1567  0.0648
 4644W        W20778  14.676   0.394   3.242  0.0763  0.3419 -0.2086
 4645W        W20779   0.227   9.354   1.745 -0.2729  0.1421  0.0083
 4646W        W20780   5.419   6.358   2.094  0.1971 -0.3855 -0.1982
 4647W        W20781  12.724   4.266  14.294  0.1482  0.0576 -0.0898
 4648W        W20782   0.004   0.832   1.784  0.3045  0.3460  0.1995
 4649W        W20783   3.921   2.694   3.825 -0.0648  0.1176 -0.1527
 4650W        W20784  14.775   6.083  12.015 -0.3060 -0.2527  0.0334
 4651W        W20785   9.907  14.038  12.379  0.0485  0.0264 -0.3245
 4652W        W20786  14.819   3.279   1.529  0.0024 -0.2352  0.0190
 4653W        W20787  12.571  11.030   3.854  0.1613  0.1463  0.0477
 4654W        W20788   3.510   3.088   3.878 -0.0862  0.0372 -0.1274
 4655W        W20789   2.578   4.276   3.518 -0.1438 -0.0955 -0.2638
 4656W        W20790   9.993  15.551   1.284  0.1307 -0.1724 -0.3449
 4657W        W20791  15.457   8.829   4.094  0.0703 -0.0808 -0.1052
 4658W        W20792  13.287  11.734   0.125  0.1081 -0.0023  0.2289
 4659W        W20793   7.872  12.473   3.646  0.4089 -0.1533 -0.1250
 4660W        W20794   2.882   2.705   5.545 -0.5101 -0.0315 -0.0356
 4661W        W20795   6.138   9.238   2.101 -0.4228  0.0831 -0.0618
 4662W        W20796   5.059   0.333   2.471 -0.1993 -0.0484  0.1210
 4663W        W20797  18.512   8.650   4.485  0.0643 -0.0337  0.0651
 4664W        W20798  11.536   1.844   1.035 -0.0022  0.0649  0.0834
 4665W        W20799   8.813  14.742  11.081 -0.1025  0.2331  0.3136
 4666W        W20800  13.022   2.860  11.275 -0.0470 -0.2242  0.0399
 4667W        W20801  13.885  12.372  11.731 -0.3294  0.2405  0.3591
 4668W        W20802  11.983  12.602  10.591  0.2061  0.0495  0.0522
 4669W        W20803  14.078   9.331   4.429 -0.0962 -0.0467  0.1240
 4670W        W20804  11.253   8.888   2.523  0.2346  0.0355 -0.2726
 4671W        W20805   0.927   8.929  10.632  0.4054  0.3022 -0.2351
 4672W        W20806   2.770  17.559   2.151 -0.1722 -0.0600  0.2471
 4673W        W20807   2.668  15.277   0.765 -0.0531 -0.1005  0.2756
 4674W        W20808   7.555   1.361   2.451 -0.0971 -0.2718  0.1463
 4675W        W20809  14.606  19.086  14.028  0.0329 -0.3266 -0.1087
 4676W        W20810  18.534   8.543  14.747 -0.1220 -0.2068  0.0462
 4677W        W20811   9.749  19.066   4.259  0.0073 -0.2879 -0.3939
 4678W        W20812  13.426   3.971  12.851 -0.0104  0.3513  0.0864
 4679W        W20813  14.214  12.161   5.221 -0.1966 -0.0859 -0.1923
 4680W        W20814   4.260  12.079   4.835  0.2218 -0.1336  0.1155
 4681W        W20815  15.335  13.269  10.685  0.1372 -0.3384  0.2282
 4682W        W20816   4.748   3.866   1.658 -0.1135 -0.0626  0.0740
 4683W        W20817   6.732  17.992   1.121  0.1439 -0.0761 -0.0259
 4684W        W20818   9.339   1.242  12.951 -0.2169  0.0785 -0.1318
 4685W        W20819   1.801  17.816  10.278  0.0694 -0.0453  0.1171
 4686W        W20820  17.146   0.650   2.870  0.0196  0.3984  0.2354
 4687W        W20821   6.656  15.517   4.228 -0.1533  0.1540 -0.2258
 4688W        W20822   1.759  14.602   2.490  0.2613  0.2847  0.0775
 4689W        W20823   6.613   5.153   3.488 -0.0028  0.1612 -0.0319
 4690W        W20824  15.621   4.425   4.527 -0.2331  0.3401 -0.2578
 4691W        W20825   3.159  11.182  11.460  0.0014  0.2022  0.1186
 4692W        W20826  15.222  14.010  14.456 -0.1503 -0.2076  0.1892
 4693W        W20827   4.957  18.801  12.209  0.1224  0.1203 -0.1147
 4694W        W20828  12.822  13.542  12.605 -0.0784  0.2322 -0.1735
 4695W        W20829  10.171   6.824   2.786 -0.4889 -0.0603  0.2347
 4696W        W20830   8.870   0.664  13.440  0.0251 -0.0506  0.3503
 4697W        W20831  12.671   0.892  13.486 -0.3304 -0.0492  0.1332
 4698W        W20832   3.427  10.829   3.541  0.2941  0.1285  0.2704
 4699W        W20833   6.808   7.138  14.797 -0.1010  0.2722  0.1477
 4700W        W20834  10.924   8.488  10.471 -0.1205 -0.3160  0.1658
 4701W        W20835  16.157  15.815  13.068 -0.0326  0.2343 -0.0246
 4702W        W20836   3.012   4.612   4.187  0.1298 -0.1030  0.1874
 4703W        W20837  12.852  17.883   2.964  0.1236  0.1171  0.1002
 4704W        W20838  15.624  14.079  14.261  0.0080 -0.0225  0.0544
 4705W        W20839  14.106  14.290  10.953 -0.2451 -0.0079 -0.1844
 4706W        W20840  18.444  16.483   2.523 -0.3328 -0.1829 -0.3671
 4707W        W20841   4.390  13.744   4.129  0.1967 -0.1203 -0.0990
 4708W        W20842   4.959   9.104   1.551 -0.2934  0.0800 -0.0205
 4709W        W20843   2.328   2.311  10.564 -0.2038 -0.1660 -0.3051
 4710W        W20844  16.273  18.632   4.561  0.4637 -0.0496  0.2171
 4711W        W20845  15.543   0.470   2.599  0.1644  0.0989  0.0261
 4712W        W20846  15.321  15.810   9.443  0.0676  0.0942  0.0554
 4713W        W20847  18.444   4.418   1.283  0.1574 -0.2071 -0.2757
 4714W        W20848   7.269  18.539   5.058  0.1061  0.0757  0.2308
 4715W        W20849  14.591  18.805   1.060  0.0685 -0.2163  0.1419
 4716W        W20850  15.594  16.731   3.335 -0.3423 -0.2386 -0.0451
 4717W        W20851  17.732   5.380  14.671 -0.1811 -0.0631  0.3244
 4718W        W20852   6.525   6.072   0.981 -0.2407  0.0102  0.2363
 4719W        W20853  14.006  15.487   1.626 -0.4177 -0.0193 -0.1743
 4720W        W20854  18.438  18.438  13.841  0.0927 -0.1861  0.0515
 4721W        W20855  16.701  10.134   2.057  0.2067 -0.0130  0.1886
 4722W        W20856   9.743   6.921   3.004 -0.0775  0.1169 -0.0840
 4723W        W20857   7.613  18.091   0.760 -0.0300  0.0927  0.2444
 4724W        W20858  10.056  11.135   4.241 -0.1501 -0.1629 -0.0941
 4725W        W20859  18.353  17.685   9.879 -0.0455 -0.4004  0.0486
 4726W        W20860  15.056   4.920  14.178  0.3223  0.3038  0.1887
 4727W        W20861   4.855   5.760  11.653 -0.1084 -0.1550 -0.1481
 4728W        W20862  11.958   1.129  14.164  0.0309 -0.0658  0.2423
 4729W        W20863   8.962   4.037   2.166 -0.3115  0.1365  0.1047
 4730W        W20864   5.215  17.049  14.387 -0.4100 -0.0375 -0.1985
 4731W        W20865   0.463  18.368   2.293 -0.1173 -0.0340  0.0211
 4732W        W20866   0.523   7.436   4.435 -0.3235 -0.1039  0.0088
 4733W        W20867  18.462   1.032  13.510  0.0819  0.0890  0.4186
 4734W        W20868  19.245  18.466   2.301  0.3394  0.0655  0.0787
 4735W        W20869  18.901  11.514  10.944  0.1633 -0.0178 -0.3061
 4736W        W20870  15.644  19.297   3.565 -0.0413 -0.0237 -0.5165
 4737W        W20871  13.985  16.118   1.947 -0.3219 -0.0415 -0.1616
 4738W        W20872  18.641   4.953   1.414  0.2393 -0.3076  0.1957
 4739W        W20873   8.260  15.887   4.746 -0.0966  0.0234  0.3427
 4740W        W20874   5.471  12.475   2.422 -0.1617 -0.2393 -0.3416
 4741W        W20875   2.818   8.859   1.208 -0.1288  0.1162  0.2405
 4742W        W20876   1.081   1.320  10.269  0.0709 -0.2710  0.4751
 4743W        W20877   6.462   7.228   2.876 -0.1469  0.1761 -0.3068
 4744W        W20878   1.633   8.995   3.029  0.1523  0.2065 -0.0605
 4745W        W20879  10.450   2.702   3.360  0.1376  0.0909  0.3311
 4746W        W20880  12.976  10.268   0.708  0.1076 -0.0926 -0.0201
 4747W        W20881   3.964  14.554  14.826  0.2191  0.1900  0.0385
 4748W        W20882   6.209   5.298   3.737 -0.1486 -0.2673  0.0056
 4749W        W20883  18.499  14.334   4.021  0.0856  0.0662  0.0839
 4750W        W20884  13.287   3.706  14.418 -0.0057  0.0808 -0.3571
 4751W        W20885   0.839   8.165   2.740  0.3301  0.0053 -0.3033
 4752W        W20886   0.120  18.929   0.987  0.0053 -0.1923  0.0560
 4753W        W20887  16.857  13.946   1.227 -0.2478 -0.1209 -0.3859
 4754W        W20888   9.733  15.074  11.990  0.1089  0.1040  0.0863
 4755W        W20889   6.969   6.658   0.382 -0.0816 -0.2242 -0.3412
 4756W        W20890   8.987  18.848   0.984  0.0583 -0.2205 -0.2682
 4757W        W20891   1.076  15.191   4.546 -0.2240 -0.0389 -0.0115
 4758W        W20892   9.225  16.710   3.470 -0.0636  0.1361  0.0428
 4759W        W20893   7.472  18.524  10.430  0.3582  0.1580  0.3988
 4760W        W20894   7.278  18.731   3.180  0.3353  0.2289 -0.1320
 4761W        W20895  11.798   3.535   3.994 -0.1270  0.2041  0.6000
 4762W        W20896   2.605  16.184  14.963  0.2187 -0.3567 -0.1493
 4763W        W20897  11.387   3.163  14.247  0.1299  0.0913 -0.4481
 4764W        W20898  16.063   2.017   2.625 -0.2737  0.4310 -0.5618
 4765W        W20899   5.321  16.017  14.106  0.0795 -0.0208 -0.2062
 4766W        W20900   7.706   9.124  10.311 -0.2182  0.0176  0.2213
 4767W        W20901  18.017  17.911  14.360 -0.0220  0.0056 -0.3237
 4768W        W20902  10.277  12.895   0.651 -0.0953 -0.2785  0.0234
 4769W        W20903  11.069  11.991  10.049  0.1704 -0.0977 -0.0866
 4770W        W20904   8.467   8.016  11.818  0.0460  0.3942  0.4593
 4771W        W20905  13.895   0.680  14.969 -0.1438 -0.0640  0.0137
 4772W        W20906   1.676   1.113  10.778 -0.0744 -0.0588  0.1033
 4773W        W20907  10.976  12.339   0.255 -0.0884  0.3337  0.0071
 4774W        W20908   9.799  12.494   3.070 -0.0051  0.1070 -0.2095
 4775W        W20909   7.569   3.332  14.238  0.2340 -0.1113  0.2928
 4776W        W20910  16.108   7.210  12.561 -0.2615 -0.0550  0.0688
 4777W        W20911   1.926   0.561   1.906 -0.2285  0.3785  0.0056
 4778W        W20912  16.232   8.158   3.539  0.1410  0.1814 -0.1585
 4779W        W20913  17.187  16.432  13.854  0.3055 -0.1401 -0.0384
 4780W        W20914   8.703   0.415   4.934 -0.0817 -0.0730  0.1052
 4781W        W20915   7.952  16.070  14.351  0.2425 -0.1743 -0.2724
 4782W        W20916  13.055   1.435  14.865 -0.3049 -0.1073  0.1832
 4783W        W20917   1.816   0.314   4.633 -0.0397  0.1301 -0.0892
 4784W        W20918   1.053   2.882   0.187  0.0128 -0.0948  0.0770
 4785W        W20919  16.615  17.127  13.486  0.1452  0.0513 -0.0790
 4786W        W20920   5.180   8.478   0.488  0.4876 -0.1597  0.2541
 4787W        W20921   0.169  14.633  13.648  0.0433  0.2747 -0.0857
 4788W        W20922  11.033  13.771  13.498 -0.2414  0.1397 -0.5209
 4789W        W20923   0.297   2.949   3.253  0.0057 -0.0640 -0.0062
 4790W        W20924   7.094   6.209  14.419  0.2550  0.3443  0.0219
 4791W        W20925  13.352  13.677   1.376  0.1872 -0.1223  0.0565
 4792W        W20926  19.141  13.962   1.739  0.2743  0.0367  0.1103
 4793W        W20927   7.713   9.805  12.464  0.2315  0.0818 -0.0153
 4794W        W20928  14.260   2.420   1.640  0.2448  0.1648  0.3703
 4795W        W20929  17.555  11.019  12.316  0.2997  0.0727 -0.1113
 4796W        W20930  16.538   9.474  10.401 -0.1697  0.2171 -0.1767
 4797W        W20931  13.513   2.424   2.959  0.5399 -0.1217  0.0737
 4798W        W20932   4.887  10.829   2.563  0.1336 -0.1906 -0.3200
 4799W        W20933   0.418   7.956   3.243  0.0480 -0.0431 -0.3652
 4800W        W20934   7.460  14.992   0.514 -0.1153 -0.0747  0.3239
 4801W        W20935   2.883   3.626   3.680 -0.2747  0.0330  0.0895
 4802W        W20936   5.627   9.863  11.528  0.0553  0.2248  0.0481
 4803W        W20937   4.554   4.029   4.467  0.0047 -0.1562 -0.0653
 4804W        W20938  14.776   2.974  12.058 -0.0641  0.2736 -0.0028
 4805W        W20939  11.070   1.978   2.448 -0.0576  0.1622 -0.1619
 4806W        W20940  16.991   7.773   0.456 -0.0399 -0.0737  0.1923
 4807W        W20941   5.056   5.265  12.393  0.1567 -0.1435  0.1669
 4808W        W20942  10.657   1.007   5.671 -0.1874 -0.2956 -0.0732
 4809W        W20943  16.306  16.848   0.742 -0.3160 -0.0022 -0.0837
 4810W        W20944  16.890  16.443   3.049  0.3999 -0.0025 -0.0203
 4811W        W20945  14.965   8.648   1.701 -0.0373 -0.0504 -0.2173
 4812W        W20946  18.939   5.156  14.209  0.0537  0.1640  0.2956
 4813W        W20947  18.693   9.321   2.086 -0.0982 -0.0326  0.0034
 4814W        W20948  10.400   0.054  12.075  0.0157 -0.1174  0.0961
 4815W        W20949  17.955  17.474   3.197  0.2063  0.1409  0.0584
 4816W        W20950   4.442   1.530   3.440  0.0517 -0.0535  0.2705
 4817W        W20951  14.777  16.902  10.673 -0.0402 -0.1805  0.2885
 4818W        W20952   9.177   1.760   4.296  0.2003  0.3435 -0.2354
 4819W        W20953   1.995   2.693  14.832 -0.1122 -0.0514 -0.1246
 4820W        W20954   7.901   4.117  14.261  0.3328 -0.1703 -0.2157
 4821W        W20955  18.362   6.788   3.649 -0.1510 -0.1433  0.0738
 4822W        W20956  14.031  11.758   0.028  0.1264  0.0280 -0.0867
 4823W        W20957  18.931  17.422   3.341  0.0148 -0.1819 -0.2103
 4824W        W20958  10.567  12.062   9.982 -0.0326 -0.0534  0.0283
 4825W        W20959   0.251  13.154  13.676  0.0705 -0.3047  0.0631
 4826W        W20960  14.081  16.435   3.874  0.0400  0.0206  0.0909
 4827W        W20961  13.841   1.900  13.118  0.0787  0.3308 -0.1696
 4828W        W20962  13.101  15.834   0.718 -0.0722  0.3654 -0.1262
 4829W        W20963   4.716   8.430   0.599  0.3169  0.0183 -0.0348
 4830W        W20964  18.320   4.686  10.129 -0.0127  0.0215  0.1554
 4831W        W20965   8.498   5.713   3.325 -0.0625 -0.0734 -0.0412
 4832W        W20966   3.385   3.767   2.319  0.0681 -0.0169  0.4117
 4833W        W20967  15.670   0.098   2.234  0.1467 -0.0449 -0.2120
 4834W        W20968   6.851   4.561   1.242 -0.1977 -0.2032 -0.1009
 4835W        W20969  15.525   0.057  11.448  0.0262 -0.2612 -0.1268
 4836W        W20970   6.598   2.427  14.682 -0.0347  0.0934 -0.0003
 4837W        W20971   7.017   9.218   3.712 -0.0832 -0.0187 -0.1232
 4838W        W20972  12.414  11.120   2.880  0.2868  0.2727  0.0939
 4839W        W20973  15.855   7.350  11.094  0.1169 -0.0490 -0.0618
 4840W        W20974   2.151   7.978   0.179  0.1124  0.1117 -0.0457
 4841W        W20975   0.842   4.653   4.177  0.2661 -0.3819 -0.0016
 4842W        W20976  18.838  11.410   2.520  0.3284 -0.2069 -0.0019
 4843W        W20977   0.330  19.327   1.039  0.2061 -0.1199 -0.2069
 4844W        W20978  13.163  10.214  13.372  0.0552  0.1449 -0.2142
 4845W        W20979   4.094  17.987   1.357 -0.0031 -0.0103 -0.1323
 4846W        W20980  10.634  16.938  13.851  0.1152 -0.1371 -0.1403
 4847W        W20981   4.403  10.783   2.030  0.3592 -0.1373  0.1200
 4848W        W20982   0.213  17.422  12.793  0.0151 -0.0339  0.0252
 4849W        W20983   4.739   0.595  14.678  0.0680 -0.0010 -0.3608
 4850W        W20984   1.593  15.424   0.812  0.1786 -0.2141  0.3422
 4851W        W20985  17.217   6.004  13.728 -0.2576 -0.1522  0.1207
 4852W        W20986   3.003   1.088   2.803  0.0463  0.0211 -0.1858
 4853W        W20987  10.000  19.256   3.406 -0.0557 -0.0899  0.1365
 4854W        W20988  14.785  13.511   0.588 -0.1510  0.0175  0.1599
 4855W        W20989   0.715   3.873  10.004 -0.1887 -0.1150 -0.1215
 4856W        W20990  16.486  13.645  14.661  0.2307 -0.0438 -0.4062
 4857W        W20991  18.203   2.789  14.246 -0.2931 -0.1928  0.0260
 4858W        W20992  13.153  14.448  11.101  0.2620 -0.1156  0.0451
 4859W        W20993   6.205  17.582  14.769 -0.0330 -0.0925 -0.2080
 4860W        W20994   6.850  10.143  10.744 -0.1810 -0.1304 -0.1966
 4861W        W20995  16.306   6.435  13.479 -0.1071 -0.2396  0.1364
 4862W        W20996  17.024  18.861   1.864  0.1678 -0.0085  0.2946
 4863W        W20997  10.365  11.090   2.531  0.2681 -0.2090  0.1811
 4864W        W20998   6.873  13.460   5.754  0.1489 -0.0447 -0.0508
 4865W        W20999   3.815  18.526   4.842  0.0340  0.2083  0.0564
 4866W        W21000   8.955   9.138   3.775  0.1595  0.1346 -0.0892
 4867W        W21001  14.876  16.907  13.409 -0.1121  0.2432  0.1554
 4868W        W21002   3.624   4.737   4.048 -0.0286  0.2555  0.3748
 4869W        W21003   2.989  12.042  12.001  0.1754 -0.2295  0.1917
 4870W        W21004   6.177  17.707  11.708  0.0490 -0.1105  0.0874
 4871W        W21005  16.282   7.743  10.981  0.2915 -0.2051  0.0087
 4872W        W21006   5.316  11.106   4.417 -0.2702 -0.3160 -0.2192
 4873W        W21007  16.216   8.448   1.186 -0.0860  0.2888  0.1854
 4874W        W21008  17.699   7.790   2.428 -0.2348 -0.1534 -0.2003
 4875W        W21009  13.568   9.076   0.321  0.2168 -0.0455  0.1768
 4876W        W21010  10.402  17.231  11.626 -0.0811  0.1460 -0.1371
 4877W        W21011  14.444  15.225  14.684 -0.4598  0.0267  0.3691
 4878W        W21012  11.839  12.444   2.762  0.0097  0.0571  0.1128
 4879W        W21013  16.447  18.782  11.514  0.1074  0.0535 -0.2928
 4880W        W21014  14.511  12.255   1.019  0.0074 -0.0220  0.0598
 4881W        W21015   8.739  14.380  14.802 -0.1580 -0.2327 -0.0768
 4882W        W21016   7.647  19.285  11.358 -0.2355  0.2854  0.3579
 4883W        W21017  17.476   1.323  10.327  0.2028 -0.1852  0.3762
 4884W        W21018  15.328   7.580  11.295 -0.0361  0.2703 -0.2791
 4885W        W21019   0.901   6.465  11.587 -0.0442 -0.0500 -0.2116
 4886W        W21020  11.418   8.677   3.875  0.1088 -0.0956  0.0316
 4887W        W21021   5.835   4.325  13.590  0.3228  0.0564  0.0321
 4888W        W21022   3.924   4.464  12.393  0.0569 -0.2741 -0.4049
 4889W        W21023   1.430  13.900   3.540 -0.4601  0.1452  0.2439
 4890W        W21024   6.155  13.095   4.136 -0.1596  0.2358  0.1424
 4891W        W21025  10.927   0.080   5.581 -0.2767 -0.1400 -0.2344
 4892W        W21026  19.248   9.300  12.738  0.4685 -0.0261  0.0390
 4893W        W21027  11.866   8.668  14.749  0.3204  0.1691  0.4570
 4894W        W21028   9.995   9.034   1.267  0.0446  0.0225  0.1832
 4895W        W21029   5.985   1.039  11.281 -0.2040  0.2939 -0.1007
 4896W        W21030  14.370  14.495  12.430  0.0116 -0.2762  0.4693
 4897W        W21031   2.637   9.703   4.348 -0.0636 -0.1419  0.0506
 4898W        W21032  18.562  14.541   0.693 -0.0318 -0.1369  0.1001
 4899W        W21033   4.063  15.291   2.223  0.5128  0.1726  0.1582
 4900W        W21034   0.909  18.046   4.451  0.0704 -0.0249  0.1125
 4901W        W21035   5.944  16.142  13.144 -0.0736  0.0333  0.1468
 4902W        W21036  16.623   7.752  11.936  0.3332  0.0440  0.0629
 4903W        W21037   4.917   3.722   9.286 -0.2110  0.0201  0.0219
 4904W        W21038   8.367  10.497   2.015 -0.1645 -0.0446  0.2065
 4905W        W21039   4.731   2.307   1.723 -0.2128 -0.0217  0.0234
 4906W        W21040  17.338   4.084   3.837  0.1846  0.0859 -0.2164
 4907W        W21041   0.316   4.928  13.460  0.2156  0.1978  0.0255
 4908W        W21042  14.335  18.978   4.946  0.0245 -0.1211  0.0623
 4909W        W21043   6.578  14.493  13.745 -0.2724  0.3271  0.1436
 4910W        W21044   4.000  17.493  13.793  0.0764  0.2188 -0.0088
 4911W        W21045   7.482  17.912   3.181 -0.1418  0.1298 -0.1105
 4912W        W21046  10.356   4.472   3.215 -0.1070 -0.1172 -0.1531
 4913W        W21047   3.986   6.751   5.090  0.0246  0.1259  0.0590
 4914W        W21048   7.652  13.974   4.067  0.0007 -0.1152  0.1239
 4915W        W21049  16.462   2.965   4.679  0.0729 -0.1229 -0.1565
 4916W        W21050   3.196  16.881   1.026  0.0636 -0.0757  0.1631
 4917W        W21051   1.817  10.095  10.759  0.0276  0.1354 -0.2342
 4918W        W21052   0.796   0.772   3.210 -0.2483  0.1062  0.0162
 4919W        W21053   6.194  10.882   3.005  0.1106  0.0643  0.1158
 4920W        W21054  14.912  14.033   2.228  0.2443 -0.1264 -0.2978
 4921W        W21055   5.455  12.535   3.774 -0.3506  0.4065 -0.3635
 4922W        W21056   1.722   5.618   3.224 -0.0408  0.3930  0.3527
 4923W        W21057  15.642   8.236  11.398  0.2467  0.1760 -0.0579
 4924W        W21058   8.215  13.705   3.970  0.0626  0.1073 -0.4283
 4925W        W21059   9.602   0.706   0.640 -0.0313 -0.1902 -0.0496
 4926W        W21060  16.033   8.913   3.097  0.1318  0.0477  0.5987
 4927W        W21061   4.734   6.220   3.246  0.3630 -0.0830  0.1595
 4928W        W21062   2.770   7.490  14.558  0.2549 -0.2290 -0.1740
 4929W        W21063  11.742   8.606  11.473 -0.3400  0.2505  0.0193
 4930W        W21064   8.241   4.087   5.117  0.1563 -0.2679  0.4640
 4931W        W21065  13.373   4.454  13.595  0.1517 -0.1881  0.2100
 4932W        W21066  18.536  12.710  10.590 -0.3043 -0.1339  0.0982
 4933W        W21067   0.240   6.469   2.972  0.1231 -0.1591 -0.0034
 4934W        W21068  11.295  10.033  10.544  0.3257  0.0801  0.2588
 4935W        W21069   8.319  10.710  10.859  0.1714  0.1774  0.1356
 4936W        W21070   9.941   8.009  14.573  0.0100  0.1054  0.1191
 4937W        W21071   5.273   3.400  12.630  0.1047 -0.3149  0.1676
 4938W        W21072  18.807  11.724  14.257  0.3652 -0.0323  0.3392
 4939W        W21073   7.918  19.215   0.077 -0.1657  0.0861  0.3840
 4940W        W21074  15.000   4.357  11.433  0.0284  0.0110  0.0751
 4941W        W21075   6.352  18.362   1.142  0.4789 -0.2068 -0.1849
 4942W        W21076   9.971   1.150  11.835 -0.1984  0.0629  0.1652
 4943W        W21077   5.210   4.723   0.631 -0.0793 -0.1370 -0.5005
 4944W        W21078   3.370  10.188  14.491  0.2282  0.1784  0.1242
 4945W        W21079   3.609  12.278  14.842 -0.1796 -0.3210  0.1140
 4946W        W21080   5.037   8.768  10.838 -0.3097  0.3152  0.0278
 4947W        W21081   7.446   7.676  11.164  0.1347  0.0575 -0.0222
 4948W        W21082  14.724   9.910  13.665  0.0874  0.2482  0.0077
 4949W        W21083   7.107   1.272  14.821 -0.0300  0.1890 -0.0518
 4950W        W21084   1.956  11.283   1.107  0.3021 -0.1700  0.1210
 4951W        W21085   2.983  10.343  11.787 -0.0881 -0.1559  0.3036
 4952W        W21086  18.853  18.086   2.401 -0.4733 -0.0200 -0.2815
 4953W        W21087  18.474  16.256   2.065  0.3193 -0.1118 -0.0343
 4954W        W21088   6.924   2.796   4.489 -0.1026  0.0476  0.1486
 4955W        W21089  18.926   0.858   2.673  0.2922  0.0630 -0.1077
 4956W        W21090  14.372   1.921   1.803 -0.1644  0.0289 -0.1703
 4957W        W21091  12.485   2.838  14.939 -0.0678 -0.3394  0.2116
 4958W        W21092   6.745  16.805  10.585  0.4576 -0.0436  0.1194
 4959W        W21093  15.455   4.322  11.665  0.2835  0.0809  0.1819
 4960W        W21094   3.914   5.357  11.286 -0.1342  0.0703 -0.0978
 4961W        W21095  10.683   7.574  11.913 -0.0210 -0.0216 -0.0746
 4962W        W21096   7.198  15.394   5.391 -0.0863  0.2202  0.1231
 4963W        W21097  13.326   0.302  13.578 -0.1703  0.2227  0.1395
 4964W        W21098  12.138   6.642   1.125 -0.1341 -0.1466 -0.0333
 4965W        W21099  16.443   5.928  13.340 -0.1888 -0.1072 -0.0800
 4966W        W21100  17.971   2.596   1.837 -0.1840  0.1217  0.1783
 4967W        W21101  14.615   0.121   0.985  0.0778 -0.2941 -0.0198
 4968W        W21102  13.815   4.738   9.632 -0.0865  0.1029 -0.4166
 4969W        W21103   2.036   7.902   2.296  0.2702  0.0193 -0.4237
 4970W        W21104  14.272  16.869   3.745  0.1704  0.0173 -0.1133
 4971W        W21105  15.308  17.357  13.001 -0.2266  0.0324  0.3263
 4972W        W21106   1.106   7.974  13.732 -0.0258 -0.2351 -0.2327
 4973W        W21107  18.967   8.383  14.383 -0.0817 -0.0560  0.2069
 4974W        W21108   5.738  17.959   3.032  0.0413  0.0386  0.0573
 4975W        W21109  10.177  14.050   2.057  0.2601 -0.0813  0.0500
 4976W        W21110   8.032   4.891  14.796  0.0173  0.0691  0.3331
 4977W        W21111   9.245   3.804   3.495 -0.1045  0.0956 -0.4143
 4978W        W21112  10.176  17.491   3.604 -0.2440  0.0026  0.2045
 4979W        W21113   8.282   2.438   1.684  0.2702 -0.5145  0.0639
 4980W        W21114   1.648   5.128  10.254 -0.1096 -0.2041 -0.3320
 4981W        W21115  12.704   6.203   2.289  0.1099  0.1948 -0.2107
 4982W        W21116   9.258  13.991   1.076  0.1397  0.0212 -0.1888
 4983W        W21117   2.630  15.210  10.505 -0.2298  0.3851  0.2548
 4984W        W21118   2.089  14.934   1.863 -0.1769 -0.1093 -0.5191
 4985W        W21119   1.867  16.298   3.892  0.2915  0.2044 -0.3585
 4986W        W21120  12.889   6.282  11.984 -0.0395  0.1853  0.1520
 4987W        W21121  14.982  17.164  10.321 -0.1850 -0.1919  0.1339
 4988W        W21122  15.197  13.699   3.339 -0.0635  0.2921 -0.0717
 4989W        W21123  13.398   8.986   1.098 -0.4037  0.0184 -0.1065
 4990W        W21124   6.838   0.797  14.735  0.1330  0.3052 -0.1800
 4991W        W21125  11.447   2.774  13.936 -0.1070  0.3105  0.1026
 4992W        W21126  13.468   5.965   3.351  0.1936 -0.3340 -0.0715
 4993W        W21127  17.391  18.814  10.952 -0.0100  0.0702 -0.1649
 4994W        W21128   2.010  11.631   1.422  0.0223  0.2131 -0.0225
 4995W        W21129   8.800  16.147  13.796 -0.1586 -0.0214 -0.1464
 4996W        W21130   6.182   7.737   5.776 -0.2116  0.0081  0.0067
 4997W        W21131  11.539   2.751   3.613  0.3103  0.0118 -0.0832
 4998W        W21132  18.641   2.980  13.868 -0.1783 -0.0520 -0.1880
 4999W        W21133  11.540  16.950  14.697  0.0652  0.1455  0.0427
 5000W        W21134  12.350  18.873  11.464 -0.3124 -0.1344 -0.0619
 5001W        W21135   7.472   0.647   0.939 -0.1684  0.3431  0.1487
 5002W        W21136  13.774  16.305  11.124 -0.2661 -0.3605  0.1336
 5003W        W21137  14.333   4.676   0.934 -0.3554  0.1622 -0.0006
 5004W        W21138   3.103  10.977  13.552 -0.0431 -0.0058 -0.3778
 5005W        W21139   8.292   7.923  10.476  0.0472  0.1302 -0.1488
 5006W        W21140  11.357   2.482  10.977  0.0087 -0.0706  0.2105
 5007W        W21141  18.897   9.441   3.423  0.1966  0.1469 -0.0227
 5008W        W21142   1.632  13.497  14.744  0.0492 -0.1238  0.1110
 5009W        W21143   7.417   2.573  11.008 -0.1561  0.0257  0.0466
 5010W        W21144  14.915  17.819  12.933 -0.0275  0.2451 -0.1659
 5011W        W21145  10.395  13.704   0.045  0.2396 -0.1184 -0.2051
 5012W        W21146   3.001  13.934  12.348  0.4529  0.4459  0.0013
 5013W        W21147  10.836   1.239  10.155 -0.2197 -0.2055  0.2179
 5014W        W21148   7.044   0.007  14.946  0.3200 -0.1340  0.0272
 5015W        W21149   9.443  19.253   0.202  0.2736 -0.2475  0.0113
 5016W        W21150   1.607  12.038  10.815 -0.1566 -0.1391 -0.3861
 5017W        W21151   0.166  18.389   3.192  0.2401  0.2121  0.0026
 5018W        W21152   2.645  11.739   5.797  0.2437  0.1452  0.0724
 5019W        W21153   0.690  11.760   3.868 -0.0369  0.1602  0.0041
 5020W        W21154   9.362   5.891   1.655 -0.2820 -0.0774 -0.2336
 5021W        W21155  16.134  19.230   0.302 -0.0094  0.2688  0.1887
 5022W        W21156  10.817   1.041   4.547  0.2485 -0.1034  0.3700
 5023W        W21157   8.727   0.548  12.726 -0.1851  0.1896 -0.0602
 5024W        W21158  11.768  13.733  13.056 -0.4384  0.0569 -0.0987
 5025W        W21159  13.389  12.280   0.544  0.1953  0.1824 -0.1167
 5026W        W21160  17.245  12.457   2.984 -0.0791  0.0300 -0.0674
 5027W        W21161  11.992   8.133   3.933 -0.1603  0.0751 -0.1378
 5028W        W21162  14.722   1.387  10.548  0.3608 -0.0430 -0.1201
 5029W        W21163   0.340  15.935  12.841 -0.0452 -0.0034 -0.1094
 5030W        W21164  17.615   6.310  12.689 -0.0344  0.4879  0.3388
 5031W        W21165   3.967   5.785   1.761 -0.0757 -0.1751 -0.0051
 5032W        W21166  13.941  10.412   4.129  0.3546 -0.3251 -0.1987
 5033W        W21167   3.333   4.742  11.799 -0.1289 -0.0543  0.0719
 5034W        W21168   3.545  10.151   1.411 -0.2960 -0.0786  0.0788
 5035W        W21169  17.463   2.184   0.673  0.1271  0.2274  0.1536
 5036W        W21170  15.727  15.305   2.675 -0.0218 -0.3338 -0.1610
 5037W        W21171  13.414  12.777   2.836  0.1500 -0.0673  0.0997
 5038W        W21172  17.542   0.203  14.986 -0.1851  0.0225  0.1896
 5039W        W21173   3.522  17.762   3.435  0.0981  0.0246  0.3802
 5040W        W21174   2.117  14.825  14.271 -0.2356  0.1626  0.3450
 5041W        W21175  18.583   2.432   0.558  0.1095 -0.2745  0.0142
 5042W        W21176   7.582   4.829   0.593 -0.1003 -0.1296 -0.0700
 5043W        W21177   4.254   6.373   3.573  0.2735  0.0312  0.0711
 5044W        W21178  12.239  16.698   3.913  0.1570 -0.2276  0.2262
 5045W        W21179   1.925  17.158  11.516 -0.0347 -0.0018  0.0434
 5046W        W21180  11.989  10.453  10.531  0.1485 -0.3554 -0.1531
 5047W        W21181  15.529  16.931   4.926 -0.2264  0.0266 -0.0444
 5048W        W21182   3.821  16.304  14.907  0.0427  0.1883 -0.3649
 5049W        W21183  15.422   7.273   2.107 -0.0024 -0.2108  0.0911
 5050W        W21184   0.834  14.229   0.675 -0.1109  0.2323  0.2472
 5051W        W21185  12.258   8.395   1.217 -0.0197 -0.0682 -0.0298
 5052W        W21186  11.478  19.256  10.375  0.2930 -0.0978  0.2376
 5053W        W21187  15.511  18.215  12.277  0.1177  0.0109  0.0573
 5054W        W21188  16.158   1.399  13.609 -0.2114  0.2539  0.1890
 5055W        W21189   6.784   6.812   3.041 -0.2063  0.2826 -0.0813
 5056W        W21190  11.359   7.343  11.114 -0.1196  0.2103  0.0296
 5057W        W21191   8.708   8.386  12.521  0.3815 -0.2419 -0.1008
 5058W        W21192  17.015  11.181  12.529  0.3731  0.1040  0.0528
 5059W        W21193  18.478  10.436  14.989  0.0874 -0.0707  0.0556
 5060W        W21194   7.026   1.142   2.578  0.0444 -0.1829  0.2346
 5061W        W21195   1.826  15.510   4.505  0.1108 -0.0100 -0.0454
 5062W        W21196  17.640   6.531  11.080  0.0111  0.0869 -0.0789
 5063W        W21197   0.709  15.400  14.349 -0.0655 -0.0964 -0.1402
 5064W        W21198   3.351  14.421  14.685 -0.1056 -0.1861 -0.3007
 5065W        W21199  17.746  18.085   0.852  0.3014 -0.1186  0.0581
 5066W        W21200   4.964   0.340   0.503 -0.2505 -0.1125  0.0726
 5067W        W21201  11.687   0.859  13.824  0.1519 -0.1212  0.3485
 5068W        W21202  10.331   3.399  12.811 -0.3683 -0.1364 -0.1500
 5069W        W21203  11.604  11.549  11.060  0.0936 -0.6117  0.0924
 5070W        W21204   5.288  19.224  10.634  0.1063  0.1480 -0.4046
 5071W        W21205  16.527   9.523   4.450 -0.1419 -0.2462 -0.3777
 5072W        W21206   9.491   0.749  11.138 -0.3273  0.0489  0.2014
 5073W        W21207   9.394   9.322   1.362  0.1516  0.1669  0.2822
 5074W        W21208   0.108   7.889  10.248 -0.1224 -0.0034 -0.2328
 5075W        W21209   7.551  17.339  11.969 -0.2888 -0.2474  0.0826
 5076W        W21210  13.242  13.885  10.364 -0.1990  0.0856  0.1774
 5077W        W21211  18.500   5.986   3.283 -0.0132  0.1690  0.4325
 5078W        W21212  15.004   4.157   2.823 -0.0031  0.2726  0.0948
 5079W        W21213   9.663  11.030   3.162  0.2725  0.0672 -0.0638
 5080W        W21214  14.753   9.599  12.357 -0.3577 -0.5892  0.1665
 5081W        W21215   9.267  18.156  14.172  0.1964  0.1994 -0.2985
 5082W        W21216  13.153   7.285   3.580 -0.3233  0.2754  0.1567
 5083W        W21217   8.694  14.451   0.393 -0.2428 -0.2230  0.0843
 5084W        W21218   6.279  10.734   4.000  0.2285  0.0943  0.0508
 5085W        W21219  14.912  18.450   0.186  0.0371 -0.0695  0.1026
 5086W        W21220   5.621  12.749  13.603  0.1068  0.2172 -0.1348
 5087W        W21221   4.148  10.727  12.928  0.0871  0.1197  0.2182
 5088W        W21222   8.671  17.084   3.574  0.1435  0.1352  0.2014
 5089W        W21223   4.405  18.160   2.549 -0.0895 -0.0382 -0.0491
 5090W        W21224   0.116   4.188   2.339  0.2948 -0.0510 -0.3538
 5091W        W21225   9.617   0.452  12.477 -0.3658 -0.0588  0.0152
 5092W        W21226   9.783  12.077  12.422  0.1040 -0.0963 -0.0050
 5093W        W21227   7.146  14.067   5.004  0.4380 -0.4688  0.1394
 5094W        W21228   0.813   7.982   4.112 -0.1128  0.0935  0.1343
 5095W        W21229   6.750  18.979  14.804 -0.1007  0.2124  0.2222
 5096W        W21230   5.467  13.088   2.539  0.1882  0.0476  0.1275
 5097W        W21231  14.572   9.504  13.848 -0.0526  0.1425 -0.0285
 5098W        W21232   0.926  19.215  14.861 -0.3925  0.0292  0.2977
 5099W        W21233   4.255  13.840   4.640 -0.4589  0.0096 -0.2816
 5100W        W21234  14.489  10.934  13.308 -0.0571  0.0798  0.0417
 5101W        W21235  10.863  11.831  11.898 -0.0316  0.1190 -0.1101
 5102W        W21236   0.405   3.477  12.195  0.0775 -0.2994 -0.1162
 5103W        W21237  11.360   1.231  14.275 -0.1422 -0.1294  0.0224
 5104W        W21238  11.029   0.382  12.765  0.1419 -0.0348 -0.0927
 5105W        W21239   5.012  16.898   9.518 -0.1786 -0.0348  0.1291
 5106W        W21240   5.934   3.658   2.755  0.1650  0.1094  0.2962
 5107W        W21241   6.253   5.295  12.635  0.0772  0.1111 -0.1352
 5108W        W21242   2.454   9.262   2.552  0.3085 -0.2934  0.1307
 5109W        W21243   2.676  13.790  14.911 -0.0200 -0.0460 -0.0488
 5110W        W21244  13.625  12.213  14.977 -0.1723  0.1382 -0.1344
 5111W        W21245   4.306  18.212  11.086 -0.0496 -0.0531 -0.0562
 5112W        W21246   7.421  19.308   2.157 -0.2971  0.1916 -0.1998
 5113W        W21247   3.577   7.854  12.717  0.1848  0.2622  0.0154
 5114W        W21248   6.338  12.535  10.232 -0.2229 -0.3108 -0.0451
 5115W        W21249   6.866   9.517   2.386 -0.2265 -0.1735  0.4687
 5116W        W21250  16.555  15.461   0.049 -0.0966 -0.4616  0.0956
 5117W        W21251  11.158  11.792  14.338 -0.0058 -0.0940  0.2422
 5118W        W21252  12.763  12.721   2.263  0.1945 -0.0303 -0.0873
 5119W        W21253  10.012   5.911   4.186  0.0973 -0.1360  0.0102
 5120W        W21254  16.861   3.717   0.921 -0.0365  0.1592 -0.1250
 5121W        W21255  13.181   7.701  14.277 -0.0104 -0.2005 -0.0680
 5122W        W21256  17.018  10.450  10.041  0.1232  0.1783  0.0223
 5123W        W21257  13.293  13.601   4.554  0.0907  0.1103  0.1017
 5124W        W21258   5.926   8.192  14.899 -0.1830  0.1510  0.0802
 5125W        W21259   6.258  18.666   3.212 -0.1950  0.1591 -0.1773
 5126W        W21260  14.084   3.099   1.541  0.0465  0.2456 -0.1727
 5127W        W21261  17.303  13.393  12.765  0.2256 -0.0457 -0.0635
 5128W        W21262  13.377  13.631  14.216 -0.1331 -0.0527  0.0783
 5129W        W21263   7.842   7.548   0.634 -0.1902  0.2056  0.0436
 5130W        W21264   5.652  16.226  13.842 -0.1249  0.1040  0.4631
 5131W        W21265  14.677  11.208  10.287 -0.1985  0.2525 -0.0039
 5132W        W21266  15.186  17.916  13.384 -0.1354 -0.0317  0.5245
 5133W        W21267  12.379   2.606  11.083  0.4866 -0.2581 -0.0739
 5134W        W21268   8.429  14.316  12.240 -0.2882 -0.3483 -0.0727
 5135W        W21269  15.072  12.837  10.662  0.0074 -0.0704  0.0642
 5136W        W21270  13.512   2.849  11.026  0.3370 -0.2257  0.3783
 5137W        W21271   2.434  15.450  13.669  0.0391 -0.4298 -0.1985
 5138W        W21272   4.894  15.779  14.250  0.3323 -0.1171  0.3615
 5139W        W21273   7.858  12.953   1.784 -0.1803  0.0292 -0.3851
 5140W        W21274   6.363   1.402  14.118  0.1185 -0.1066 -0.1161
 5141W        W21275   4.918  13.290   4.792 -0.0101  0.0419 -0.2086
 5142W        W21276  10.745  17.583   3.666 -0.0282  0.0117  0.0150
 5143W        W21277  15.413   3.889   3.236 -0.0535 -0.1747 -0.0439
 5144W        W21278   4.162  18.748   1.278 -0.2704  0.1077  0.2807
 5145W        W21279  12.093   7.776  10.415  0.1623 -0.0382  0.0480
 5146W        W21280  15.570   3.309  13.659  0.0056 -0.2155 -0.1328
 5147W        W21281   6.965   6.922   3.513  0.2092  0.0364 -0.1184
 5148W        W21282   4.339  16.508   5.009  0.0506 -0.0233 -0.2401
 5149W        W21283   4.311   9.584   2.693 -0.1967 -0.3326  0.1554
 5150W        W21284   2.503   8.504   5.606  0.2090  0.1315 -0.1226
 5151W        W21285  11.822   3.049   2.030 -0.0804  0.2698 -0.0835
 5152W        W21286  10.431  15.349   4.915 -0.1169  0.0034 -0.0327
 5153W        W21287   6.703  18.790  14.104  0.0881 -0.4336 -0.3388
 5154W        W21288   8.668  14.904   5.154  0.1904 -0.0855  0.1298
 5155W        W21289   3.543   6.502   0.175 -0.1900  0.3112 -0.3711
 5156W        W21290   3.089  17.769   0.007  0.2153  0.0659  0.0322
 5157W        W21291   4.253  14.149   5.116  0.1032 -0.1292 -0.0620
 5158W        W21292   5.912  13.251  10.757 -0.2882 -0.0350  0.0068
 5159W        W21293  14.155   4.599  12.585  0.3053 -0.0153 -0.1095
 5160W        W21294   1.980   6.569   5.341  0.0873 -0.0891 -0.1218
 5161W        W21295  17.656  16.636   2.361  0.5332 -0.1209  0.2336
 5162W        W21296  17.830  15.141  10.584  0.1460  0.0476  0.1639
 5163W        W21297  14.587   5.195  12.330 -0.1008  0.2617 -0.3076
 5164W        W21298  17.315   1.755   2.062  0.0771 -0.1814 -0.0158
 5165W        W21299   8.989   1.794   0.253  0.1447  0.0338  0.2485
 5166W        W21300   6.841   6.711  14.377  0.3442 -0.1682 -0.0969
 5167W        W21301  16.577   1.518   1.539 -0.1967  0.2789 -0.0528
 5168W        W21302  15.852   9.079   4.528 -0.1271  0.0444  0.0515
 5169W        W21303  13.553   9.637   4.306 -0.0744  0.0836 -0.4345
 5170W        W21304   1.247   8.891   5.071 -0.1053 -0.2912  0.0039
 5171W        W21305  12.254  13.688   0.372 -0.1260 -0.2292 -0.1839
 5172W        W21306  17.278  11.455  11.539 -0.0315  0.1607 -0.1429
 5173W        W21307  14.945  14.398  10.229 -0.2668  0.0022  0.2669
 5174W        W21308  11.830  15.286   1.020  0.1155 -0.0596  0.1469
 5175W        W21309   0.984  14.974   5.250  0.1978  0.2485 -0.3390
 5176W        W21310  14.275   7.614   3.334  0.0627 -0.0958  0.2129
 5177W        W21311  14.820  15.145  10.645  0.2225 -0.2675 -0.0702
 5178W        W21312   9.969  13.773  10.965  0.4529  0.1850  0.1546
 5179W        W21313  15.621  16.941  11.867  0.1633 -0.0321  0.2006
 5180W        W21314  18.402  13.730   3.294  0.0809  0.0388  0.1008
 5181W        W21315  18.652   4.683   3.428  0.2011 -0.0897 -0.0206
 5182W        W21316  10.549  14.592  14.881 -0.0602 -0.1049 -0.2810
 5183W        W21317  12.515  13.292   5.523  0.0346  0.0299 -0.3619
 5184W        W21318  12.449   9.421  11.632  0.1048  0.3289  0.3543
 5185W        W21319   0.589  12.196  10.883 -0.1759 -0.0721 -0.3656
 5186W        W21320   9.692  18.025   1.544  0.1921 -0.0827 -0.0413
 5187W        W21321  13.493   8.286   2.560 -0.0109  0.1290  0.1938
 5188W        W21322   8.787   1.094  13.200  0.4635 -0.2813 -0.2310
 5189W        W21323   8.055  14.921  10.441 -0.0863  0.0106  0.0720
 5190W        W21324  13.947   4.921   1.068  0.1608  0.0162  0.1505
 5191W        W21325   4.691  18.895  13.856  0.0060  0.2241  0.2122
 5192W        W21326   2.772  12.958  12.109 -0.0490  0.0057 -0.2319
 5193W        W21327   0.806   8.887   3.291 -0.1158  0.1013 -0.0446
 5194W        W21328   3.682   2.875   5.383 -0.0776  0.0294  0.2821
 5195W        W21329  13.696  16.729  14.029 -0.1309 -0.0638 -0.1933
 5196W        W21330   1.376  10.991   1.233  0.0643  0.2097  0.1049
 5197W        W21331   0.444  14.729  10.890 -0.0700 -0.0591  0.0398
 5198W        W21332  14.431  12.957  12.486 -0.0183  0.1694 -0.0094
 5199W        W21333  18.062  10.967   1.891 -0.0499 -0.1400 -0.1049
 5200W        W21334   3.675   6.057   0.454 -0.0237 -0.1639 -0.4223
 5201W        W21335  10.070  10.690   4.499  0.0623 -0.2019  0.0770
 5202W        W21336   2.408   5.848  10.431  0.1557 -0.2867  0.0156
 5203W        W21337   9.851  12.681   1.428 -0.3063  0.0896 -0.5585
 5204W        W21338  14.772   1.703   5.622 -0.1519  0.0283  0.1518
 5205W        W21339  17.334  16.434   2.792 -0.1519 -0.2636  0.0833
 5206W        W21340   0.816  19.233  11.265 -0.2583 -0.0305 -0.4918
 5207W        W21341   5.852   4.159   0.359  0.2283 -0.1219 -0.0056
 5208W        W21342  16.433  17.288  12.607  0.1113 -0.0064 -0.0618
 5209W        W21343  15.771   4.494  11.266 -0.2457 -0.0165  0.0719
 5210W        W21344  12.076   8.903  11.205  0.0237  0.1713  0.3385
 5211W        W21345   8.630   9.208   2.931  0.4451  0.5150 -0.0907
 5212W        W21346   4.842  13.656   4.228 -0.1128  0.0050 -0.2757
 5213W        W21347  10.341   9.150  13.295 -0.1202 -0.3629  0.0047
 5214W        W21348   0.379   9.571  11.324  0.0192  0.0042  0.0918
 5215W        W21349  14.998   2.404  13.940 -0.0263 -0.2933 -0.2259
 5216W        W21350   7.026  18.350   1.872  0.2409 -0.1310  0.0814
 5217W        W21351  12.168  13.324   4.760 -0.0282 -0.0504 -0.1316
 5218W        W21352   7.405   3.183   3.586 -0.0398  0.1050 -0.3067
 5219W        W21353  16.543   4.654   4.098  0.1012 -0.0579  0.0406
 5220W        W21354   6.321  15.764  13.905 -0.0395 -0.1552 -0.3576
 5221W        W21355  14.212  15.540   3.928 -0.0779  0.2471  0.0720
 5222W        W21356   2.776  19.203  10.121  0.0735  0.1748 -0.1404
 5223W        W21357   6.137   6.326  12.405 -0.0923 -0.1808  0.0160
 5224W        W21358   6.389  12.466   0.653 -0.3787 -0.1622  0.2013
 5225W        W21359   0.746  16.746  11.079  0.5544 -0.0351  0.0450
 5226W        W21360   8.951   0.258  11.534 -0.0699  0.2849 -0.0720
 5227W        W21361   9.481   0.045  14.731  0.0282  0.0468  0.0501
 5228W        W21362   9.440   9.103  14.856  0.0335  0.1084  0.6136
 5229W        W21363  15.982  15.279   0.849  0.0107 -0.4107 -0.1476
 5230W        W21364   7.651  18.956  10.975 -0.2849 -0.4626  0.0464
 5231W        W21365   9.566  12.756   0.553 -0.4345 -0.3443  0.0344
 5232W        W21366   6.617  10.180  11.359 -0.2028 -0.1031 -0.1832
 5233W        W21367  11.070   7.686   1.828 -0.1974  0.1841  0.0492
 5234W        W21368  16.799   1.660   2.777  0.2386 -0.1865 -0.1143
 5235W        W21369   6.551   0.658  13.282 -0.0171 -0.1492  0.1811
 5236W        W21370  19.114   5.502  12.714  0.1363  0.0153 -0.1020
 5237W        W21371  18.816  14.149  10.525 -0.0701 -0.0733  0.2185
 5238W        W21372   1.352  16.291  14.823  0.2092 -0.3119 -0.2490
 5239W        W21373   7.184   4.786  10.830 -0.0664  0.4410  0.1441
 5240W        W21374   2.814   4.612   5.079  0.1048  0.0953 -0.2651
 5241W        W21375  15.845   4.126  13.302  0.2736  0.0342 -0.2423
 5242W        W21376   5.400  19.170  12.158  0.1244 -0.2902  0.0107
 5243W        W21377   8.898  18.951   2.360  0.0337  0.0528  0.0680
 5244W        W21378   8.893   5.727   5.166  0.0167 -0.2514 -0.4267
 5245W        W21379  10.907   7.170  13.456  0.2293  0.4779 -0.1690
 5246W        W21380  10.614  18.015   4.578 -0.1748 -0.0278  0.0324
 5247W        W21381   4.800   5.263  11.559  0.1551  0.1293  0.4671
 5248W        W21382  17.032   1.305  10.519  0.2866  0.2638  0.2076
 5249W        W21383   5.990   8.235  10.709  0.0438 -0.2127  0.1276
 5250W        W21384   7.896  10.658  13.479 -0.1333 -0.0945  0.1971
 5251W        W21385  14.750   3.051  13.451  0.2439 -0.2195  0.1017
 5252W        W21386   4.106  19.127   1.652 -0.0899 -0.0739  0.1470
 5253W        W21387   7.250   0.910   3.761 -0.0103 -0.2347  0.0810
 5254W        W21388  12.013   2.099   4.059  0.2365  0.0673 -0.1966
 5255W        W21389   0.384   5.029  14.273  0.0432  0.0699 -0.1210
 5256W        W21390  15.457   5.737   3.343  0.1409 -0.3531 -0.2054
 5257W        W21391   7.142  15.206  13.528  0.3386 -0.0822 -0.0172
 5258W        W21392   7.572   8.757   4.944  0.0693 -0.1296 -0.2504
 5259W        W21393   3.859  16.873   4.200 -0.0951  0.1679  0.1526
 5260W        W21394   9.240  15.243  12.424  0.0035 -0.1073 -0.1195
 5261W        W21395  12.127  15.848   2.119 -0.2057  0.0860 -0.0473
 5262W        W21396  17.669   5.126   3.436 -0.0334  0.2109 -0.1315
 5263W        W21397   9.877   4.475   3.400 -0.0696 -0.0732 -0.1528
 5264W        W21398  12.545  15.497  12.774  0.0658 -0.1347  0.2626
 5265W        W21399  10.120   9.580  10.451  0.1476  0.0579 -0.0772
 5266W        W21400   9.793   5.315   5.299 -0.1346  0.2274 -0.0985
 5267W        W21401  17.685   9.739   1.891  0.0128 -0.0893  0.2396
 5268W        W21402   0.956  18.118  12.759  0.1519 -0.2865  0.2021
 5269W        W21403  15.096   9.440  14.207  0.1443  0.0028 -0.3809
 5270W        W21404  18.141   5.518   0.360 -0.1600 -0.3429  0.2232
 5271W        W21405  10.664   1.423   3.105 -0.2067  0.3414 -0.0310
 5272W        W21406  10.415  11.367   3.032 -0.0773 -0.1738  0.0900
 5273W        W21407   2.874   0.454  13.935 -0.1900  0.3530 -0.0741
 5274W        W21408   4.676   3.496  12.483 -0.2649 -0.0044  0.1351
 5275W        W21409  10.770   5.338  13.883  0.1528  0.2763  0.1662
 5276W        W21410  10.862  18.401  11.774  0.3056  0.0053 -0.0775
 5277W        W21411  19.086  11.364  11.797  0.2486  0.0701  0.1656
 5278W        W21412  14.027   0.111  11.291 -0.1060 -0.2486 -0.1032
 5279W        W21413  10.167  12.982  12.582 -0.1060 -0.0105  0.0904
 5280W        W21414   1.913  18.863   3.611 -0.0592 -0.2118 -0.1727
 5281W        W21415  17.522   8.871   3.228 -0.0562  0.1649  0.3009
 5282W        W21416  15.365  10.558  10.249 -0.4742 -0.1209 -0.0213
 5283W        W21417  13.282  10.150  11.738 -0.0120  0.0262  0.2366
 5284W        W21418  18.390  10.590   2.817  0.0466  0.1323 -0.3681
 5285W        W21419   4.141   9.152   9.182  0.2721  0.0920 -0.2148
 5286W        W21420  15.474   9.874   1.400 -0.2215 -0.0832 -0.0876
 5287W        W21421  13.905  14.084  12.952 -0.1986  0.4561 -0.0812
 5288W        W21422  14.232   8.015   3.077 -0.0630  0.1197 -0.0233
 5289W        W21423   6.977   3.819  11.096 -0.1348  0.0507  0.1452
 5290W        W21424  19.279  12.569   3.703  0.1388  0.2175 -0.0823
 5291W        W21425   7.338  17.086  14.119 -0.1983 -0.2965  0.0527
 5292W        W21426  14.371   7.667   1.796 -0.0508  0.2659 -0.0023
 5293W        W21427   7.303  15.549   3.974  0.0092 -0.0649  0.1785
 5294W        W21428   1.094  12.190   1.558  0.0044 -0.0561  0.1163
 5295W        W21429  17.586  13.613  14.318 -0.3928 -0.1748 -0.0730
 5296W        W21430  13.564   4.548   4.237 -0.0260 -0.0203  0.0487
 5297W        W21431  19.086   9.692  14.335  0.1134  0.0891 -0.0756
 5298W        W21432  16.095  17.606   4.804 -0.1638  0.0981 -0.5070
 5299W        W21433  18.757   4.551   1.722  0.3646 -0.2587  0.1282
 5300W        W21434  16.032   3.118   4.575  0.3508  0.3735 -0.0180
 5301W        W21435   1.576   5.835  12.341  0.1665  0.2937 -0.0446
 5302W        W21436  12.010  14.316  10.530 -0.1057 -0.2261 -0.1558
 5303W        W21437  18.457   8.663   1.121  0.0607 -0.2939  0.3468
 5304W        W21438  14.774  17.942   1.506  0.0643 -0.2977  0.0152
 5305W        W21439  14.398   4.027  11.898 -0.0545  0.0796 -0.1216
 5306W        W21440  15.107  17.318   1.724  0.1588  0.1631 -0.0386
 5307W        W21441  19.294   0.327   4.745 -0.2103  0.0751 -0.3213
 5308W        W21442   3.450  13.146  12.566 -0.2242 -0.1625  0.4097
 5309W        W21443  13.278  10.080   9.900  0.4241 -0.1634 -0.2443
 5310W        W21444   5.354  10.509  13.176  0.1886 -0.2924 -0.2412
 5311W        W21445  10.844   9.689   1.455  0.4503 -0.0073 -0.2322
 5312W        W21446  14.406  12.278  15.008 -0.1792  0.1287  0.2509
 5313W        W21447  11.109  10.904   1.203 -0.0705  0.2211  0.0162
 5314W        W21448   8.925   5.326  11.156  0.2308  0.1488  0.2175
 5315W        W21449  10.434   3.142  10.736  0.0929  0.0244 -0.0382
 5316W        W21450   2.696   2.938  14.027 -0.1229 -0.3256  0.2718
 5317W        W21451   7.660   6.795  10.321 -0.2647  0.2462  0.1758
 5318W        W21452  17.833   8.034   0.726 -0.3158 -0.2150 -0.0848
 5319W        W21453   4.459   6.579  10.637 -0.4026  0.2336  0.2953
 5320W        W21454  16.470  12.572  10.626  0.2429 -0.2752 -0.1555
 5321W        W21455  19.013  19.054  13.398  0.1433  0.0508 -0.0449
 5322W        W21456  18.830   3.586   3.119 -0.0228 -0.2112  0.0065
 5323W        W21457   1.298  16.746  14.059  0.1303  0.1529  0.2173
 5324W        W21458  15.948  17.435  10.751  0.1784  0.0506  0.2948
 5325W        W21459  12.905  15.164  13.207  0.0860 -0.0435 -0.0321
 5326W        W21460   4.058  16.155   1.959  0.0415  0.3518  0.0507
 5327W        W21461   9.183   3.194   5.193 -0.3895 -0.4277  0.1365
 5328W        W21462   1.293  16.460   2.491 -0.2217 -0.0692 -0.1168
 5329W        W21463   6.631  12.791   1.100  0.1398 -0.0506 -0.3878
 5330W        W21464   0.947   0.027  10.155 -0.0669 -0.1686  0.1918
 5331W        W21465  13.060   0.255  11.215 -0.2481  0.3344 -0.1330
 5332W        W21466   8.379  18.117   2.789  0.0207 -0.1735 -0.0838
 5333W        W21467  12.837  14.505   0.828  0.1467 -0.1952 -0.2015
 5334W        W21468  11.494   3.756  14.125 -0.1576 -0.2276 -0.0450
 5335W        W21469  13.120   0.067   4.253 -0.1727  0.0865 -0.0552
 5336W        W21470   0.257   9.935  12.439 -0.1195  0.0458 -0.0274
 5337W        W21471  18.577  14.867  13.204 -0.3057  0.1534 -0.2702
 5338W        W21472  17.036   0.811   0.509 -0.3692  0.0106 -0.0994
 5339W        W21473  18.895  16.274   2.478 -0.0440 -0.3267 -0.2768
 5340W        W21474  15.652  13.634  11.991 -0.2001 -0.0127 -0.1041
 5341W        W21475   1.087  15.616   4.158  0.3047 -0.0716  0.0822
 5342W        W21476  15.471   4.765   0.497  0.1457  0.0700  0.0789
 5343W        W21477  16.370   8.827   5.147 -0.0910  0.3502  0.2299
 5344W        W21478  16.741  11.326  10.584  0.2902  0.0937  0.0695
 5345W        W21479  15.102  13.591   5.364 -0.0822  0.1205 -0.0313
 5346W        W21480   9.927  16.389  12.716 -0.3591  0.0995  0.1801
 5347W        W21481  12.322  11.136   3.401 -0.0178 -0.1206  0.2928
 5348W        W21482  14.363  12.583   2.673 -0.2174  0.0400  0.2438
 5349W        W21483  11.178   4.611   0.946 -0.1856 -0.0137 -0.0680
 5350W        W21484   3.156   0.045  10.469  0.1865  0.0137  0.1160
 5351W        W21485  11.961  15.938  14.758  0.0155  0.0883  0.0816
 5352W        W21486   6.702  16.063   1.646  0.1428 -0.0741 -0.1199
 5353W        W21487   6.956   6.059   1.283 -0.4161  0.1628  0.1919
 5354W        W21488  14.968   3.253  10.506 -0.4575  0.1994 -0.1610
 5355W        W21489   2.913   6.634   2.121 -0.3686 -0.2346  0.2041
 5356W        W21490  12.331   2.033   3.042  0.2783 -0.1719 -0.1698
 5357W        W21491   1.081   4.635  14.890 -0.2089  0.0390  0.3192
 5358W        W21492   0.653   7.177   3.412 -0.1958 -0.4433 -0.1698
 5359W        W21493   3.330   8.810  14.333  0.2311  0.2534 -0.0514
 5360W        W21494   7.746  16.520  10.173 -0.2422 -0.0985 -0.1705
 5361W        W21495   3.756  11.012   1.214 -0.0857  0.1438  0.0814
 5362W        W21496  17.274  10.173  12.525  0.0079  0.1180  0.1490
 5363W        W21497  14.480   7.466   1.327 -0.1113 -0.1017 -0.0759
 5364W        W21498   6.118   6.539   0.235 -0.0799  0.1128  0.3258
 5365W        W21499   6.751   3.138  12.577 -0.2876  0.3218  0.5945
 5366W        W21500   9.911  10.907  12.649 -0.2274  0.1747  0.2440
 5367W        W21501  11.017   3.570  14.407 -0.0805 -0.2634  0.1473
 5368W        W21502   5.044  10.700  10.791 -0.4090  0.1405 -0.1197
 5369W        W21503  12.791   1.107   0.981 -0.0641 -0.0606  0.3177
 5370W        W21504   8.924   9.570  14.428 -0.1013  0.0611  0.2034
 5371W        W21505   9.549   0.935  14.969 -0.2355 -0.0590  0.0658
 5372W        W21506   7.487   8.063   0.087  0.3263  0.3360 -0.0851
 5373W        W21507  12.301  15.827   4.642  0.2489  0.0260 -0.4156
 5374W        W21508   2.278  15.110  11.256  0.0008  0.0912 -0.0040
 5375W        W21509  15.760  10.015  12.928  0.0640 -0.1004 -0.3654
 5376W        W21510  13.274   2.627   3.619 -0.0418  0.2588  0.0682
 5377W        W21511   7.860   1.946   1.703  0.3658 -0.0957  0.3542
 5378W        W21512   4.514  14.580  12.597  0.0728 -0.0122 -0.2933
 5379W        W21513  13.420   4.117  14.686 -0.0251 -0.2145  0.3468
 5380W        W21514   6.939   6.451   1.726 -0.0363 -0.0779  0.1179
 5381W        W21515   9.736   0.038  11.781  0.5342  0.3714  0.0035
 5382W        W21516   4.796   5.440  14.599 -0.1926  0.2024 -0.2687
 5383W        W21517  19.173  15.562   4.361  0.0934  0.1743 -0.2778
 5384W        W21518   0.082   6.095  11.606 -0.3627  0.0865 -0.0017
 5385W        W21519   8.904   9.937  13.172 -0.0083  0.0790 -0.0649
 5386W        W21520   1.460   7.830  11.969  0.0307  0.3315  0.0314
 5387W        W21521   9.330  13.995  12.594 -0.0020 -0.3512  0.0224
 5388W        W21522   2.308  12.700   0.212 -0.2572  0.0520  0.1182
 5389W        W21523  10.742  16.998  12.526  0.1489 -0.2134 -0.0310
 5390W        W21524   6.798   2.410   0.188 -0.2598  0.1391 -0.0211
 5391W        W21525  11.170   1.431  14.809  0.1233 -0.3344 -0.3659
 5392W        W21526  16.827  19.014  10.176  0.3575  0.2146 -0.2721
 5393W        W21527   0.419   4.152   4.916 -0.0500 -0.1205  0.3391
 5394W        W21528   2.498   7.174   3.503  0.3774  0.0985  0.2330
 5395W        W21529  13.841   3.618   3.639 -0.1450  0.0217  0.1609
 5396W        W21530   5.060  10.967  13.056 -0.4273  0.0807  0.1637
 5397W        W21531  15.630   5.681   3.885  0.0153 -0.1466 -0.1833
 5398W        W21532  16.518  18.365   1.487 -0.0608  0.1031 -0.1741
 5399W        W21533   3.017   2.376   1.010  0.1431  0.0110  0.2294
 5400W        W21534  17.498  10.816   0.945  0.2768  0.1047 -0.2509
 5401W        W21535   7.856   8.805   0.518  0.2567  0.0358 -0.0771
 5402W        W21536  13.513   9.288  11.946 -0.0654  0.0342  0.0310
 5403W        W21537  15.588  18.945   0.614  0.0280  0.1456  0.1481
 5404W        W21538   8.330  15.404   0.181  0.0805 -0.1084  0.1126
 5405W        W21539  10.134   4.612   1.903 -0.1355 -0.1722 -0.1220
 5406W        W21540  13.251   5.352  11.259  0.1191  0.1902 -0.2893
 5407W        W21541   3.154   7.765  14.395 -0.1576 -0.0187  0.0926
 5408W        W21542  18.583  11.166  12.579  0.1222  0.2859 -0.2086
 5409W        W21543  11.109   2.759  11.944 -0.0221 -0.0202  0.0123
 5410W        W21544   7.324  15.641  11.113  0.1909 -0.1441 -0.0102
 5411W        W21545  15.061   5.406  14.254 -0.3219  0.0603  0.1310
 5412W        W21546  17.109  11.155  14.518 -0.0014 -0.1291 -0.0098
 5413W        W21547  18.335  11.415  11.166  0.1574 -0.1631  0.2588
 5414W        W21548  12.343  18.725  10.662  0.0069 -0.1147  0.1869
 5415W        W21549   0.980   8.410  10.659  0.0752 -0.1945  0.1090
 5416W        W21550   8.606   9.142   0.170  0.1119  0.0009  0.1372
 5417W        W21551   5.339  12.311  13.482 -0.1371  0.1727 -0.3687
 5418W        W21552  10.314   7.669  14.213 -0.3739  0.1620 -0.1130
 5419W        W21553   6.502   6.672   4.477 -0.1504  0.2032  0.1055
 5420W        W21554  10.302  17.300  13.238  0.0759  0.0123 -0.0980
 5421W        W21555   4.512   7.318  14.848 -0.0117 -0.1238  0.2032
 5422W        W21556   7.892  15.568  11.744  0.0852  0.0521 -0.0267
 5423W        W21557   1.102   1.710   4.278  0.0605 -0.4051 -0.0959
 5424W        W21558   6.747   4.616   3.808 -0.0929  0.0731 -0.1205
 5425W        W21559  12.797  11.896   3.571  0.1954 -0.1487  0.4131
 5426W        W21560   1.746   9.773   0.919 -0.0426  0.0753  0.2292
 5427W        W21561   6.496   9.911   3.772 -0.1872 -0.0920  0.0430
 5428W        W21562   1.368  11.698  12.220 -0.1709  0.0189 -0.0796
 5429W        W21563   3.457  15.391   2.077 -0.0927 -0.3694 -0.1052
 5430W        W21564   5.318  11.023  12.108  0.2205 -0.1357  0.1730
 5431W        W21565   7.316  10.311   4.832  0.0847 -0.1945 -0.0928
 5432W        W21566  18.890  15.378  13.954 -0.1774 -0.2153  0.1727
 5433W        W21567  12.351   5.428   1.634 -0.3775  0.1753 -0.1269
 5434W        W21568  13.758   8.296   2.967  0.0416 -0.3172 -0.3772
 5435W        W21569   6.943  10.783  14.194  0.0083 -0.5493  0.4202
 5436W        W21570  15.171  16.748  12.992  0.0536 -0.1193 -0.3778
 5437W        W21571   7.328  18.838   2.048  0.1482  0.0801 -0.1319
 5438W        W21572   0.497  13.698  12.889  0.2006  0.0261  0.0406
 5439W        W21573   8.672  10.365  13.350  0.0024 -0.0695  0.3762
 5440W        W21574  18.793  15.062   1.546 -0.0143  0.1021 -0.0765
 5441W        W21575   4.803  13.799   4.731  0.0463  0.2387 -0.1735
 5442W        W21576   8.700  10.849   1.766 -0.2613 -0.0853  0.2804
 5443W        W21577  10.714  16.388  12.064  0.0599  0.2101  0.1519
 5444W        W21578  10.826   7.802  14.273 -0.2231 -0.0202  0.0302
 5445W        W21579   9.399  12.289   2.693  0.0689  0.1210  0.3482
 5446W        W21580  10.354  10.410  13.955 -0.0237  0.0435  0.1389
 5447W        W21581  15.715   0.247   3.193  0.1284 -0.1844 -0.1131
 5448W        W21582  17.851   9.389  14.825 -0.3561 -0.2162 -0.1525
 5449W        W21583   8.377  15.914   0.938 -0.2313  0.1424  0.1221
 5450W        W21584  10.302   8.522  14.710 -0.0367  0.2156  0.0925
 5451W        W21585   2.545  19.313  10.529 -0.0434 -0.1776  0.1802
 5452W        W21586   6.412  12.730  11.556 -0.1059  0.0398  0.3217
 5453W        W21587  15.990  13.322   2.703  0.1348  0.4669 -0.2851
 5454W        W21588   7.768   3.070   0.636  0.0274  0.0369 -0.0062
 5455W        W21589   7.698   5.175   9.253  0.0099 -0.1000 -0.1114
 5456W        W21590  17.571  11.904   0.102 -0.0591  0.0936 -0.0754
 5457W        W21591   9.578  13.192  12.259  0.1997 -0.2242 -0.4043
 5458W        W21592  17.316  18.524  12.918 -0.4136 -0.1113  0.0067
 5459W        W21593   6.004   4.944  14.237  0.0300  0.0903  0.0113
 5460W        W21594  12.493  11.628   3.157  0.0663 -0.0430  0.1414
 5461W        W21595   1.445   1.474   3.638  0.2046 -0.0862 -0.0558
 5462W        W21596   2.180  10.984   3.261  0.0221 -0.0826  0.3246
 5463W        W21597   9.767   1.193   1.457  0.0934 -0.1882  0.0814
 5464W        W21598  12.449   8.616  10.946  0.0043 -0.0866 -0.0534
 5465W        W21599   9.515  14.009   3.080 -0.3809  0.1213 -0.1754
 5466W        W21600  11.786   9.265  13.111  0.2646  0.2013  0.1222
 5467W        W21601  11.107   2.353   4.093 -0.0438  0.0109  0.1325
 5468W        W21602   0.265  14.956   0.944 -0.2140 -0.1246  0.2588
 5469W        W21603  12.190   1.422   2.180 -0.1878 -0.1692  0.0237
 5470W        W21604   5.892  17.533   0.210  0.1961 -0.0345 -0.1499
 5471W        W21605  11.203   5.596  13.185  0.1246  0.2102 -0.0764
 5472W        W21606  18.802  16.687   0.708 -0.2562 -0.1819  0.0304
 5473W        W21607   8.670   6.011   1.594  0.0205  0.0100  0.1060
 5474W        W21608   9.955  17.315  11.435  0.0251  0.0369 -0.0166
 5475W        W21609  17.622  15.137   2.374  0.1228  0.2404  0.0597
 5476W        W21610  14.062  16.018   5.121  0.1401  0.2998  0.1890
 5477W        W21611  14.269  16.481   2.838  0.2655  0.0426  0.1264
 5478W        W21612   4.807  13.699  13.685 -0.0998  0.2253  0.1394
 5479W        W21613   8.612   1.396  13.623  0.4122  0.1913  0.1791
 5480W        W21614  17.491   2.613  11.641 -0.1655  0.0148  0.1709
 5481W        W21615  18.126   8.520   4.918  0.0246  0.0544 -0.2250
 5482W        W21616   3.409   5.481  12.285  0.1014 -0.0794 -0.2253
 5483W        W21617   0.898   8.624  10.162  0.4075 -0.1347 -0.0956
 5484W        W21618   2.385   5.241   4.634 -0.4229 -0.0618  0.2526
 5485W        W21619  15.953  13.870   4.067 -0.3674  0.4838  0.1594
 5486W        W21620   3.590  11.801   0.018 -0.1967  0.0246  0.0372
 5487W        W21621  11.265   1.969  11.947 -0.2745 -0.1160 -0.0376
 5488W        W21622   7.019  15.922  11.707 -0.2503  0.2814  0.0440
 5489W        W21623  10.815   1.554   0.665  0.1703  0.0117 -0.0381
 5490W        W21624   5.756  13.003   1.305  0.1878  0.1742 -0.1428
 5491W        W21625  15.304   6.051  13.135  0.3250  0.0215 -0.1931
 5492W        W21626   1.757  17.976   3.524 -0.1905  0.3305  0.2293
 5493W        W21627  14.425  13.800   0.696  0.2501 -0.4270  0.0479
 5494W        W21628  10.662   6.230   2.562  0.0282  0.2294 -0.1549
 5495W        W21629   6.634   3.244   1.771 -0.1695 -0.4325  0.0068
 5496W        W21630  11.582   2.651  11.885 -0.1370 -0.0360  0.2359
 5497W        W21631  13.307  18.070  12.704  0.2910  0.0906 -0.1765
 5498W        W21632   0.873   4.220   0.909 -0.3831 -0.0331 -0.0280
 5499W        W21633  16.638  17.245   0.550 -0.1110  0.0195  0.3260
 5500W        W21634  16.641   8.567  10.437  0.0210  0.0374 -0.2608
 5501W        W21635  18.800  10.905   1.316  0.2638  0.2019 -0.1105
 5502W        W21636   4.329  18.583  10.749  0.2366 -0.3333 -0.1123
 5503W        W21637  16.640   6.863  13.433 -0.3469 -0.0346  0.3933
 5504W        W21638  11.643   7.762   3.010 -0.0322 -0.3126 -0.4196
 5505W        W21639   9.623  17.721   4.025  0.0972 -0.1102  0.0599
 5506W        W21640  13.840   8.458  10.625  0.1583  0.0566 -0.2983
 5507W        W21641  17.887  18.435  13.820 -0.1750  0.0116  0.1209
 5508W        W21642  18.058   6.131   4.817  0.0649  0.0040 -0.1082
 5509W        W21643   6.283  15.539   5.041 -0.4084 -0.1028 -0.1407
 5510W        W21644   7.263  13.527   2.220  0.0831  0.1685  0.0091
 5511W        W21645   7.942  15.758   3.872 -0.0612  0.0362  0.1566
 5512W        W21646   5.412   6.979   2.664  0.1836 -0.0499 -0.0590
 5513W        W21647   7.643   7.960   1.841  0.1156 -0.2081  0.1616
 5514W        W21648  13.486   4.876  12.072  0.0925  0.2574 -0.1283
 5515W        W21649   4.108  11.861  12.713  0.1554  0.1306 -0.0630
 5516W        W21650  15.480   2.055  11.166  0.1983  0.1473 -0.1585
 5517W        W21651   1.758  17.955   1.343  0.2288 -0.4886 -0.3293
 5518W        W21652   0.252  14.967  14.613 -0.0273 -0.1988  0.3513
 5519W        W21653   4.782   1.930  12.060 -0.0428  0.0651  0.0724
 5520W        W21654  10.794   6.384  14.156  0.1167  0.0634 -0.0774
 5521W        W21655  10.754  13.067  11.425 -0.0630 -0.0285  0.2462
 5522W        W21656  10.757  14.094   9.937 -0.0068 -0.0290  0.1887
 5523W        W21657   5.933  14.887   5.586  0.1328  0.3761 -0.1013
 5524W        W21658   1.812   0.222  11.270  0.6411  0.0205  0.1205
 5525W        W21659  11.459  18.379   1.591 -0.0159 -0.2771 -0.1428
 5526W        W21660   2.313   4.894   3.634 -0.0641 -0.2663  0.1846
 5527W        W21661   2.302  16.446  14.197 -0.2388  0.3048  0.0568
 5528W        W21662   2.695   0.087  13.558  0.0921 -0.1000  0.0353
 5529W        W21663   2.628   1.601   3.186 -0.1072 -0.3243  0.0087
 5530W        W21664   5.299  13.167   3.039 -0.0611  0.1163 -0.2038
 5531W        W21665   8.460  15.820  14.130  0.2187 -0.0304  0.1173
 5532W        W21666  14.049   4.350  11.612  0.1204 -0.1741 -0.2429
 5533W        W21667   7.948   2.585   3.324 -0.0620  0.1370  0.0961
 5534W        W21668   7.474  15.059   4.049 -0.1883  0.0239  0.0171
 5535W        W21669   3.399  15.161  11.941 -0.2753 -0.0370  0.1624
 5536W        W21670   7.715   2.324  12.000 -0.0692  0.1404  0.1885
 5537W        W21671   6.264   1.549   1.779  0.0322  0.0478 -0.2713
 5538W        W21672  10.594   6.315  12.021 -0.0893 -0.1365 -0.0130
 5539W        W21673   6.530   2.902   0.639  0.2848 -0.3126 -0.2412
 5540W        W21674   8.756   9.057   4.235  0.0100 -0.0475  0.0027
 5541W        W21675  15.768   4.156   1.048  0.1682 -0.0306 -0.1519
 5542W        W21676  14.157  11.258   2.565  0.1140  0.0042 -0.1844
 5543W        W21677  16.882   3.049   4.282 -0.1077  0.0677 -0.0182
 5544W        W21678  12.890  17.157  11.370  0.0656  0.4574  0.2737
 5545W        W21679   0.478  10.106  11.917 -0.2664  0.5482 -0.0132
 5546W        W21680  17.407  17.084  11.640 -0.0087  0.1958 -0.2314
 5547W        W21681   4.288  10.488   5.546 -0.1472 -0.0315 -0.3943
 5548W        W21682  13.053  16.665  11.143 -0.0090 -0.2095  0.1746
 5549W        W21683   9.144   8.634   3.584 -0.1777 -0.1699  0.2076
 5550W        W21684   6.811   6.079   3.098  0.0425  0.0398  0.0751
 5551W        W21685  17.119   4.566   4.874  0.0512  0.1717  0.3195
 5552W        W21686  11.026  18.034   0.213 -0.1374 -0.1022  0.0075
 5553W        W21687   4.273   6.872  10.986 -0.4060  0.2937  0.1542
 5554W        W21688  18.512   7.043  12.322 -0.1748 -0.0167  0.1618
 5555W        W21689   3.791   0.552   0.724 -0.0932  0.1588 -0.1149
 5556W        W21690   9.160  13.027   4.167 -0.2292  0.0174  0.2052
 5557W        W21691   4.808   4.939   4.615  0.0315  0.0748  0.1716
 5558W        W21692   4.440  12.345   1.807  0.0164 -0.1054  0.0962
 5559W        W21693  10.995  13.882  11.146 -0.1248 -0.4307 -0.1721
 5560W        W21694  13.878  12.742  13.090 -0.1971 -0.0956  0.0832
 5561W        W21695   7.060  10.316   2.862  0.4568  0.1418  0.1737
 5562W        W21696   6.680  12.725  14.147  0.4768  0.1719  0.0896
 5563W        W21697   8.886  10.041  13.721 -0.0201  0.2240  0.0460
 5564W        W21698   7.658   6.517   1.001 -0.1107  0.1538 -0.1044
 5565W        W21699  17.573  17.970   0.180 -0.1836 -0.2139 -0.3901
 5566W        W21700  11.635  18.677   1.222  0.1847 -0.0018 -0.0760
 5567W        W21701   1.749   1.683   0.942  0.5129 -0.0428 -0.2975
 5568W        W21702   9.214   4.493   2.044  0.0776 -0.4369  0.1893
 5569W        W21703  15.347   3.313   2.478  0.1932 -0.0353  0.2396
 5570W        W21704   0.811  12.692  10.995 -0.0870 -0.1856  0.0624
 5571W        W21705  18.053   2.272   0.542 -0.3615 -0.1888  0.2600
 5572W        W21706  10.592  12.720  10.600 -0.0934 -0.3354  0.0419
 5573W        W21707  12.749   0.478   2.051 -0.1187  0.0684 -0.0369
 5574W        W21708  12.307   9.644   4.293  0.1292  0.1666 -0.4199
 5575W        W21709   8.908   5.346   1.766  0.3322 -0.0176  0.1361
 5576W        W21710  11.335   9.722   1.097  0.0379 -0.0781 -0.1561
 5577W        W21711  14.276   5.408  14.156 -0.3329 -0.0564  0.2073
 5578W        W21712   6.981  17.894  12.865  0.0223  0.0414  0.0749
 5579W        W21713   0.940  10.604   4.034 -0.1274  0.0271 -0.0037
 5580W        W21714   6.106  15.122  12.831 -0.1772 -0.0780 -0.0772
 5581W        W21715  18.163  17.224   2.836 -0.2554  0.0094 -0.3413
 5582W        W21716   7.093  10.081  12.532  0.1904 -0.3064  0.1742
 5583W        W21717  11.176   6.949  13.053  0.0089 -0.1580 -0.3321
 5584W        W21718   6.570  12.490  13.662  0.4219  0.0135 -0.0377
 5585W        W21719   8.773  18.551  13.416 -0.1551  0.0503 -0.1482
 5586W        W21720   7.083  12.444   3.466  0.0730 -0.0274  0.0447
 5587W        W21721   0.295   7.334   1.737 -0.2294 -0.1706  0.2605
 5588W        W21722  16.930   0.800   4.075  0.3380  0.1070 -0.2019
 5589W        W21723   6.898   4.417  12.863 -0.1906 -0.2039  0.1017
 5590W        W21724  17.978  11.477  12.865 -0.1899 -0.0088  0.2305
 5591W        W21725  17.751  11.026   9.961 -0.1446  0.0401  0.2020
 5592W        W21726  16.361  11.244  13.920 -0.0957 -0.3426  0.1721
 5593W        W21727  15.079   6.772   1.215 -0.0848 -0.0031 -0.0822
 5594W        W21728  11.191  12.053  10.532 -0.0003  0.1456  0.2358
 5595W        W21729   2.881   9.074   4.454 -0.1291 -0.0358  0.1190
 5596W        W21730   3.608   7.182  12.026 -0.0378 -0.0041 -0.1999
 5597W        W21731  18.523   4.868  12.016  0.0782  0.2772 -0.0146
 5598W        W21732   4.331   6.655   2.198  0.1066 -0.1691  0.0352
 5599W        W21733  14.329  13.588  12.496  0.1161 -0.1039 -0.3921
 5600W        W21734  14.435  16.030  10.471 -0.0661 -0.1718  0.0441
 5601W        W21735  14.322  16.414   1.745 -0.0549 -0.3046  0.0291
 5602W        W21736   1.925   1.731   5.017  0.0839  0.0763  0.2428
 5603W        W21737   2.884  17.507  11.392 -0.1658 -0.0388 -0.3716
 5604W        W21738  18.399  10.089   4.549  0.0448  0.4552  0.0483
 5605W        W21739   9.317   8.567   9.367 -0.0085  0.0213 -0.1974
 5606W        W21740   9.906  18.733   1.958  0.0948  0.0556  0.1377
 5607W        W21741   7.970   3.864   2.048  0.0703 -0.2361 -0.0474
 5608W        W21742   0.793   5.213   9.795 -0.3659 -0.0596  0.2107
 5609W        W21743  11.868   9.426   4.096 -0.0748 -0.0425 -0.1292
 5610W        W21744   7.526  14.704  10.614 -0.2532  0.3063  0.1469
 5611W        W21745  14.576   2.481  11.979 -0.0045 -0.0618 -0.1141
 5612W        W21746   1.624   7.005  11.590  0.0695 -0.3139 -0.0560
 5613W        W21747   9.923   2.484  11.207 -0.0399 -0.0430 -0.3102
 5614W        W21748  14.095  11.280   4.578 -0.0753 -0.0486  0.0402
 5615W        W21749  10.322  14.278   0.743 -0.1761  0.1612  0.1731
 5616W        W21750   4.590  12.695   3.971 -0.0639  0.2551  0.2398
 5617W        W21751   2.794  12.854   3.636  0.0784 -0.0072  0.0758
 5618W        W21752  12.211   1.486   3.622 -0.0380  0.1155  0.0749
 5619W        W21753  15.521  17.617   8.924  0.2291 -0.4028 -0.0367
 5620W        W21754  13.917  13.060   5.160  0.1563 -0.2042 -0.4207
 5621W        W21755  18.929   5.306  11.195 -0.0212  0.2123  0.1057
 5622W        W21756  11.059   7.203  10.736 -0.1050 -0.0527  0.0468
 5623W        W21757   2.036   1.074  11.153  0.3675 -0.2464 -0.1026
 5624W        W21758  12.252  17.277  13.552  0.1412  0.0951 -0.3333
 5625W        W21759  19.050   7.795   0.098  0.2235  0.1172 -0.1279
 5626W        W21760   1.657   0.973   9.819  0.1431  0.1516  0.3020
 5627W        W21761  10.361  13.146   2.385  0.2134  0.3322  0.1146
 5628W        W21762  19.240   3.457   2.826 -0.1914 -0.1447  0.1583
 5629W        W21763   6.192   2.320   4.202 -0.1157  0.3109 -0.2060
 5630W        W21764  16.321  17.580  14.180 -0.0793 -0.1944  0.1481
 5631W        W21765  18.257   6.911  11.130 -0.1685  0.5388 -0.0814
 5632W        W21766  17.879   8.542  11.721  0.0376 -0.1362 -0.2126
 5633W        W21767   1.920  15.099   0.625 -0.3087 -0.1351 -0.0768
 5634W        W21768  17.128  15.792  14.397 -0.2388 -0.3446  0.3820
 5635W        W21769   6.041  12.524   1.847 -0.1566  0.0549 -0.0128
 5636W        W21770   2.865   4.142  12.491 -0.0630  0.0899  0.2546
 5637W        W21771   9.367   7.459  14.351  0.0538 -0.0255  0.3745
 5638W        W21772  12.394  14.978   6.022 -0.2620  0.2066 -0.1057
 5639W        W21773  10.875   9.480   0.174  0.2047  0.0432  0.0339
 5640W        W21774  18.259   4.331   8.882 -0.0338  0.1223  0.0126
 5641W        W21775   1.193  13.153  13.671 -0.2500 -0.1715 -0.3135
 5642W        W21776   8.253   2.956   3.483  0.1939  0.0202  0.2110
 5643W        W21777   6.656  10.003  13.368 -0.1169 -0.2345 -0.3826
 5644W        W21778   3.313  12.755   3.483 -0.1702 -0.3845 -0.0836
 5645W        W21779   5.650  18.082   4.411 -0.2248 -0.1796 -0.4144
 5646W        W21780  13.329  15.884  14.412  0.0333  0.1483 -0.3190
 5647W        W21781   6.684  15.461   0.873  0.1306 -0.2069  0.0285
 5648W        W21782  10.726   4.824  14.071  0.0796 -0.0454  0.0948
 5649W        W21783  18.619   3.855  10.926 -0.0889 -0.2136 -0.5099
 5650W        W21784   2.829  18.660  11.073  0.0446  0.5312  0.2071
 5651W        W21785   1.449  16.973   3.779  0.1505  0.0347  0.0884
 5652W        W21786   0.855  14.813  11.677 -0.4113 -0.0094 -0.0569
 5653W        W21787   6.133   5.370   4.258 -0.1991  0.1963  0.1088
 5654W        W21788   8.875   8.950   2.582  0.2966  0.2310 -0.0240
 5655W        W21789  15.749  11.853  14.353  0.2967 -0.1820  0.2628
 5656W        W21790   5.519   7.125  10.799 -0.0490 -0.2306 -0.1888
 5657W        W21791   3.859  11.799   1.263 -0.1291 -0.2919 -0.3751
 5658W        W21792  10.430   7.021  13.470 -0.0439 -0.0091 -0.1529
 5659W        W21793   0.550   1.053   4.038 -0.3482 -0.2650  0.1326
 5660W        W21794   7.178   9.633  14.069 -0.0433 -0.2186 -0.2653
 5661W        W21795   9.790  15.079  13.214 -0.0566  0.4804 -0.2282
 5662W        W21796   2.078  15.824   4.113  0.1554  0.1731 -0.0281
 5663W        W21797   4.071  10.919   4.148 -0.1897 -0.5500 -0.0193
 5664W        W21798  11.318   2.215   2.803 -0.2282  0.2482 -0.2848
 5665W        W21799   1.557  16.595   4.724  0.2844 -0.0835 -0.0072
 5666W        W21800   1.910   6.358   4.881  0.2075  0.1549  0.2661
 5667W        W21801  17.557   3.405   1.385 -0.0519  0.0119  0.2577
 5668W        W21802  17.603  11.851   4.826 -0.1607 -0.2837 -0.0803
 5669W        W21803   1.390   2.994   2.097 -0.3431  0.0071 -0.1456
 5670W        W21804   2.067   1.242   0.945 -0.0168 -0.0660 -0.0601
 5671W        W21805   9.936  12.822   2.393 -0.1500  0.1419  0.2392
 5672W        W21806  17.939  14.910   4.349  0.1462  0.1058 -0.3189
 5673W        W21807  15.268  14.869   9.632  0.3721  0.2387  0.0628
 5674W        W21808   9.896   0.742   2.768 -0.1208 -0.0460  0.1071
 5675W        W21809  15.339  18.691  12.428 -0.1335 -0.2057  0.1939
 5676W        W21810  12.928   7.549  10.205  0.1419 -0.0537  0.2533
 5677W        W21811   2.116   4.926  12.364  0.2900  0.2371  0.1770
 5678W        W21812   1.904  15.695   1.229 -0.0161 -0.3433  0.1120
 5679W        W21813   7.960  11.136   4.667  0.0014 -0.0850  0.1134
 5680W        W21814   1.843  10.427  14.744  0.2078  0.1467  0.2048
 5681W        W21815   2.213  10.234   3.313  0.1149  0.3719  0.1078
 5682W        W21816   0.917   4.861   0.890 -0.0384  0.3915 -0.1411
 5683W        W21817   0.431  10.685   4.700 -0.1892 -0.2587 -0.2589
 5684W        W21818  16.233  11.009   0.885 -0.1142  0.3899 -0.0469
 5685W        W21819  18.756   7.700  13.727 -0.1341  0.1581  0.0848
 5686W        W21820  18.772   6.799  14.118  0.4296  0.0525 -0.2003
 5687W        W21821   4.521  15.045   5.695 -0.0056 -0.1596  0.1244
 5688W        W21822  15.633  18.036   0.422 -0.1588  0.0909  0.1981
 5689W        W21823   3.439  10.181   2.712 -0.2299 -0.3291 -0.1572
 5690W        W21824   7.187   9.876   4.619  0.5742  0.0853 -0.1790
 5691W        W21825   4.535   1.085   1.952 -0.3089 -0.3965  0.2976
 5692W        W21826  10.103  15.290   0.840 -0.2073 -0.0457 -0.2045
 5693W        W21827   1.439  19.050  14.118 -0.0512 -0.1950 -0.0455
 5694W        W21828  13.329  14.290  12.467  0.2878  0.2066  0.0983
 5695W        W21829   6.140   4.168  12.281  0.2192  0.1578  0.2393
 5696W        W21830  16.803  10.150   3.667 -0.0538  0.0315  0.4055
 5697W        W21831  14.953   4.546  10.953 -0.0376  0.1210  0.0075
 5698W        W21832  16.464  11.759  12.989  0.4550 -0.0851  0.2401
 5699W        W21833   2.568   3.701  12.867  0.2446 -0.2789  0.0718
 5700W        W21834   2.450  12.385  10.764 -0.1270 -0.0614 -0.2425
 5701W        W21835   8.982   7.057   1.716 -0.3055  0.2882 -0.0393
 5702W        W21836   6.163  12.047   0.958  0.2687  0.2192 -0.0747
 5703W        W21837  10.908   2.257  11.110  0.1493 -0.0836  0.0059
 5704W        W21838   2.849  11.574   4.358  0.1810 -0.0626  0.1207
 5705W        W21839  16.134  15.350   3.761 -0.3894 -0.0476  0.1644
 5706W        W21840   1.757  18.093  14.553 -0.6234  0.0563 -0.0587
 5707W        W21841  10.229   7.594  11.749 -0.2972  0.0001 -0.2051
 5708W        W21842  18.400   5.387   5.705 -0.0320 -0.1071 -0.0488
 5709W        W21843  12.724   4.506   0.251  0.1532  0.0590  0.1754
 5710W        W21844  12.853  11.916  11.799 -0.0033 -0.1739 -0.5003
 5711W        W21845  13.589   2.532   2.512  0.2666 -0.0339  0.2696
 5712W        W21846  11.217  14.166   3.483  0.0570 -0.3470  0.0180
 5713W        W21847  17.772   7.693   3.688 -0.4229  0.0153  0.0874
 5714W        W21848   4.175  11.448   2.273 -0.1315 -0.1665 -0.1479
 5715W        W21849  14.903   2.764   2.148  0.4572  0.1459 -0.0972
 5716W        W21850   3.012   5.426   3.396  0.1353  0.1895  0.1310
 5717W        W21851   0.192  15.754  12.395 -0.0096  0.1490  0.0853
 5718W        W21852   9.631   7.532   4.674 -0.1835 -0.0595  0.0069
 5719W        W21853  10.236  18.032   5.313 -0.2132 -0.0086  0.0076
 5720W        W21854  12.182  10.255  14.435  0.1365  0.0494  0.0199
 5721W        W21855   5.355  12.036   0.951  0.1730  0.0707  0.4334
 5722W        W21856   9.928   3.632  12.632  0.0411 -0.1847 -0.0701
 5723W        W21857   6.261  13.042   2.657  0.0340 -0.1714  0.0964
 5724W        W21858  15.433   7.697   0.935  0.2332  0.0389  0.3941
 5725W        W21859   9.084  14.514  12.818  0.2233 -0.0443 -0.0650
 5726W        W21860  13.103  13.010  11.300  0.0850 -0.0394  0.0148
 5727W        W21861  15.262   5.184  13.760  0.0018 -0.3501  0.2706
 5728W        W21862   9.574  15.842   2.094  0.3836  0.0861  0.2438
 5729W        W21863   9.694  13.720  13.307 -0.1293  0.2376 -0.0068
 5730W        W21864  10.638  16.393  10.973 -0.1492  0.2120 -0.3124
 5731W        W21865   1.142   9.806  14.903 -0.2127 -0.0181 -0.0690
 5732W        W21866  18.708   7.589  12.394 -0.0190  0.1371 -0.3766
 5733W        W21867  15.617  12.742  12.522 -0.0200  0.1041  0.2900
 5734W        W21868   8.263   2.207  13.794 -0.2958  0.1034 -0.0633
 5735W        W21869   2.797   3.922   1.141 -0.0283  0.1796  0.1634
 5736W        W21870   3.857   3.598   0.386  0.1182  0.0724  0.1310
 5737W        W21871  11.522   0.290  13.568 -0.2049  0.4110  0.2868
 5738W        W21872   1.209  13.944  10.535  0.0676 -0.1048 -0.1796
 5739W        W21873   2.412  16.388  12.526 -0.0741 -0.0685 -0.1137
 5740W        W21874   4.042   7.951  13.078  0.0147  0.2469  0.0514
 5741W        W21875  15.781  10.735  14.673 -0.0996  0.1172 -0.0238
 5742W        W21876  14.296   9.352  12.390 -0.1137  0.1031 -0.1891
 5743W        W21877  16.297   8.887   0.373  0.1179  0.0883 -0.5151
 5744W        W21878   7.678  11.440   4.904 -0.0888 -0.1345 -0.0449
 5745W        W21879  11.901  11.702  11.877  0.0483 -0.1387 -0.1440
 5746W        W21880  16.014   3.648   2.569  0.0437  0.2997 -0.1757
 5747W        W21881  13.861  10.046  10.775  0.1815 -0.3155  0.1720
 5748W        W21882   5.981   1.727  13.544 -0.0214  0.1129  0.0919
 5749W        W21883  13.998   7.124  12.477 -0.0481 -0.0578 -0.0486
 5750W        W21884   7.169   9.411   1.563 -0.0606 -0.0239  0.0026
 5751W        W21885  14.806  15.986   3.579 -0.1617  0.2366 -0.0333
 5752W        W21886   4.148   4.645  14.203 -0.1249  0.2514 -0.1009
 5753W        W21887  11.128  14.883  13.377 -0.1425 -0.3526  0.4077
 5754W        W21888   8.740  13.093   0.318 -0.0548 -0.3062  0.0089
 5755W        W21889   9.023   4.286  10.402  0.0366  0.0421  0.0108
 5756W        W21890  12.333   9.508   1.606  0.2801 -0.2139  0.0649
 5757W        W21891   4.248  10.112   3.546  0.1997 -0.2285 -0.1883
 5758W        W21892  15.280   4.336  13.365  0.2120  0.0607  0.1642
 5759W        W21893  17.264  15.538   3.238  0.3825  0.4576 -0.2587
 5760W        W21894  13.183  11.261   1.504 -0.4101  0.3248  0.0091
 5761W        W21895   5.654   5.698  12.179 -0.0951 -0.1029 -0.1580
 5762W        W21896   6.081   5.959  14.371 -0.3014 -0.2192  0.0377
 5763W        W21897  19.226  16.117  11.605  0.0836 -0.0465  0.0575
 5764W        W21898  13.034  17.586  10.096 -0.3338 -0.1155 -0.2181
 5765W        W21899  18.052   9.606  13.578  0.1752 -0.2781 -0.1851
 5766W        W21900   0.475  13.820  11.929  0.0828  0.2687 -0.0118
 5767W        W21901   9.848  14.157  14.947  0.0217  0.1725  0.0032
 5768W        W21902  12.814   3.298   4.113  0.2193  0.0750  0.2601
 5769W        W21903  15.251   8.753   2.121 -0.0940 -0.2695 -0.0863
 5770W        W21904  18.317  12.206   4.870 -0.3189  0.0674  0.1514
 5771W        W21905   8.401  18.137  11.200 -0.1709  0.0371 -0.2748
 5772W        W21906  13.522   6.011  12.569  0.0979  0.2169 -0.0931
 5773W        W21907   7.169   1.921  11.670 -0.0905  0.1998  0.1052
 5774W        W21908   1.529  15.233   3.678  0.0698 -0.3657  0.0430
 5775W        W21909  13.350   3.450  12.913  0.2058  0.1164 -0.0150
 5776W        W21910  11.331  17.594   0.986  0.1118  0.1472  0.0637
 5777W        W21911  11.609   1.170  11.094 -0.1780 -0.0951  0.0577
 5778W        W21912  18.821  17.279   0.601 -0.2695  0.0589  0.2316
 5779W        W21913  15.242   3.489   2.974  0.1026  0.1724  0.3090
 5780W        W21914   4.786  13.475  14.158 -0.1050  0.1871 -0.0436
 5781W        W21915  13.896  10.844   0.677  0.0772 -0.1279 -0.3137
 5782W        W21916   6.634   7.645   2.744  0.1490  0.1576 -0.1519
 5783W        W21917  16.359  15.061  11.273 -0.1512 -0.0488  0.1274
 5784W        W21918   6.370  15.232   1.609 -0.1543  0.1112  0.0226
 5785W        W21919  13.138  12.858  12.640  0.1406  0.0942 -0.4261
 5786W        W21920   2.349  10.695  10.167 -0.1222  0.1254  0.0688
 5787W        W21921  13.366  17.898   3.606  0.0593 -0.0930 -0.1204
 5788W        W21922   4.848  12.193   5.252  0.1021  0.1483 -0.0845
 5789W        W21923  18.205   7.148  13.298  0.3933  0.0940 -0.1534
 5790W        W21924  11.395   2.116   5.259 -0.2121 -0.1579  0.0718
 5791W        W21925   3.683  17.021  12.585  0.2747 -0.1799  0.2128
 5792W        W21926  12.940   8.735   0.988  0.0521  0.3127  0.1242
 5793W        W21927  14.798   8.537   0.172 -0.0266  0.0771 -0.3258
 5794W        W21928   4.338  13.520   5.660  0.0307 -0.0368 -0.0056
 5795W        W21929  11.350   1.269   1.996 -0.0511 -0.1535  0.1582
 5796W        W21930   0.972   3.413   0.443  0.1573 -0.1888  0.0320
 5797W        W21931  17.054  13.002   0.863  0.2854  0.1570 -0.3187
 5798W        W21932   9.621   1.717  12.786  0.2605 -0.1015 -0.0629
 5799W        W21933  16.027   8.725  14.614  0.0467 -0.1441  0.1785
 5800W        W21934   4.448  19.206  10.885  0.0847 -0.2960  0.3162
 5801W        W21935   2.239  17.836  14.168 -0.2029  0.0170 -0.2322
 5802W        W21936  15.239   0.152   3.217 -0.3894 -0.4075  0.1774
 5803W        W21937  17.015   6.300  14.081 -0.1797  0.3551 -0.1404
 5804W        W21938   8.964   3.385  13.047 -0.0708  0.1069 -0.1012
 5805W        W21939  16.354   8.374   3.054  0.0573  0.2564  0.0123
 5806W        W21940  10.146   2.963  13.446 -0.0775 -0.0769 -0.2874
 5807W        W21941   9.446   0.166  14.210  0.0625 -0.1363 -0.1118
 5808W        W21942   5.801  15.796   2.730  0.3778 -0.0036 -0.1029
 5809W        W21943   5.827  10.743  14.623 -0.2600 -0.1863 -0.1767
 5810W        W21944  12.613   5.207   5.100  0.2830  0.1087 -0.0779
 5811W        W21945   2.592  11.564   0.655  0.1203 -0.2039  0.2513
 5812W        W21946   8.745   1.638   6.057  0.0650 -0.4401  0.1026
 5813W        W21947  10.018  17.420  10.073  0.0636 -0.2673  0.1961
 5814W        W21948   6.386  10.169  10.944  0.0019 -0.1713 -0.1421
 5815W        W21949   5.010   2.152  11.129 -0.0081 -0.1932 -0.2844
 5816W        W21950   9.259  13.718  10.644 -0.2375  0.1462 -0.4130
 5817W        W21951   3.515  12.077  14.300 -0.0483  0.2736 -0.1264
 5818W        W21952  15.846   7.363  14.396  0.4215  0.1561 -0.0048
 5819W        W21953   4.815   3.046  13.743  0.2705  0.0146  0.1158
 5820W        W21954  15.640   6.221   0.617  0.1544 -0.3723  0.0270
 5821W        W21955  14.675   1.951  11.725 -0.0275 -0.1655 -0.0467
 5822W        W21956  17.018   8.966  12.193  0.0513  0.1496  0.0142
 5823W        W21957   6.643  17.980  12.415 -0.3878 -0.1763 -0.2586
 5824W        W21958   0.885   3.201  14.528  0.2145 -0.0779  0.1785
 5825W        W21959  14.685   4.778  14.555 -0.0042  0.2373 -0.0660
 5826W        W21960  19.196  11.326  14.615  0.2215  0.0930  0.1382
 5827W        W21961   1.056  16.789   0.608 -0.0179 -0.2752 -0.3856
 5828W        W21962   4.466   1.967   3.835  0.0480  0.0242  0.1552
 5829W        W21963  10.304  18.845   3.267 -0.2750  0.1655  0.2433
 5830W        W21964  12.562   2.377  12.782  0.1467 -0.0342 -0.1405
 5831W        W21965   2.668   5.879   5.442 -0.4954  0.1640 -0.1567
 5832W        W21966  18.493  13.532  14.465 -0.0117  0.1204 -0.2672
 5833W        W21967   8.781   2.866  14.659 -0.0921  0.1915 -0.1242
 5834W        W21968  14.372   7.505   2.850 -0.0644  0.1407  0.0740
 5835W        W21969   4.945  10.040   1.932  0.2246 -0.0745 -0.3387
 5836W        W21970  12.333  12.618  13.969  0.3397 -0.0101  0.1612
 5837W        W21971  10.397  11.470  13.647 -0.0588  0.1488  0.1774
 5838W        W21972  14.522   3.674  11.217 -0.2627  0.0439 -0.2364
 5839W        W21973   7.041  12.440   1.382 -0.3015  0.0381 -0.3280
 5840W        W21974   4.529   5.133   1.316  0.1806 -0.0250 -0.2345
 5841W        W21975  10.003  18.554  14.227  0.0618 -0.2911  0.0151
 5842W        W21976   0.278   9.205   3.911 -0.0389  0.2194  0.2357
 5843W        W21977  15.113  18.610  11.621 -0.1590 -0.0201  0.0363
 5844W        W21978   5.438  13.206   1.660 -0.1354  0.0272 -0.0079
 5845W        W21979  17.649   5.628  13.721  0.0461 -0.3353  0.2008
 5846W        W21980   1.054  11.215  10.441  0.2849  0.2790 -0.3354
 5847W        W21981   7.608  14.465   5.530  0.1151  0.1834 -0.1430
 5848W        W21982  15.933   3.444  11.518  0.1355 -0.1796 -0.2458
 5849W        W21983  15.435  17.148   4.285 -0.3495  0.0579 -0.2651
 5850W        W21984  11.929  16.534   1.459 -0.1944 -0.0723 -0.2544
 5851W        W21985  17.397  11.867  11.282  0.4329  0.0854  0.0664
 5852W        W21986   2.902  15.284   3.350  0.1649 -0.3912  0.2467
 5853W        W21987  18.405   4.732   5.192  0.1781 -0.0738 -0.1792
 5854W        W21988   2.225   8.368  11.089  0.0846 -0.1884  0.1101
 5855W        W21989   6.717   1.060   3.027  0.1713  0.2100 -0.2674
 5856W        W21990   4.421  16.701  13.200 -0.0538 -0.0983  0.2797
 5857W        W21991  16.516  14.672   1.698  0.0370  0.0148  0.1570
 5858W        W21992  10.820   5.068  11.851 -0.4811  0.0368  0.2810
 5859W        W21993  15.919   8.512   3.405  0.0007  0.0830 -0.0940
 5860W        W21994  14.981  10.742  10.485  0.0921 -0.4333  0.0055
 5861W        W21995   3.025   9.895   3.667  0.1989  0.0946  0.3686
 5862W        W21996  11.414   9.954   4.633  0.0830  0.2275 -0.2725
 5863W        W21997   9.165   0.524   5.131 -0.1770 -0.0624  0.1860
 5864W        W21998   6.141   7.426   1.704 -0.2205  0.0166  0.1493
 5865W        W21999  19.317   3.539  11.851 -0.0439  0.0273 -0.1367
 5866W        W22000  14.321  12.643  12.033  0.2260  0.0328 -0.1512
 5867W        W22001   3.010   0.409   9.345 -0.0765  0.1888  0.1475
 5868W        W22002   5.826   3.384  14.611  0.3644 -0.2318 -0.2596
 5869W        W22003   3.263   0.483  14.225  0.0790 -0.3460  0.0148
 5870W        W22004   1.398   2.423   3.986 -0.0111 -0.0703  0.3971
 5871W        W22005   5.669   5.309  14.530  0.1147 -0.1418  0.0330
 5872W        W22006   9.736   5.717   2.412  0.0416  0.1707  0.0530
 5873W        W22007   9.941   6.564   2.014  0.1539 -0.1204 -0.1766
 5874W        W22008   2.951  17.797   0.601 -0.4370 -0.1606  0.3279
 5875W        W22009  17.985  10.362  13.546 -0.2623  0.1305  0.0177
 5876W        W22010   5.462  10.093   3.987 -0.0756 -0.1975  0.1903
 5877W        W22011  10.704  10.370   4.043 -0.0081  0.3547  0.4504
 5878W        W22012   3.157  13.285  10.546  0.2174 -0.1751 -0.2353
 5879W        W22013   2.271   7.536  12.846 -0.1110  0.2059 -0.2913
 5880W        W22014  10.941   5.983   4.438 -0.1708  0.1375  0.1441
 5881W        W22015  15.331   8.784   2.655 -0.0612  0.0326 -0.0459
 5882W        W22016  16.755  12.596   0.994 -0.0608 -0.4568 -0.5831
 5883W        W22017   6.751   1.854   0.317 -0.0992 -0.0876 -0.0730
 5884W        W22018   4.227  13.651   1.396 -0.1547  0.1173  0.1602
 5885W        W22019   4.784  16.928  14.167  0.1694  0.1349 -0.1123
 5886W        W22020   2.726   3.592  11.047 -0.0515 -0.0655 -0.1138
 5887W        W22021  13.655   8.104  12.627 -0.1239 -0.1720 -0.1614
 5888W        W22022  15.908   9.543   5.388 -0.1412  0.0133 -0.0348
 5889W        W22023   1.339   7.350  11.418  0.0788 -0.2563 -0.0615
 5890W        W22024   2.055   5.247   0.745  0.2076  0.2573  0.2495
 5891W        W22025  19.087   8.084   3.963  0.0878  0.0843 -0.1464
 5892W        W22026   4.071  10.477  11.689  0.0860  0.0980 -0.1362
 5893W        W22027  16.300   9.684  14.702  0.1332 -0.1997  0.2702
 5894W        W22028   2.162   4.296  13.157  0.0377  0.3146 -0.0018
 5895W        W22029  11.628   1.720   4.169 -0.0239  0.1819  0.0284
 5896W        W22030   3.619  16.080  12.362  0.0365 -0.1686 -0.3235
 5897W        W22031  18.999   2.214   2.235  0.1363 -0.1795  0.1784
 5898W        W22032   2.056  18.299   2.520  0.2434 -0.0403  0.0302
 5899W        W22033   1.857   8.251  12.498  0.0170 -0.2260  0.1170
 5900W        W22034   9.552   0.776   1.169 -0.3359  0.0478  0.5277
 5901W        W22035   0.235  19.211   4.713 -0.0646  0.1316  0.4553
 5902W        W22036   0.955  17.514  11.305  0.1633  0.0560 -0.0249
 5903W        W22037  14.032   4.768  10.753 -0.0538 -0.2417  0.1912
 5904W        W22038   5.816  11.799   1.718  0.3313 -0.0122 -0.1758
 5905W        W22039  14.121  15.571  14.945  0.4882  0.3035  0.2117
 5906W        W22040   8.991  14.743  10.571  0.0690  0.0482 -0.1971
 5907W        W22041  18.958   8.664  12.308 -0.0196 -0.0075  0.0918
 5908W        W22042  11.470   1.108   0.138  0.3448 -0.0224 -0.1688
 5909W        W22043  13.864  13.607   2.892 -0.0481 -0.2698 -0.0162
 5910W        W22044  11.530  14.260  12.915  0.0311  0.0588 -0.3355
 5911W        W22045   8.415   7.083   3.889 -0.0639  0.3303  0.0104
 5912W        W22046   0.686   6.490  13.113  0.2515  0.1586  0.3378
 5913W        W22047   3.189  16.294   1.332 -0.2268  0.1547  0.0165
 5914W        W22048   5.823  19.311   5.033  0.3180  0.2282  0.1193
 5915W        W22049  18.074   9.881  14.507 -0.1078  0.0509  0.1339
 5916W        W22050  14.288   9.928   4.963  0.3642  0.0191 -0.2783
 5917W        W22051  16.979   1.972   2.362  0.1648  0.2046  0.0423
 5918W        W22052   6.957   5.326   0.486 -0.0036 -0.0203 -0.1948
 5919W        W22053   8.735   1.908  13.903 -0.0508  0.1111  0.1970
 5920W        W22054   1.780   6.627  14.390  0.1378  0.1344  0.2026
 5921W        W22055   1.023   3.216   3.729  0.0588 -0.0923  0.0362
 5922W        W22056  13.627  14.854   3.791 -0.6859 -0.1390 -0.0197
 5923W        W22057   2.046   0.654  13.287  0.3122  0.1008 -0.1743
 5924W        W22058  17.410  17.745  14.810  0.0599 -0.0736  0.2594
 5925W        W22059  13.404   3.461   4.765  0.1635  0.2698 -0.0447
 5926W        W22060  14.244   1.745   9.233  0.1847 -0.0505  0.1169
 5927W        W22061  15.692  10.331   2.741 -0.2038  0.1504  0.3438
 5928W        W22062   7.067  14.332  13.549  0.2536  0.1619  0.3480
 5929W        W22063  10.045  11.551  14.538  0.1140 -0.2238  0.1420
 5930W        W22064  12.866   0.494   4.390 -0.1913 -0.0804 -0.0975
 5931W        W22065   1.672   0.069  12.727  0.1746  0.0193  0.0365
 5932W        W22066   8.539   4.887  13.599  0.1904 -0.2580 -0.1211
 5933W        W22067   5.621  17.440   5.215  0.2427  0.1293 -0.0389
 5934W        W22068  10.298  13.225  10.657  0.0403  0.0970 -0.0512
 5935W        W22069   1.344   0.198   0.696  0.2176 -0.1009 -0.0216
 5936W        W22070   3.871  18.856  13.649 -0.3962  0.0567  0.2569
 5937W        W22071   3.184   9.284  14.424 -0.0546 -0.0286  0.2465
 5938W        W22072   2.585   9.257  10.854 -0.1961  0.1762 -0.2006
 5939W        W22073   0.145   9.935   2.633  0.2907  0.0273 -0.1752
 5940W        W22074   3.590  16.214   2.948  0.0306  0.0164 -0.1322
 5941W        W22075   8.599  15.655  13.679  0.1003 -0.3059 -0.0755
 5942W        W22076  11.478  19.158   2.024  0.0744 -0.0424  0.1408
 5943W        W22077   8.362   2.899   4.049  0.0022  0.3105 -0.0549
 5944W        W22078  13.704   7.593  10.262  0.1979 -0.0096  0.2283
 5945W        W22079   4.339   3.557  14.777 -0.1392 -0.0815  0.1632
 5946W        W22080  18.710   7.512  10.322 -0.1516  0.2338  0.0016
 5947W        W22081  16.032  15.265   4.542 -0.5246 -0.4485  0.3375
 5948W        W22082   7.456  12.055   1.325  0.3783  0.1843  0.0718
 5949W        W22083  10.614  19.114  10.079  0.4635 -0.0945  0.1764
 5950W        W22084   5.771  14.953   1.501  0.0309  0.1107 -0.1418
 5951W        W22085  14.278   5.266   3.160  0.2923 -0.0160  0.1014
 5952W        W22086   5.570   3.219   1.720  0.0479 -0.0106  0.0185
 5953W        W22087   8.649  13.968   0.865 -0.2962  0.0318  0.3831
 5954W        W22088   1.222  11.238  12.206 -0.0056 -0.2417 -0.1051
 5955W        W22089   8.807  14.475  14.170 -0.0379 -0.0895 -0.1919
 5956W        W22090  10.996   5.710   4.004 -0.2628  0.1231  0.6438
 5957W        W22091  17.791   0.763  14.194  0.2766 -0.2460 -0.2463
 5958W        W22092  11.647  12.290   0.178  0.0733 -0.2375 -0.1048
 5959W        W22093  16.474  15.790  14.341 -0.4608  0.1019 -0.0297
 5960W        W22094  10.377  17.509  14.884  0.0188 -0.2045 -0.0475
 5961W        W22095   3.309   8.409  12.874  0.1082  0.1680 -0.2838
 5962W        W22096  14.397  14.334   2.269 -0.0505 -0.1106 -0.1490
 5963W        W22097   5.784  11.022  11.927  0.3165  0.0734 -0.2817
 5964W        W22098  10.353  12.141   4.871 -0.0616  0.2268 -0.2246
 5965W        W22099   8.722  14.247  10.381  0.1246  0.2423  0.2031
 5966W        W22100  19.268  14.028  11.244 -0.0106  0.0829  0.1195
 5967W        W22101   4.760  14.820   3.493 -0.2206 -0.1514 -0.0590
 5968W        W22102  14.394   6.827   0.609  0.3788  0.1502 -0.5979
 5969W        W22103  17.981  18.273  12.118  0.1236  0.0758 -0.0644
 5970W        W22104  18.190   5.142  13.527 -0.1388  0.1818  0.0724
 5971W        W22105  12.865   5.638   2.116  0.0886  0.3209 -0.2874
 5972W        W22106  18.336  12.679  14.179 -0.2820  0.0768  0.1723
 5973W        W22107   5.734  10.524   3.220 -0.1841  0.0960 -0.0354
 5974W        W22108   7.996   7.667   1.267  0.0964  0.2092 -0.0268
 5975W        W22109   6.884   3.327  14.134  0.1899 -0.2104  0.1549
 5976W        W22110   3.194  14.988   2.872  0.1212  0.2377 -0.0648
 5977W        W22111  15.993  16.586   0.303 -0.0234 -0.2240 -0.2109
 5978W        W22112  10.830  18.861  12.694  0.1120  0.2189 -0.2263
 5979W        W22113  17.411  14.398  10.678 -0.0551  0.1461  0.0623
 5980W        W22114   2.156   0.370   2.497  0.0739 -0.1030  0.1396
 5981W        W22115   5.538  13.546  10.953 -0.1087  0.0579  0.4638
 5982W        W22116  15.347   6.680   4.493 -0.1074 -0.1243  0.1257
 5983W        W22117  11.755  12.258  10.311 -0.0190 -0.1762  0.1206
 5984W        W22118   3.383   0.103   3.032 -0.1254 -0.0447 -0.3290
 5985W        W22119  19.222   4.976   2.924 -0.0463  0.1140 -0.0583
 5986W        W22120  11.718   7.388   0.906  0.2738  0.4492  0.0234
 5987W        W22121  10.794  17.453   1.008 -0.1177  0.0738  0.0753
 5988W        W22122  11.312   3.145  14.866  0.2081 -0.1727  0.3562
 5989W        W22123  13.680  14.988   1.119  0.0590 -0.1500 -0.0064
 5990W        W22124   4.146   2.601  13.777 -0.0660 -0.0562  0.0299
 5991W        W22125   0.211   1.145   2.560 -0.2243 -0.3427  0.0663
 5992W        W22126  16.363   5.026   2.323  0.4509  0.1427  0.1440
 5993W        W22127  17.073  11.640  10.827  0.3247  0.0121  0.1634
 5994W        W22128   4.920  10.068   1.457  0.0565 -0.0691 -0.0400
 5995W        W22129  15.250   8.691   3.512  0.1749 -0.1423  0.1697
 5996W        W22130  11.900  16.680   2.653 -0.0804 -0.0043  0.1300
 5997W        W22131  17.500   0.983  13.301 -0.1167  0.2060  0.2267
 5998W        W22132  11.226   1.382   4.355 -0.0728  0.1098 -0.1271
 5999W        W22133  18.953   1.316  12.660 -0.0938  0.1720  0.1398
 6000W        W22134  18.498  18.115   4.035  0.3127  0.0230 -0.0263
 6001W        W22135  16.551   0.402   4.987 -0.0533 -0.0307 -0.1895
 6002W        W22136   4.047   7.880  14.165  0.0826  0.1142 -0.0808
 6003W        W22137  17.269   5.963   2.582 -0.2972 -0.0922  0.1841
 6004W        W22138  18.782  17.368   5.265  0.3067  0.2873 -0.1609
 6005W        W22139  16.358   0.608   1.333 -0.1356  0.2295 -0.1322
 6006W        W22140   7.890  17.844   2.178  0.1610  0.1753 -0.0705
 6007W        W22141   7.058  12.415  13.906  0.1800  0.0824  0.1297
 6008W        W22142  13.883  15.663   2.096  0.1222 -0.3907 -0.1052
 6009W        W22143  19.031   1.278   1.506  0.1937 -0.1531  0.2079
 6010W        W22144  17.358  16.414  10.337  0.1022 -0.1878 -0.2608
 6011W        W22145  10.244   6.324   1.521  0.5317  0.0139 -0.0486
 6012W        W22146   0.286  18.221  10.177  0.0081 -0.0828  0.2039
 6013W        W22147   6.988   2.315   0.704 -0.0578  0.2455 -0.1598
 6014W        W22148  18.035  19.302   3.595  0.0042  0.1406 -0.3923
 6015W        W22149   4.693  18.811  11.016  0.0735  0.2193  0.0921
 6016W        W22150   1.695  13.735  12.209  0.2043  0.0849  0.2551
 6017W        W22151  13.300  12.121  10.778 -0.0594  0.0766 -0.3161
 6018W        W22152  17.983  12.888   0.890  0.1182 -0.0700  0.1185
 6019W        W22153  13.924  11.828  13.453  0.2002 -0.1323 -0.0633
 6020W        W22154   7.440   5.144   0.211 -0.0008 -0.5405 -0.0929
 6021W        W22155   8.707   9.954   2.185 -0.1169  0.1054  0.0774
 6022W        W22156   9.564  18.501  14.482  0.1644 -0.0330 -0.2864
 6023W        W22157   9.451  14.684   1.790 -0.0443  0.1372 -0.3988
 6024W        W22158  16.536  18.725   1.014 -0.0742 -0.4181  0.2855
 6025W        W22159   7.028  14.125  14.641 -0.1122  0.1518 -0.3132
 6026W        W22160   1.327   7.266  11.903 -0.3384 -0.0932  0.0324
 6027W        W22161  10.883  10.015   1.050  0.0944  0.1348 -0.0919
 6028W        W22162  14.311  16.120   9.259 -0.1027 -0.2139  0.0877
 6029W        W22163   0.901  13.963   1.124  0.1022 -0.0050  0.0590
 6030W        W22164  16.161  17.426   1.718 -0.0978  0.1615 -0.0330
 6031W        W22165   6.177   0.890  13.060  0.1254  0.2410 -0.2639
 6032W        W22166  11.851   4.119  10.103 -0.0587 -0.0802 -0.0129
 6033W        W22167  19.239  12.349  12.413  0.0936  0.3033  0.0558
 6034W        W22168  17.484  18.515  14.211  0.1643  0.0715 -0.1365
 6035W        W22169   2.307  18.566   1.627  0.3213  0.2647  0.2128
 6036W        W22170   6.694   4.999   0.844  0.1151 -0.3620 -0.2284
 6037W        W22171   5.757   2.517  13.717 -0.1513 -0.1636  0.1200
 6038W        W22172   3.027  12.956   0.269  0.1127  0.0607 -0.0825
 6039W        W22173  18.592   4.964   0.375 -0.1773  0.0689 -0.0112
 6040W        W22174  11.209  18.818   1.542 -0.1923  0.0838  0.0388
 6041W        W22175   6.409  15.107   2.193 -0.3388 -0.0394 -0.0485
 6042W        W22176  10.280  16.184   0.678  0.1156 -0.1388  0.0059
 6043W        W22177   0.125   9.855  13.765  0.3440  0.2355 -0.2078
 6044W        W22178  19.062  10.013   3.905  0.0214 -0.0935 -0.0346
 6045W        W22179  15.438   8.692   0.441  0.0192  0.0574 -0.0555
 6046W        W22180   6.701   2.854  14.400  0.0902  0.1114 -0.0104
 6047W        W22181   6.407   2.104   0.050  0.0837  0.2455 -0.0226
 6048W        W22182  19.329  16.620  11.564  0.3318 -0.0649 -0.6083
 6049W        W22183   9.054   2.639  11.443 -0.0943 -0.1805  0.2290
 6050W        W22184   4.605  11.066   1.545  0.1498 -0.0302  0.0072
 6051W        W22185   6.778   4.597   2.423  0.1612  0.1649  0.0610
 6052W        W22186  15.261   9.933   4.742  0.1841  0.0888  0.2901
 6053W        W22187  16.650  10.837   4.997  0.0263  0.0743  0.1743
 6054W        W22188  12.477   7.566  13.412  0.0317 -0.1473 -0.2801
 6055W        W22189  17.691  11.224  14.414 -0.1174  0.0404  0.6108
 6056W        W22190  19.034   2.266  11.033  0.1219 -0.0064 -0.1058
 6057W        W22191   3.969  17.819   3.427 -0.2090 -0.3819 -0.1216
 6058W        W22192  16.644   0.516   0.602  0.0829  0.1980  0.1292
 6059W        W22193   6.354  18.665  14.957  0.0759  0.2566  0.2490
 6060W        W22194   8.049  18.595   5.438 -0.1858 -0.0495  0.0611
 6061W        W22195  14.941  10.621  13.286 -0.2466 -0.0252 -0.2226
 6062W        W22196  13.787  17.237  14.409 -0.2031 -0.0452  0.0715
 6063W        W22197   4.494  14.609   0.846 -0.1913 -0.0455  0.1221
 6064W        W22198  12.379   1.407  12.576 -0.1966 -0.2153  0.1895
 6065W        W22199  14.299  13.243   1.167  0.0113  0.1799  0.0929
 6066W        W22200   7.945   4.042   5.512 -0.3133  0.0859 -0.0556
 6067W        W22201   3.938   6.840  11.732 -0.0357  0.2763 -0.2642
 6068W        W22202   0.497   3.676   1.178  0.1485 -0.0717  0.1065
 6069W        W22203   0.592  18.595  12.588  0.0401  0.4815 -0.1239
 6070W        W22204   4.258   1.453  11.208 -0.2885  0.0851 -0.2142
 6071W        W22205  14.004  18.680  10.915  0.0015 -0.0895 -0.1218
 6072W        W22206  18.976  14.498   1.017  0.1455  0.2551 -0.2476
 6073W        W22207  16.944  16.398   4.217 -0.1431  0.0229 -0.2838
 6074W        W22208  16.404  12.497  12.677 -0.3276  0.0402 -0.1740
 6075W        W22209  14.792   2.216  13.002  0.0945 -0.2471  0.1190
 6076W        W22210  16.806   8.613   0.354 -0.0751 -0.0636 -0.1060
 6077W        W22211   4.978  16.392  11.127  0.2782 -0.0269 -0.3944
 6078W        W22212   7.418  13.946  12.662 -0.1504 -0.2715  0.1782
 6079W        W22213   0.602   8.595   2.858  0.1216 -0.2488 -0.1263
 6080W        W22214   3.802   4.023  13.372 -0.0334  0.3785  0.1791
 6081W        W22215   3.451  16.799  11.783 -0.0487 -0.0793 -0.0885
 6082W        W22216  16.061  16.045  12.631 -0.0990  0.0345  0.1890
 6083W        W22217   0.086   6.876   3.216 -0.0251  0.1117 -0.1461
 6084W        W22218  16.530   3.633   3.377 -0.4434 -0.1303  0.1569
 6085W        W22219  17.337  17.725  13.532 -0.0468 -0.0450  0.0459
 6086W        W22220  14.450  18.497  13.266 -0.0550 -0.0736 -0.1077
 6087W        W22221   7.240  10.204   0.580 -0.1513 -0.0493  0.0026
 6088W        W22222   2.935  13.677   3.525  0.4631  0.2063 -0.1565
 6089W        W22223   6.091   9.685   0.660 -0.0406  0.0111  0.1548
 6090W        W22224  13.605   3.825   3.189  0.1045  0.0110 -0.0765
 6091W        W22225  15.211   2.235  12.611  0.2398  0.0856  0.1835
 6092W        W22226  17.493   3.908  10.188  0.2190  0.1065 -0.2520
 6093W        W22227  13.590  13.800   3.309 -0.0521  0.1394  0.0431
 6094W        W22228   1.965  10.021   2.149  0.0685 -0.2133 -0.2027
 6095W        W22229   3.573   6.283   1.219  0.2808 -0.1473  0.0713
 6096W        W22230   1.457  16.228   1.547 -0.2514  0.0683  0.1180
 6097W        W22231  15.879  11.539  10.528  0.1072  0.1359  0.1103
 6098W        W22232  11.429   1.024  12.256  0.1296  0.2279 -0.1047
 6099W        W22233  14.337   3.775   2.251 -0.2388  0.0295  0.1682
 6100W        W22234  11.216  11.276   3.728  0.1450  0.4038  0.0771
 6101W        W22235   2.234  16.737   1.304  0.2406 -0.2414 -0.1085
 6102W        W22236  17.170   6.676  12.773  0.5966  0.2236 -0.1886
 6103W        W22237   8.047  15.542   2.106  0.0632  0.0648 -0.0877
 6104W        W22238   4.319  11.353  14.410 -0.0592  0.0130 -0.4059
 6105W        W22239   1.717  10.579  13.449  0.0750  0.0391  0.4127
 6106W        W22240   1.035  10.114  12.051  0.0803  0.1026 -0.1500
 6107W        W22241  13.238   4.303   0.680  0.2787 -0.0149 -0.0300
 6108W        W22242   6.523  17.427  14.343  0.1099 -0.1819  0.1219
 6109W        W22243   1.929   3.074  11.173  0.2685 -0.0978  0.2883
 6110W        W22244  16.272   1.402  10.819 -0.0093 -0.1046  0.1949
 6111W        W22245  17.559  10.656   0.254  0.1694  0.2435 -0.0381
 6112W        W22246  12.256  10.781  14.334 -0.2371 -0.0501 -0.0126
 6113W        W22247  11.937  15.054  14.504 -0.2725  0.1586 -0.0448
 6114W        W22248  12.321   3.785   0.028  0.1157 -0.0204  0.0938
 6115W        W22249  15.585   6.191   4.089 -0.1015  0.1505  0.0436
 6116W        W22250  17.872   9.191  13.823 -0.1959 -0.1018 -0.0497
 6117W        W22251  16.510   6.134  12.219 -0.1999  0.2770 -0.0904
 6118W        W22252   2.586   6.900  10.845 -0.1804 -0.3495 -0.2306
 6119W        W22253   3.313   0.541   0.725  0.4623  0.2608 -0.1451
 6120W        W22254  12.685  12.486   0.999 -0.1929 -0.2246  0.2827
 6121W        W22255   7.986   3.924  11.259  0.0375 -0.2951  0.2380
 6122W        W22256  11.009  17.906   0.808  0.1951 -0.0463 -0.2935
 6123W        W22257  10.613   9.716   3.546 -0.3348 -0.1873 -0.0486
 6124W        W22258  15.233   5.394   3.765 -0.2351  0.0578 -0.0168
 6125W        W22259  13.324   9.094  10.951  0.0687 -0.0948 -0.1152
 6126W        W22260   2.997   2.808  14.593 -0.0925  0.0109 -0.2308
 6127W        W22261  11.412  15.178   2.340  0.0190 -0.2611 -0.0778
 6128W        W22262   2.601  17.364  10.436 -0.3417  0.0639 -0.4079
 6129W        W22263  15.346   4.791  11.250  0.3554  0.2607  0.0431
 6130W        W22264  13.123  16.276   9.765  0.1414  0.1405 -0.2838
 6131W        W22265   6.296  12.272  14.938 -0.1378 -0.0259  0.0562
 6132W        W22266   2.758  19.220   1.986 -0.1902  0.0160  0.1078
 6133W        W22267  12.294   5.721   0.819  0.3792 -0.2802  0.0704
 6134W        W22268   4.604   0.639   0.789 -0.1730  0.0417  0.2773
 6135W        W22269  14.907   2.593   4.203  0.2884 -0.0804  0.3249
 6136W        W22270   9.688   3.550  13.958  0.1675  0.2236 -0.2297
 6137W        W22271  12.554   3.765   5.929  0.0683  0.0754  0.3974
 6138W        W22272   6.834  14.987   0.615  0.1168  0.1677 -0.2605
 6139W        W22273   5.777   8.023  11.584  0.0694  0.0676 -0.1059
 6140W        W22274  13.321  12.425  13.111 -0.2465 -0.1433  0.1050
 6141W        W22275  18.713   3.993  12.180  0.0414  0.1179 -0.0804
 6142W        W22276   2.365  16.278   2.538 -0.2181 -0.0038 -0.0951
 6143W        W22277  12.055   6.777  14.347 -0.6836  0.3245 -0.0847
 6144W        W22278   0.607  15.508  12.725 -0.1818 -0.0699  0.4674
 6145W        W22279   0.114  15.982  14.701  0.0396 -0.1133  0.1154
 6146W        W22280  12.966   0.361  14.445  0.0124  0.0302 -0.2236
 6147W        W22281  14.016  11.231   3.097  0.0117 -0.1604  0.0114
 6148W        W22282  17.466  19.109   0.969  0.1934 -0.0902  0.2743
 6149W        W22283   4.578   8.613  10.660 -0.0032 -0.1432 -0.0884
 6150W        W22284  14.822  17.418  12.113 -0.1323  0.1085  0.1418
 6151W        W22285   9.445   8.983  13.409  0.2553  0.0227  0.1179
 6152W        W22286   1.930  16.097   1.567  0.3808  0.3037  0.0445
 6153W        W22287   8.854  12.559  12.811  0.1450 -0.0515 -0.0849
 6154W        W22288  16.956  18.705  12.346 -0.2475 -0.1201  0.0974
 6155W        W22289   1.633   1.380   1.282  0.1732 -0.0250 -0.0788
 6156W        W22290   9.800  10.250   4.656  0.2691 -0.0481  0.0764
 6157W        W22291  14.916  10.323   1.324  0.1662 -0.0796  0.1641
 6158W        W22292   8.094   0.310  11.218 -0.2731  0.2263 -0.0565
 6159W        W22293  15.182   7.309  12.516 -0.0047 -0.2891 -0.2305
 6160W        W22294   7.730  16.923  10.555  0.0938 -0.1634 -0.3046
 6161W        W22295   3.776  11.665   2.072  0.0657 -0.0963  0.1081
 6162W        W22296   5.857   3.425  10.371  0.4149 -0.0965  0.1023
 6163W        W22297  15.965  14.717   3.240 -0.1502  0.0284  0.4274
 6164W        W22298  10.757  11.443   3.411  0.0493  0.1061  0.2300
 6165W        W22299   3.249   9.883  14.841  0.1367 -0.1734  0.1520
 6166W        W22300   2.627  18.643   4.764 -0.0926 -0.0058  0.2225
 6167W        W22301   8.937  10.692   2.608  0.0696 -0.3649 -0.3041
 6168W        W22302   4.297   1.548   4.960 -0.0720  0.0817  0.4004
 6169W        W22303  17.309  12.877   1.422  0.0262  0.2808 -0.1943
 6170W        W22304  19.230  17.606   3.813 -0.1667 -0.3072  0.2506
 6171W        W22305  18.850  16.465  11.405  0.1371  0.1685  0.0546
 6172W        W22306   6.873  13.211   0.161  0.2494  0.1804  0.0452
 6173W        W22307  18.620  14.780   4.499 -0.1735  0.2783  0.0909
 6174W        W22308   4.719   6.106   2.279  0.1107  0.2385 -0.1462
 6175W        W22309   5.887   4.301  12.721 -0.3144 -0.3005  0.1250
 6176W        W22310  12.403   0.190   4.639  0.1261  0.0756  0.0718
 6177W        W22311  17.244   1.736  14.261 -0.1572  0.2348 -0.3669
 6178W        W22312  17.184  13.622  13.289 -0.1659 -0.2192  0.0330
 6179W        W22313   9.710   6.412  14.610  0.0094  0.0567 -0.0759
 6180W        W22314   9.762  14.558   4.592 -0.0374  0.1144  0.0402
 6181W        W22315   9.945  17.136   1.052 -0.1403 -0.4956  0.0169
 6182W        W22316   9.296  12.456  14.555 -0.3206  0.0576  0.0315
 6183W        W22317  13.762  13.360   4.405 -0.1089 -0.0580 -0.0314
 6184W        W22318   3.847  10.042   3.167  0.0974  0.1616  0.3248
 6185W        W22319   2.293  15.739  10.031 -0.1878 -0.1018 -0.2050
 6186W        W22320   4.975  17.401  14.045  0.1743 -0.1775 -0.1753
 6187W        W22321  17.611  18.345   2.949 -0.0167  0.1816 -0.1982
 6188W        W22322  12.809  12.865  10.292  0.2443  0.0506 -0.1382
 6189W        W22323  10.523  10.289   0.206 -0.0519 -0.1887 -0.1472
 6190W        W22324  16.502   7.165   2.982 -0.1607  0.2459  0.0674
 6191W        W22325  12.058  11.285   5.424  0.1348  0.4101  0.1704
 6192W        W22326  10.322   7.906   1.723 -0.1295  0.1964 -0.1876
 6193W        W22327  15.203   5.472  10.636  0.2153 -0.0282  0.0346
 6194W        W22328   4.563  17.344   4.361  0.2862 -0.2169  0.2015
 6195W        W22329  17.212  15.127  11.735  0.1612  0.2802  0.0059
 6196W        W22330   7.365  17.949  11.087  0.0311 -0.4447  0.1718
 6197W        W22331  19.302   1.927   4.681 -0.1335  0.2490  0.2711
 6198W        W22332  14.749   9.118  12.639 -0.2272 -0.1040  0.1010
 6199W        W22333   8.124  17.998  12.002  0.0213 -0.1881 -0.0753
 6200W        W22334   5.450   4.982  14.092 -0.4024 -0.3880 -0.0467
 6201W        W22335  15.263   2.298   0.597 -0.1770 -0.1240 -0.0542
 6202W        W22336   0.296   9.404  13.609  0.1719  0.1871 -0.1680
 6203W        W22337  14.267  13.357   4.319  0.1777 -0.3100 -0.1600
 6204W        W22338  10.005   0.067   1.158 -0.1692 -0.0323 -0.0683
 6205W        W22339   0.220  12.826   2.044 -0.0861 -0.1893 -0.2268
 6206W        W22340  15.257  16.182  10.885 -0.0173  0.1075 -0.0532
 6207W        W22341   8.641  16.374   4.024  0.0187  0.1271  0.2635
 6208W        W22342   1.499  12.368   4.869  0.0667 -0.0556  0.0736
 6209W        W22343   5.406   2.147  10.613 -0.3518 -0.0344 -0.3968
 6210W        W22344   5.238  15.078   3.244  0.2967  0.2061 -0.2229
 6211W        W22345   0.237   6.152  10.641  0.0723 -0.3024  0.0122
 6212W        W22346   9.182   7.883   9.936  0.0159  0.1904  0.0718
 6213W        W22347   4.873   5.251   1.730 -0.2601 -0.1227  0.1762
 6214W        W22348   2.241   0.571   0.220 -0.1235 -0.3054  0.3200
 6215W        W22349   0.988  16.841  12.709 -0.1115  0.0880 -0.1292
 6216W        W22350  17.018   0.256   4.217 -0.0299 -0.1847  0.1214
 6217W        W22351  11.207  16.214   1.020  0.1586 -0.0940 -0.1514
 6218W        W22352  16.378   5.260   1.490  0.1244 -0.1763 -0.1036
 6219W        W22353   5.795   7.744   2.067  0.2157 -0.0497  0.0757
 6220W        W22354   4.439  14.987  10.573  0.2583 -0.0073 -0.4128
 6221W        W22355  19.306  18.591  14.384 -0.2903 -0.2309 -0.1770
 6222W        W22356  17.165  13.300   1.771  0.3587 -0.2785 -0.1728
 6223W        W22357  16.561   9.120   1.156 -0.0221 -0.1804  0.0581
 6224W        W22358   1.412   2.986  13.847 -0.1845 -0.1699  0.1112
 6225W        W22359  18.714   0.440   3.905 -0.0767 -0.3832  0.0824
 6226W        W22360   1.034   7.821   3.729  0.3924  0.1389 -0.1312
 6227W        W22361  12.296   2.144  13.217 -0.2577 -0.1712 -0.1149
 6228W        W22362   9.681  13.045   4.208 -0.3014 -0.2682 -0.1419
 6229W        W22363   5.169  14.451  13.314 -0.0612  0.3307  0.0792
 6230W        W22364   2.727   4.476  11.042 -0.1717 -0.1278  0.0134
 6231W        W22365   4.075  18.014  14.075 -0.0415  0.3441  0.1551
 6232W        W22366   7.605   7.207  10.722  0.2407  0.1656 -0.1565
 6233W        W22367  16.798   7.125   2.578 -0.0085 -0.3465  0.1626
 6234W        W22368  19.088  18.403  10.062 -0.0543 -0.0000 -0.4359
 6235W        W22369  13.012   1.660  14.262 -0.0741 -0.0964  0.0354
 6236W        W22370   7.174  19.231   0.806 -0.2910  0.2691  0.3246
 6237W        W22371   6.421   6.887   3.337  0.1807 -0.2036  0.1167
 6238W        W22372  16.378  18.213   3.501 -0.1388  0.0515  0.1353
 6239W        W22373   1.913   3.152  12.264  0.4315  0.2862 -0.2292
 6240W        W22374  16.028  13.220   1.332 -0.2952 -0.1301 -0.1361
 6241W        W22375   7.686  14.942   1.739 -0.1801 -0.1212  0.1621
 6242W        W22376  12.141  12.786  11.505 -0.2859 -0.0513  0.1232
 6243W        W22377  14.232   8.028  10.784 -0.2765  0.0008 -0.1189
 6244W        W22378   9.373   8.236  13.318  0.1528  0.0069  0.1904
 6245W        W22379   9.122   8.703   4.381 -0.4051 -0.3927  0.0846
 6246W        W22380   5.940  18.975   0.768  0.0865  0.1362 -0.0277
 6247W        W22381  16.493  12.706  12.214 -0.2846  0.0138  0.1184
 6248W        W22382  12.325  17.453   0.065  0.0240 -0.3438  0.1450
 6249W        W22383   3.108  18.486   3.411 -0.0213  0.1458 -0.0730
 6250W        W22384  16.399  11.961   1.637  0.0772  0.1513  0.2148
 6251W        W22385   2.116   6.549  12.680  0.1483  0.2857  0.2636
 6252W        W22386  11.475   4.284  14.002  0.2343 -0.3149 -0.1007
 6253W        W22387   5.737   2.643   3.320  0.4214  0.0033  0.0157
 6254W        W22388   6.942   3.368   2.186  0.0428 -0.1106 -0.0035
 6255W        W22389  18.883  12.978   3.493 -0.3556  0.2897  0.3192
 6256W        W22390   0.828   9.935   2.907  0.2169  0.0370 -0.0694
 6257W        W22391  18.483  17.613   1.582 -0.5131 -0.0734  0.1497
 6258W        W22392  12.404  16.724   1.431  0.0780 -0.1278  0.3084
 6259W        W22393   8.732  16.079   2.838 -0.0168 -0.0789  0.0536
 6260W        W22394  11.556   7.590   4.668 -0.0722  0.0818 -0.0203
 6261W        W22395   1.346  13.598  10.883  0.0169 -0.1001 -0.0441
 6262W        W22396   3.121  16.611  13.106 -0.0529  0.0793 -0.3720
 6263W        W22397  16.001  18.634  12.296 -0.2809 -0.1948 -0.0481
 6264W        W22398   7.828  11.642   1.594  0.2403  0.1615  0.0301
 6265W        W22399   6.215  14.590  10.463  0.0035  0.1360  0.1597
 6266W        W22400   8.876   9.628   1.749 -0.1908 -0.1501 -0.1651
 6267W        W22401   8.783  17.742   4.604 -0.4070 -0.1772  0.3074
 6268W        W22402  12.160  18.650   3.034 -0.0719 -0.0672 -0.0375
 6269W        W22403   0.732   1.858   0.994 -0.1010  0.0663 -0.2758
 6270W        W22404  17.420   8.309  14.041  0.0291  0.2054  0.1853
 6271W        W22405   9.580  13.210   3.173  0.0428  0.3447  0.2159
 6272W        W22406   0.912   5.222   2.211  0.0745  0.2356  0.3450
 6273W        W22407   7.948  17.286   3.046 -0.0007  0.1105 -0.0844
 6274W        W22408   3.608  15.246  10.503 -0.0967  0.2664  0.1686
 6275W        W22409   0.415  18.182   2.788  0.4994  0.1221  0.2652
 6276W        W22410   4.505   4.834   2.761 -0.3412 -0.2738  0.2236
 6277W        W22411  12.802  16.860   1.725  0.1197 -0.1846 -0.1071
 6278W        W22412   0.657   1.520   4.310  0.0454  0.0926 -0.0481
 6279W        W22413  12.887   7.323  14.700 -0.2772 -0.1040  0.0893
 6280W        W22414   7.927  16.453  13.798 -0.1839  0.2181  0.0427
 6281W        W22415  17.288   6.453  12.322  0.2062 -0.0115  0.1262
 6282W        W22416   3.625  14.348   3.346 -0.0375 -0.5256 -0.2770
 6283W        W22417   1.258  18.175   1.265 -0.2543 -0.2133  0.0072
 6284W        W22418   3.434  17.440  11.262 -0.1693  0.1979 -0.0668
 6285W        W22419   9.009  19.295   3.631 -0.6316 -0.2379  0.5802
 6286W        W22420  15.468   8.755  12.315  0.1313  0.3823  0.0787
 6287W        W22421  12.995   9.536   3.319 -0.0091 -0.0513  0.3940
 6288W        W22422   2.407  11.711   4.574  0.1795 -0.1893  0.0456
 6289W        W22423  16.818  14.433   0.045  0.0717  0.1899  0.0106
 6290W        W22424  15.371   9.755  13.138  0.2221  0.1391 -0.0151
 6291W        W22425   2.066  15.241  12.010 -0.0447  0.0377 -0.0588
 6292W        W22426   2.984   3.592   3.104  0.1759  0.0246 -0.3706
 6293W        W22427   8.804   0.828   1.787  0.1735 -0.0052  0.1517
 6294W        W22428  16.865  12.578  12.531 -0.1101  0.0993  0.1130
 6295W        W22429  13.018   3.081  12.612 -0.2191  0.0883 -0.0381
 6296W        W22430  13.805   3.457   0.284  0.2640 -0.3450  0.2227
 6297W        W22431   7.408   5.956   2.142 -0.1323 -0.3588  0.1184
 6298W        W22432   4.987  12.398   3.771  0.0710 -0.5468  0.2028
 6299W        W22433  18.893   3.465  13.072 -0.0547  0.2494 -0.2539
 6300W        W22434   2.133   5.732   0.477 -0.2579 -0.1352 -0.0516
 6301W        W22435  16.434   6.853   0.938 -0.2335 -0.1668 -0.1268
 6302W        W22436   9.745   4.301  11.550 -0.0491 -0.0215  0.2378
 6303W        W22437   0.230  15.580  14.981  0.2807  0.1707  0.2662
 6304W        W22438   7.621   4.122   3.787  0.0546 -0.1105 -0.0750
 6305W        W22439   5.467   7.601   9.962 -0.0120  0.1026  0.0920
 6306W        W22440   5.412   3.187  10.134  0.0760 -0.2781 -0.0245
 6307W        W22441  15.480   7.591  10.300 -0.0127  0.0074  0.1658
 6308W        W22442  10.731  15.155  13.818 -0.2286  0.0242  0.0537
 6309W        W22443   7.645  17.102   2.669  0.0434 -0.4279  0.0977
 6310W        W22444   5.443   1.387  12.413 -0.0701 -0.0488  0.2287
 6311W        W22445  12.593  18.906   1.180  0.0689 -0.0703  0.1420
 6312W        W22446  17.922   5.719   3.162  0.1696  0.1495 -0.0392
 6313W        W22447   8.915  14.205  10.951  0.2076 -0.1434  0.0439
 6314W        W22448   3.907   2.951  11.317  0.1539  0.1637  0.1832
 6315W        W22449   4.336  15.236  11.481 -0.3118 -0.3283  0.3664
 6316W        W22450   9.513   2.388   3.190  0.2356 -0.1604 -0.0589
 6317W        W22451  15.333  11.033  13.315  0.1789  0.3034  0.1857
 6318W        W22452  12.729  10.928  14.452  0.0607 -0.1402 -0.3082
 6319W        W22453   7.727  17.641   1.104 -0.1568 -0.0171 -0.1044
 6320W        W22454  16.319   6.012   9.334  0.0594  0.2293  0.0779
 6321W        W22455   5.131  12.190  11.843 -0.1002 -0.1845  0.2365
 6322W        W22456   2.399  10.335   9.648 -0.1436  0.1909  0.3886
 6323W        W22457   5.558  13.586   5.288 -0.1985 -0.0070  0.0866
 6324W        W22458  17.934  18.846   8.744  0.1148 -0.1257  0.1293
 6325W        W22459   8.853   9.303  10.815  0.2111 -0.0140  0.0037
 6326W        W22460  19.101  11.075   1.722 -0.1388 -0.3038  0.0353
 6327W        W22461  11.418   0.697  11.367 -0.3556  0.3631  0.1010
 6328W        W22462   5.380   4.906   2.321 -0.0531  0.2809  0.1234
 6329W        W22463   9.079  13.269   2.679  0.0726  0.2050 -0.3094
 6330W        W22464   1.237  14.669   3.035  0.0320 -0.1987  0.1360
 6331W        W22465   0.793  10.250   1.677 -0.1909  0.3116  0.0219
 6332W        W22466   2.144   6.481   2.480 -0.0637  0.1292  0.0916
 6333W        W22467  12.431   5.787  11.479  0.1328 -0.0781  0.1624
 6334W        W22468   8.365   5.446   4.359 -0.0800 -0.0433 -0.0047
 6335W        W22469   6.672  15.898   0.626 -0.0333  0.2612 -0.0134
 6336W        W22470   7.342   1.168  12.169 -0.0074  0.0522 -0.2685
 6337W        W22471   5.136  17.814  14.976 -0.1477 -0.0385  0.0957
 6338W        W22472  16.262   4.052   5.059 -0.2938  0.1705 -0.0186
 6339W        W22473  16.019   1.907  13.624  0.2017  0.0640  0.1084
 6340W        W22474   2.645   8.085   4.307 -0.3928 -0.0914  0.3106
 6341W        W22475   9.150  16.037  11.269 -0.1080  0.1671  0.0663
 6342W        W22476   5.039   5.929  13.610  0.0461  0.1087  0.1936
 6343W        W22477   9.224   0.756   0.303 -0.1502  0.0234  0.0459
 6344W        W22478  17.075   6.538  13.636  0.0873  0.0137  0.0251
 6345W        W22479  15.234  14.118  12.431  0.0107  0.3242  0.2678
 6346W        W22480  18.313   6.753   1.735  0.0679 -0.1064  0.0524
 6347W        W22481   5.886   6.020  12.956  0.2428 -0.4713 -0.5380
 6348W        W22482   4.688   2.076  14.584 -0.5094  0.1490  0.2596
 6349W        W22483  17.035   0.680  10.524 -0.1669 -0.3896 -0.0063
 6350W        W22484  11.055   2.810   4.811  0.2750 -0.0339  0.3481
 6351W        W22485   1.702   3.187   0.743  0.1231  0.0289 -0.0441
 6352W        W22486  13.636  10.739  12.632 -0.2418 -0.1476  0.0070
 6353W        W22487   0.896   1.552  10.766  0.0786 -0.1653  0.2640
 6354W        W22488   7.960   6.777   3.519  0.2980  0.0176 -0.0577
 6355W        W22489  14.110  14.785   5.296 -0.1421  0.1570  0.2269
 6356W        W22490   4.429   3.897   2.812 -0.1398 -0.0084  0.0981
 6357W        W22491   4.358   3.621   0.468 -0.0714 -0.1066 -0.0644
 6358W        W22492   8.212  16.326  11.172  0.0829  0.0173 -0.3722
 6359W        W22493   0.758  12.017   2.356 -0.2383 -0.1526  0.0086
 6360W        W22494  14.977   4.580   0.506 -0.0796 -0.0335  0.0366
 6361W        W22495   4.298  19.000  11.553 -0.1410 -0.2307  0.0301
 6362W        W22496  14.862  10.513  10.905  0.2651 -0.1823  0.1646
 6363W        W22497   8.419  12.842   2.717  0.2996  0.1788 -0.0847
 6364W        W22498  10.193   5.182   1.797 -0.0705  0.2799  0.1103
 6365W        W22499   7.904   5.320   3.896  0.2097  0.2124  0.1288
 6366W        W22500   3.362   1.278  11.785  0.2970  0.0211  0.3654
 6367W        W22501  14.852  14.104  14.931  0.3549 -0.1482 -0.0002
 6368W        W22502   2.138   7.865   5.303 -0.0866  0.0950  0.1309
 6369W        W22503  14.788   9.076  14.953  0.1781 -0.0973  0.0334
 6370W        W22504   7.695   4.937  12.028  0.1089  0.0373  0.2247
 6371W        W22505  11.666   8.534  12.505  0.3781  0.1247 -0.0138
 6372W        W22506   1.580  13.891   0.135 -0.0182 -0.2437  0.0179
 6373W        W22507  13.603  11.226   4.261 -0.1073  0.0893 -0.2678
 6374W        W22508   9.403  17.231   0.818 -0.0977  0.0643  0.1374
 6375W        W22509  15.713  12.783  14.893  0.0217  0.3596  0.1878
 6376W        W22510   2.671  18.731   0.686  0.0976 -0.0833  0.2312
 6377W        W22511  12.033   9.987  12.684  0.1870 -0.0588 -0.0083
 6378W        W22512   9.039  11.808  13.441  0.1606 -0.1677  0.3065
 6379W        W22513  18.212  13.961   4.057  0.0117  0.1649 -0.0811
 6380W        W22514  10.847   7.645   2.234  0.1915  0.1003 -0.0120
 6381W        W22515  10.830  15.878   2.356  0.0079 -0.1622  0.1761
 6382W        W22516  17.339  12.488   3.477  0.2455 -0.0392 -0.1782
 6383W        W22517  14.089   1.410   4.348  0.0916  0.1923  0.0306
 6384W        W22518  13.490  10.519   1.199  0.2330  0.0013  0.0864
 6385W        W22519  10.624  13.345  12.918 -0.0987 -0.2067 -0.4071
 6386W        W22520   8.372   3.678  13.597 -0.0854 -0.2740  0.2315
 6387W        W22521  12.503  19.245  12.338  0.1994 -0.0402  0.2981
 6388W        W22522   9.111  17.842  13.747  0.0367 -0.1408 -0.0226
 6389W        W22523  17.115   8.268   1.108  0.0054  0.0454 -0.2585
 6390W        W22524   7.187   2.556   5.833 -0.0165 -0.3459 -0.2007
 6391W        W22525   9.208   5.510   4.047 -0.2677  0.3428  0.0487
 6392W        W22526   5.831   9.742  14.624  0.2545  0.1272  0.1395
 6393W        W22527   7.302  10.089   1.086  0.1664 -0.2023 -0.2452
 6394W        W22528  12.257   4.230   0.229 -0.1985 -0.2719  0.0657
 6395W        W22529   7.019   2.051  12.925  0.1498 -0.1944 -0.0740
 6396W        W22530  17.881   0.657  11.360  0.1784 -0.0041  0.3839
 6397W        W22531  12.447   7.917   3.776 -0.0189  0.0002  0.0953
 6398W        W22532  10.804  10.760   1.564  0.0793  0.0955  0.0325
 6399W        W22533   3.904   3.132   3.554  0.2027 -0.1696  0.4253
 6400W        W22534   3.717   3.324  10.493 -0.1174 -0.2514 -0.4100
 6401W        W22535  15.699  18.810   2.640 -0.6222 -0.2282  0.1520
 6402W        W22536   5.438   3.814   3.005 -0.1456  0.2323  0.2072
 6403W        W22537  11.961   3.665  14.190  0.2007  0.1411 -0.0578
 6404W        W22538   8.366  12.154  14.573  0.1399 -0.3721  0.0055
 6405W        W22539  17.651   9.215   1.906  0.0874 -0.1820 -0.1083
 6406W        W22540   1.574   0.334   2.218 -0.3892  0.1090  0.2525
 6407W        W22541   1.960   3.731  11.317  0.2513  0.4118  0.2027
 6408W        W22542   0.950   3.714  11.657  0.1623  0.0857 -0.2568
 6409W        W22543   4.721  10.122   3.322  0.2882  0.3091  0.0593
 6410W        W22544   6.313   6.878  13.145  0.3187 -0.2144 -0.1902
 6411W        W22545   2.299   6.582   2.968 -0.2353  0.1947  0.1182
 6412W        W22546   4.444   7.434  12.450 -0.2105 -0.2556  0.3056
 6413W        W22547  12.521   2.219  13.663  0.2351 -0.1684  0.1606
 6414W        W22548   9.688  13.996  11.786  0.1994  0.0364  0.3398
 6415W        W22549  11.515  14.915   1.011  0.0515 -0.3317  0.0348
 6416W        W22550  11.418   6.637   4.813  0.1271  0.3488 -0.2315
 6417W        W22551   2.748  11.689   4.964  0.1962 -0.1453  0.1136
 6418W        W22552  11.168   9.365  10.794 -0.0078 -0.2492  0.3281
 6419W        W22553   8.614  13.135   3.890 -0.0134  0.2126 -0.0680
 6420W        W22554  13.848   2.413  12.393 -0.1149  0.1579  0.0099
 6421W        W22555   6.030  17.161  10.768 -0.4045  0.3644  0.1723
 6422W        W22556  15.354   2.635   4.257 -0.1479  0.3543  0.4808
 6423W        W22557   9.760  13.321   4.685  0.3174 -0.0123 -0.1491
 6424W        W22558  12.135  13.470   2.687 -0.1679  0.2098  0.1415
 6425W        W22559   3.812   1.110   2.565 -0.1318  0.1167 -0.0250
 6426W        W22560   3.150  13.215   3.780 -0.0504  0.1953  0.0798
 6427W        W22561  17.176  18.220   3.341 -0.0705 -0.1549  0.2765
 6428W        W22562   4.838  13.054   2.893  0.0293  0.1714  0.2867
 6429W        W22563  15.449  17.698   5.349 -0.0826 -0.0402  0.2095
 6430W        W22564  17.141   4.931  12.529  0.0456 -0.1454 -0.1476
 6431W        W22565  10.063  16.411   4.245 -0.1180 -0.1161  0.0190
 6432W        W22566  13.674  12.341  13.425 -0.2822 -0.2521 -0.2435
 6433W        W22567   5.298  12.487   5.222 -0.3361 -0.0313  0.1693
 6434W        W22568  12.285  16.439  13.667 -0.1783 -0.2285  0.1870
 6435W        W22569   2.262  13.763   5.237 -0.0291  0.0366 -0.3668
 6436W        W22570   5.613  10.134   2.972 -0.0237 -0.0082  0.1195
 6437W        W22571   0.597   0.033   3.113  0.1704  0.0640 -0.1007
 6438W        W22572   6.316  19.326  10.514  0.2666 -0.0186 -0.1075
 6439W        W22573   3.097   9.645   4.097  0.2094  0.0939 -0.0960
 6440W        W22574  12.357  10.117   5.034 -0.0986  0.1700  0.1668
 6441W        W22575   9.136   0.633   2.155 -0.0513 -0.0313 -0.2458
 6442W        W22576   7.591   4.554  14.328 -0.0392  0.1027 -0.3445
 6443W        W22577   2.808  16.690   0.105  0.1088 -0.2665 -0.3904
 6444W        W22578   4.369   9.472   1.087 -0.2611  0.1038  0.2117
 6445W        W22579  14.512  18.520   3.352 -0.0085  0.2267  0.2903
 6446W        W22580   9.902   0.024   0.645  0.3960  0.0350 -0.2664
 6447W        W22581  14.734   1.112   3.884  0.1634  0.2887  0.0072
 6448W        W22582  13.283   8.147  10.799 -0.0029  0.0776  0.1972
 6449W        W22583   2.076  10.548   3.685  0.4340 -0.0008 -0.1931
 6450W        W22584  12.001  18.648   1.796 -0.0697 -0.1349 -0.1389
 6451W        W22585   5.362   5.895   1.329 -0.3730  0.0174 -0.2623
 6452W        W22586  12.226   1.414   0.416  0.0633  0.0245 -0.0595
 6453W        W22587  19.114  15.000   1.165 -0.2088  0.0836  0.0209
 6454W        W22588   9.964   6.612  11.547 -0.3241 -0.1669  0.7074
 6455W        W22589  16.932  10.767   5.441  0.1208 -0.2358  0.0344
 6456W        W22590  15.375   2.059  13.587  0.0381  0.2320  0.4343
 6457W        W22591  18.069  13.021  11.446  0.0583 -0.1957  0.1632
 6458W        W22592   6.809   7.356  12.640  0.1669  0.0988 -0.5224
 6459W        W22593  10.320   6.501  12.393 -0.2231  0.1352  0.1203
 6460W        W22594   7.389  12.306   2.813 -0.1902  0.1212 -0.2228
 6461W        W22595  11.233   6.500  13.918 -0.3464 -0.1476 -0.3613
 6462W        W22596  10.644  14.435   4.860 -0.1916  0.1598  0.1432
 6463W        W22597   1.768  11.366  12.246 -0.1803 -0.0162  0.1058
 6464W        W22598   6.400   5.395   5.533 -0.1367 -0.0359 -0.4744
 6465W        W22599  16.794   6.176   2.534 -0.0651 -0.0256 -0.1240
 6466W        W22600   0.262   7.045   0.062 -0.3947  0.0250  0.0265
 6467W        W22601   7.304  15.339  12.705  0.1605 -0.1165  0.1713
 6468W        W22602  10.785  16.174  13.298 -0.0052 -0.5026 -0.2991
 6469W        W22603   0.717  17.364  13.004  0.0892 -0.0811  0.0142
 6470W        W22604   8.860   5.170  14.747  0.2835  0.0287  0.3272
 6471W        W22605  10.557  17.317   2.818  0.1310  0.1008 -0.1589
 6472W        W22606   9.233  14.966   3.972  0.0163  0.0388 -0.1059
 6473W        W22607  10.303  12.339   3.267  0.2126 -0.0528  0.0466
 6474W        W22608   0.717  18.462   9.809 -0.0275 -0.0931 -0.1121
 6475W        W22609   0.935  12.521  13.371  0.1074  0.1110  0.0802
 6476W        W22610  14.872  12.243  14.637  0.0913  0.0566  0.0254
 6477W        W22611   6.497   8.594  11.002  0.1182  0.0562  0.3645
 6478W        W22612   7.664  12.328   3.245  0.0224 -0.1587  0.1028
 6479W        W22613   3.290   2.218  14.194  0.3267 -0.1307  0.3168
 6480W        W22614   2.267   9.120  12.655 -0.1066 -0.2903 -0.0687
 6481W        W22615   2.104   6.886   0.170 -0.1990 -0.5915 -0.0354
 6482W        W22616  10.749  11.687   1.638  0.0440  0.2001 -0.1286
 6483W        W22617  14.830   8.485  13.165  0.0970  0.1696  0.0809
 6484W        W22618   5.361   1.153   4.315  0.5587  0.0727 -0.1706
 6485W        W22619  14.629  17.385  10.648  0.1759  0.2527  0.1667
 6486W        W22620   5.400   8.829   1.593 -0.2583  0.2520 -0.0430
 6487W        W22621   2.212   7.186  11.445 -0.1316  0.0281 -0.1606
 6488W        W22622  15.823   0.733   3.192  0.0727 -0.1145  0.0492
 6489W        W22623  19.252  14.947   1.728 -0.2015  0.1948 -0.3221
 6490W        W22624   1.916  12.781  14.376 -0.1857 -0.1349  0.1608
 6491W        W22625   9.152  16.542  11.148  0.2079  0.3441 -0.2116
 6492W        W22626   6.248   4.724  12.642 -0.0625 -0.4844  0.1457
 6493W        W22627   7.822   1.678   3.332 -0.1685  0.1223 -0.0253
 6494W        W22628   2.121  16.726  12.929  0.1476 -0.2710 -0.0857
 6495W        W22629   8.351  10.477   4.576 -0.0427 -0.2454 -0.2210
 6496W        W22630   3.305   1.725  10.062 -0.0096 -0.2779  0.2792
 6497W        W22631  10.121  11.491   1.716 -0.0821 -0.0018  0.0199
 6498W        W22632   6.401   7.115   4.382 -0.3606  0.1623 -0.1488
 6499W        W22633  11.997   8.230   0.264 -0.0854  0.0300 -0.0119
 6500W        W22634  10.548   8.922  12.407 -0.0484  0.2413 -0.1705
 6501W        W22635  11.321  19.166   2.516 -0.0737 -0.1893 -0.1647
 6502W        W22636   7.985  14.491  12.016 -0.0284  0.1909  0.1905
 6503W        W22637   0.371  13.898  14.345 -0.0231  0.0675  0.0593
 6504W        W22638   3.323  13.942   3.295  0.0622 -0.0397 -0.3885
 6505W        W22639  19.161   2.365   3.793 -0.1721 -0.1307 -0.0219
 6506W        W22640   9.316   6.309   4.599 -0.1207 -0.2063 -0.2019
 6507W        W22641   0.631   0.328   2.710 -0.1189 -0.0524 -0.0577
 6508W        W22642   7.019  15.789   4.434 -0.0260 -0.0819 -0.1139
 6509W        W22643  17.426   8.391   3.003  0.0050 -0.0841 -0.1106
 6510W        W22644  18.368  15.208   0.682 -0.3368 -0.0569 -0.2630
 6511W        W22645  10.599  16.816   3.559  0.0501  0.4977  0.2167
 6512W        W22646   1.526  10.606   0.664 -0.1079  0.1167  0.1842
 6513W        W22647   4.243  11.507   9.934 -0.1326 -0.4259  0.0256
 6514W        W22648   1.088   3.985  14.275 -0.1199 -0.0490  0.0583
 6515W        W22649   5.988  17.755  12.170 -0.0432 -0.1548  0.0649
 6516W        W22650  16.555   4.127  12.775 -0.1186 -0.2279 -0.1311
 6517W        W22651   0.283   4.034  10.970  0.3602 -0.0018 -0.1614
 6518W        W22652   5.228  16.744   3.885 -0.2392 -0.0324  0.0110
 6519W        W22653   3.637   1.887  12.719  0.2749 -0.0712  0.1953
 6520W        W22654   5.902  17.042  13.880 -0.3639  0.3802 -0.0868
 6521W        W22655  12.203  10.309  14.945  0.1706 -0.2080  0.2048
 6522W        W22656   9.427   6.419   0.483 -0.0071 -0.2297 -0.2501
 6523W        W22657   6.763  18.720  12.509 -0.0355 -0.0730  0.3304
 6524W        W22658   2.535   4.215  13.429  0.2443  0.1029 -0.0649
 6525W        W22659   5.259   9.467  10.329  0.0902  0.2125 -0.3112
 6526W        W22660   8.713   9.574   4.003  0.1023  0.2407 -0.2211
 6527W        W22661   9.746   5.972   3.741  0.2581 -0.0333 -0.0669
 6528W        W22662   1.222   8.319  14.260  0.0378  0.0850  0.3885
 6529W        W22663   0.925  11.554   2.284  0.0212 -0.0363  0.0560
 6530W        W22664  17.515   0.052   1.511 -0.2162 -0.0937 -0.2980
 6531W        W22665  15.195   6.166   3.290 -0.1545  0.0278  0.2023
 6532W        W22666   0.214   4.336   9.171 -0.2392 -0.1631 -0.1111
 6533W        W22667  15.343  12.594  12.893  0.0142 -0.0531 -0.0353
 6534W        W22668  12.158   1.579  12.127  0.2853  0.1340 -0.0488
 6535W        W22669   7.117   0.618   2.045 -0.1698  0.2261  0.1651
 6536W        W22670   8.050  11.064  11.109  0.1331 -0.0963  0.1897
 6537W        W22671   5.784  18.097  13.820  0.1423 -0.1676  0.0860
 6538W        W22672  15.726   3.460   2.207 -0.1990 -0.0625  0.4178
 6539W        W22673   6.562  15.017   1.023 -0.4481  0.1896  0.1001
 6540W        W22674  11.146   4.578   5.043 -0.0284  0.0540 -0.0767
 6541W        W22675   7.315  17.305  11.125  0.1892  0.1130 -0.1427
 6542W        W22676  10.790  10.631  14.876 -0.0973  0.2921 -0.0897
 6543W        W22677   8.185   7.910   2.616 -0.0653  0.1893  0.0274
 6544W        W22678  16.087   6.484   2.290  0.0935  0.1145  0.1776
 6545W        W22679   9.056   0.287  13.102 -0.2166  0.1993 -0.0012
 6546W        W22680  11.199   0.998  13.878  0.2277  0.3342  0.0250
 6547W        W22681  12.025   1.966  13.572 -0.1541  0.1337 -0.0694
 6548W        W22682   1.772   9.724  12.439 -0.4548 -0.0775 -0.0313
 6549W        W22683  16.768   6.857   0.302  0.3073  0.1324 -0.0856
 6550W        W22684  16.293  10.581  12.583  0.0503  0.0298  0.0386
 6551W        W22685   4.541   1.956  11.241 -0.0709 -0.1044 -0.1214
 6552W        W22686  18.399   9.942   4.044 -0.1117 -0.0473  0.0317
 6553W        W22687   8.393   1.204   0.147  0.0357  0.2504 -0.0459
 6554W        W22688  18.381  15.405   3.778  0.2833  0.0364  0.1307
 6555W        W22689   9.945  17.777  12.644 -0.0126 -0.0026 -0.0755
 6556W        W22690  14.605   6.623   1.991  0.1217 -0.5776  0.0738
 6557W        W22691   4.495  15.144  12.436 -0.0702 -0.2114  0.3245
 6558W        W22692  11.177   5.390   1.559  0.1199  0.1491  0.2119
 6559W        W22693  14.342  17.555   4.821  0.1165 -0.2030 -0.0701
 6560W        W22694  14.771   5.294   3.281 -0.2273  0.0466  0.0175
 6561W        W22695   3.610  18.966   9.764  0.2134  0.0604  0.0551
 6562W        W22696   5.892   5.203   1.089 -0.0254  0.2106 -0.0348
 6563W        W22697  10.351  18.625  11.963  0.3541  0.2147 -0.3802
 6564W        W22698   4.510  19.295   0.654 -0.0934  0.0463  0.1818
 6565W        W22699   7.111  11.764   0.262  0.1665 -0.0828  0.0935
 6566W        W22700   5.690   4.419  10.881  0.0266 -0.1404 -0.0724
 6567W        W22701   5.301   6.709   0.816 -0.0684  0.1295 -0.2588
 6568W        W22702   0.192   6.380   1.747 -0.1052  0.4090 -0.1269
 6569W        W22703   2.086  13.131  14.944  0.0753  0.1501 -0.0433
 6570W        W22704  16.057  16.526   1.404  0.0620 -0.0272  0.2415
 6571W        W22705   3.241   6.100   3.987 -0.0902 -0.2056 -0.0929
 6572W        W22706   5.335   2.275   3.508  0.2773  0.0452 -0.1610
 6573W        W22707   2.506   9.025   3.530 -0.2535 -0.4228 -0.1125
 6574W        W22708  15.829  13.960  12.387 -0.0248 -0.2637 -0.3290
 6575W        W22709  15.576  14.643  11.806 -0.3612 -0.4790  0.1812
 6576W        W22710   5.795   1.997   4.330  0.2229 -0.2462  0.0334
 6577W        W22711   1.108  17.701  12.403 -0.3857  0.1328  0.1759
 6578W        W22712   4.745  15.318   5.329  0.2276 -0.0833  0.2015
 6579W        W22713   3.462   2.333  12.474  0.0379 -0.0171 -0.1600
 6580W        W22714   0.100  16.679  10.181 -0.1384 -0.0705  0.1183
 6581W        W22715  13.138  14.922   9.988 -0.2624 -0.0269  0.1429
 6582W        W22716   6.885  18.974   9.642 -0.3830 -0.0468 -0.1316
 6583W        W22717   4.155  17.719   4.334 -0.0335 -0.1343  0.3677
 6584W        W22718  14.928  17.816   5.332  0.3311 -0.2859 -0.2475
 6585W        W22719  10.950  18.676  13.546 -0.0713 -0.0338  0.1600
 6586W        W22720   9.036  12.190  11.460 -0.0848  0.0007  0.0591
 6587W        W22721   5.641  15.419   4.248  0.0236 -0.0339 -0.0516
 6588W        W22722  18.846   8.822  11.035  0.0789 -0.0718  0.0965
 6589W        W22723  10.081   6.141   0.983  0.0761 -0.2837 -0.1738
 6590W        W22724  14.321   7.581   4.248  0.0613 -0.0508  0.2996
 6591W        W22725  16.408   9.045   4.004 -0.2365 -0.2100 -0.0956
 6592W        W22726   4.602   4.128   0.460 -0.2016 -0.0816  0.3963
 6593W        W22727  12.035   2.987   0.283  0.0507  0.0211  0.2115
 6594W        W22728  13.515  16.100  14.845  0.1409  0.1916 -0.0597
 6595W        W22729  18.924   8.103  10.523  0.1644 -0.1454 -0.2100
 6596W        W22730   3.884  15.759  13.151  0.2893 -0.0157 -0.4347
 6597W        W22731   3.651  18.807   0.520 -0.0839 -0.1400 -0.0300
 6598W        W22732  15.177   1.772  10.784 -0.0480  0.2556 -0.1119
 6599W        W22733   6.486  17.596   3.530  0.5071  0.2371 -0.1079
 6600W        W22734   9.009   6.893   4.968  0.1899 -0.2119 -0.1022
 6601W        W22735  19.195   2.535   0.919  0.3780  0.0976  0.0281
 6602W        W22736  12.037   3.435  10.769 -0.2474  0.0355 -0.1834
 6603W        W22737  17.484  13.503  14.796  0.0911 -0.2091 -0.0587
 6604W        W22738  18.927   6.218   1.375 -0.0439  0.0282 -0.0668
 6605W        W22739  14.002  16.721  14.426 -0.1943  0.0352 -0.0763
 6606W        W22740  12.413   3.883  13.661  0.1755 -0.4333 -0.2225
 6607W        W22741   8.837   1.041   0.459  0.2438  0.0659 -0.1908
 6608W        W22742   5.594  18.195  11.624 -0.0652 -0.1166  0.1252
 6609W        W22743  16.889  17.861  14.875  0.4455 -0.0276 -0.0947
 6610W        W22744   8.888   8.293  14.413  0.3581 -0.3132  0.2285
 6611W        W22745   4.625  10.996   1.061 -0.0697 -0.2438  0.0275
 6612W        W22746  10.748   2.934  13.440  0.1893  0.1207 -0.2077
 6613W        W22747  13.096  14.672  14.052  0.0010 -0.0292 -0.0428
 6614W        W22748   3.401   7.750   2.619 -0.1199 -0.2256 -0.0413
 6615W        W22749   0.528   3.259   2.529  0.1190  0.1809 -0.1675
 6616W        W22750  11.842  15.640   1.488 -0.0374  0.2968 -0.2796
 6617W        W22751   7.656   7.177   4.380 -0.0731 -0.3243 -0.1968
 6618W        W22752  12.281   7.474  11.786 -0.0412  0.3849  0.0843
 6619W        W22753   2.521   6.485  10.545 -0.0435 -0.2835  0.2987
 6620W        W22754  18.650  18.969   1.223  0.2761 -0.0118 -0.0255
 6621W        W22755   4.631  17.297   0.013  0.1422 -0.0997  0.0160
 6622W        W22756  13.555   8.944  14.249  0.0232 -0.1478  0.2126
 6623W        W22757  10.452  12.943  11.054  0.0253 -0.2597 -0.2485
 6624W        W22758  15.485  12.706   2.924  0.1888  0.0122 -0.2088
 6625W        W22759   7.275   1.901   0.656 -0.2639 -0.2449 -0.0354
 6626W        W22760   0.427  12.535   2.496  0.1647 -0.3403  0.2023
 6627W        W22761   3.821   2.998   2.716 -0.1998 -0.0348 -0.0262
 6628W        W22762   5.358   6.895  14.555  0.1584  0.0362  0.0849
 6629W        W22763  13.897  15.845  11.294 -0.1155 -0.0680 -0.3726
 6630W        W22764   5.981  12.222   0.323 -0.1534  0.0235  0.2629
 6631W        W22765  15.439  13.093   0.547 -0.2724 -0.3062  0.3354
 6632W        W22766   6.431   7.468  14.049  0.0519 -0.3004  0.2855
 6633W        W22767   4.183   1.819   2.791  0.0051 -0.2567  0.0174
 6634W        W22768   5.818  14.023  11.615  0.0276  0.0078  0.0901
 6635W        W22769  13.976  15.213   9.591  0.1150 -0.0789  0.1619
 6636W        W22770   1.802  18.831   1.131 -0.3839  0.2010  0.1911
 6637W        W22771  17.550  17.000   3.821  0.2118  0.1495  0.1084
 6638W        W22772  17.630   1.051   0.561  0.0263 -0.1270 -0.0732
 6639W        W22773   3.971   8.050   3.962  0.0195 -0.3083 -0.1235
 6640W        W22774   2.568   4.735  14.205 -0.1580  0.0223 -0.0334
 6641W        W22775  16.013  14.769   1.606  0.0316 -0.0822 -0.0142
 6642W        W22776  14.362  13.688   0.222  0.0519 -0.0167 -0.2573
 6643W        W22777  17.523  11.168   5.418 -0.2975 -0.0503 -0.4387
 6644W        W22778  17.583   4.746  11.529 -0.1299  0.1372 -0.0689
 6645W        W22779  17.518  12.247  11.613  0.3331  0.0529 -0.3249
 6646W        W22780   2.526   2.676   0.875 -0.0372 -0.1771  0.3740
 6647W        W22781   5.429  13.202  12.735  0.0642  0.1076 -0.4888
 6648W        W22782  17.303  15.409  12.845  0.1041 -0.1754  0.0456
 6649W        W22783  11.849   2.236   2.979  0.1474  0.0781  0.1252
 6650W        W22784   1.097  14.171  13.675  0.1058  0.4832  0.0563
 6651W        W22785  11.915   7.365  14.923 -0.1477  0.0183 -0.1378
 6652W        W22786   2.690   8.328  14.165 -0.0625  0.2182 -0.1263
 6653W        W22787   2.363  11.382   4.175  0.1475  0.0377  0.2016
 6654W        W22788   1.345  14.068  13.294  0.1306  0.1116  0.3047
 6655W        W22789  18.719   5.155  12.385  0.0008 -0.1215  0.1056
 6656W        W22790  10.754   8.772   1.823 -0.1258  0.3706  0.2583
 6657W        W22791  17.224   2.404   3.198  0.0091  0.1140 -0.3409
 6658W        W22792  13.193  14.149  14.325 -0.3284  0.0384  0.2553
 6659W        W22793  12.609  10.060   4.544 -0.0372  0.0832  0.1229
 6660W        W22794  12.287  13.579   0.849  0.0686 -0.0045  0.0544
 6661W        W22795  10.689  13.112   0.466  0.0524 -0.1198  0.3747
 6662W        W22796   4.322  16.635   0.611 -0.1501 -0.0613  0.0959
 6663W        W22797   3.571  10.675   2.106  0.0024  0.2029 -0.0538
 6664W        W22798   9.235  16.347   3.828 -0.0363 -0.1324  0.1500
 6665W        W22799  13.628   2.353   3.798  0.0424  0.3009 -0.0267
 6666W        W22800   9.653   4.531   2.510 -0.1027 -0.1381 -0.1566
 6667W        W22801  18.831  15.179  10.552 -0.1082  0.0557 -0.1254
 6668W        W22802  12.514  14.240   1.228 -0.4373  0.1889  0.0793
 6669W        W22803   2.563   4.786   2.056  0.0165  0.1023  0.1907
 6670W        W22804   9.390   1.223  11.357 -0.1846 -0.1718  0.1049
 6671W        W22805   8.646   1.637   2.150 -0.1265 -0.0970 -0.0568
 6672W        W22806  15.776   5.700  14.176  0.2021  0.0625  0.0209
 6673W        W22807  17.708   0.879  10.968 -0.1542 -0.2272  0.0378
 6674W        W22808   3.712   9.581  11.873 -0.4229  0.1230  0.2948
 6675W        W22809   1.216   7.015   2.116 -0.1470 -0.3740  0.2942
 6676W        W22810   8.170  12.160   3.205  0.0020 -0.0972 -0.4031
 6677W        W22811  14.250   9.191   3.089  0.1035  0.0795 -0.2232
 6678W        W22812  17.735   3.240  12.754  0.3468 -0.0579  0.0498
 6679W        W22813   1.420  14.671  12.982 -0.3107  0.0828  0.1762
 6680W        W22814   0.677   8.823   1.658  0.1892 -0.1330 -0.1796
 6681W        W22815  12.026   3.578   1.064 -0.1656  0.1442  0.0261
 6682W        W22816   2.151   4.798   2.438  0.1278 -0.0006  0.1550
 6683W        W22817  10.070  15.075   3.308 -0.2946 -0.1066 -0.0890
 6684W        W22818  15.064   0.300   3.890 -0.1968 -0.0228 -0.1635
 6685W        W22819   0.694   0.748  11.249 -0.0260  0.0238 -0.1376
 6686W        W22820  17.495   3.240  10.104 -0.1370 -0.1672  0.0823
 6687W        W22821  15.871  16.405   0.800  0.2146  0.1304  0.0310
 6688W        W22822   3.847  16.894   1.435  0.1745 -0.2105 -0.1583
 6689W        W22823   1.313   5.202  10.972 -0.0259  0.2769  0.0350
 6690W        W22824  16.498   0.411   3.354 -0.2762 -0.3821 -0.1396
 6691W        W22825  19.249   1.400  14.577  0.0886 -0.0174  0.0208
 6692W        W22826   3.710   2.278  11.159  0.2510 -0.3899  0.3637
 6693W        W22827  11.835  17.171   2.194 -0.0385  0.1812  0.0774
 6694W        W22828  17.595  13.132  13.984  0.3239 -0.0342  0.1045
 6695W        W22829   0.948  17.931   2.962 -0.0748  0.4036 -0.1608
 6696W        W22830  12.867  16.645   2.404 -0.1228 -0.1546 -0.0626
 6697W        W22831  18.190  10.256  12.525 -0.0399 -0.1382 -0.1622
 6698W        W22832  16.285  14.188  13.048 -0.4900  0.0856 -0.1661
 6699W        W22833  11.342   7.827   2.238 -0.1872  0.0423  0.0222
 6700W        W22834   8.101  15.649  13.798  0.2224 -0.0831 -0.1321
 6701W        W22835  17.704  14.488   4.195  0.5513  0.0254 -0.1879
 6702W        W22836   5.551  15.535   5.095  0.0261  0.0567  0.1591
 6703W        W22837   5.955   1.907   2.662 -0.2833 -0.1115  0.2111
 6704W        W22838   2.577  12.034  11.149  0.0863 -0.3490  0.0009
 6705W        W22839   0.832  10.899   4.519 -0.3541  0.3926  0.0752
 6706W        W22840   6.530   6.204   9.411  0.0401  0.1475 -0.2385
 6707W        W22841   7.027  10.950   1.070  0.0680  0.1497  0.1958
 6708W        W22842  11.341  10.423  13.890 -0.0254 -0.0115 -0.2360
 6709W        W22843  10.331  16.117  14.650 -0.2060  0.4715  0.3270
 6710W        W22844  16.842   8.513  14.720 -0.2626  0.1353  0.0572
 6711W        W22845  13.483   0.668   1.182 -0.0809  0.3253  0.0695
 6712W        W22846   4.693  15.788   0.228 -0.0005 -0.0651  0.0087
 6713W        W22847   7.443   0.142   4.449 -0.1127  0.2982 -0.1226
 6714W        W22848  17.396   8.684   1.320 -0.4684 -0.0093 -0.0572
 6715W        W22849  12.968  14.181  10.617  0.2087  0.0292 -0.1904
 6716W        W22850  15.562  18.584  11.114  0.2419 -0.3079 -0.2160
 6717W        W22851   0.689  13.403  13.651  0.2269  0.1966 -0.0686
 6718W        W22852  10.740  15.122   1.984 -0.0244 -0.4876  0.3390
 6719W        W22853   9.942  12.596   0.946 -0.0857 -0.0080  0.0310
 6720W        W22854  13.005   3.111  11.709 -0.0047 -0.1711  0.0611
 6721W        W22855   2.284   7.135  13.595 -0.1585  0.1289 -0.0843
 6722W        W22856   9.080  13.787  12.164 -0.1224 -0.4896  0.0646
 6723W        W22857   0.604  14.327   1.922 -0.1756  0.2720  0.2948
 6724W        W22858  10.696   6.710  13.132  0.0713  0.1010 -0.0947
 6725W        W22859  16.543  14.981   0.897 -0.1969  0.4046 -0.0960
 6726W        W22860  13.279   7.051  14.848 -0.3530 -0.0097  0.4065
 6727W        W22861  15.974   8.005   5.281  0.0035  0.0104 -0.1421
 6728W        W22862   1.322   3.173  11.097 -0.3123 -0.0507  0.3162
 6729W        W22863   6.512   5.527  11.829  0.0784  0.2053  0.0396
 6730W        W22864   8.688   5.283   3.050 -0.0690 -0.0917  0.4888
 6731W        W22865   6.807   5.523   4.301 -0.2444 -0.1008 -0.1872
 6732W        W22866   5.649   4.426   3.267 -0.0643 -0.3747 -0.2151
 6733W        W22867  13.983   2.434  13.626 -0.1534 -0.0765 -0.0499
 6734W        W22868   9.971  10.536   4.992  0.1725 -0.3741  0.0597
 6735W        W22869  12.120   7.777  11.348 -0.1566  0.1297 -0.1116
 6736W        W22870  15.781  14.849  10.646  0.0878  0.0134  0.1642
 6737W        W22871   6.922   2.945   3.468 -0.1977  0.1664 -0.0865
 6738W        W22872   0.008  18.696  13.384  0.0934  0.0280 -0.0395
 6739W        W22873   1.644   2.573   2.472  0.1054 -0.0450 -0.0214
 6740W        W22874   6.896  18.554  10.600  0.0341 -0.1403 -0.0991
 6741W        W22875   1.759   8.254  13.088 -0.0366 -0.0444  0.0509
 6742W        W22876   9.726  16.446   4.642  0.0834  0.1372  0.1689
 6743W        W22877   1.641   2.711   5.052 -0.1988 -0.1708  0.0854
 6744W        W22878  10.334   2.684  11.409 -0.0756  0.2050 -0.1706
 6745W        W22879  13.248   2.809   1.701  0.2032 -0.0811 -0.2138
 6746W        W22880   1.845   6.281  11.485 -0.0652  0.2300 -0.2118
 6747W        W22881   7.678  16.216   2.747 -0.0367  0.0747 -0.0412
 6748W        W22882   1.403  14.971  10.860 -0.0049 -0.1874 -0.3261
 6749W        W22883  15.058  16.652   4.076 -0.3913  0.0484 -0.0858
 6750W        W22884  12.391   5.836   1.289  0.1062  0.0007 -0.1908
 6751W        W22885   9.791   2.227   5.061 -0.1767  0.3495  0.2637
 6752W        W22886   0.947  15.986  10.081  0.1609  0.1673  0.0690
 6753W        W22887  18.488  10.705  12.396  0.0975 -0.1662  0.2494
 6754W        W22888   9.097  10.083   1.441  0.2147 -0.3050 -0.5671
 6755W        W22889  11.997   9.108   2.070  0.0988 -0.1015 -0.1407
 6756W        W22890   5.691  11.451  13.362 -0.2041  0.1265  0.0554
 6757W        W22891  14.029  17.236   2.323 -0.2270 -0.0975 -0.0166
 6758W        W22892   1.890  13.726   2.172  0.0752 -0.2432  0.0003
 6759W        W22893   0.801   0.358  12.207  0.0120 -0.0677  0.3830
 6760W        W22894  14.647  14.658   3.024  0.0544 -0.2752  0.3547
 6761W        W22895  10.093  17.491  11.945  0.1302 -0.1715 -0.1418
 6762W        W22896  17.474  18.551   0.338  0.1624 -0.0977  0.5461
 6763W        W22897  14.333   9.394  12.904 -0.2519  0.2314 -0.1063
 6764W        W22898  16.962   2.296  13.602  0.0616 -0.2982  0.1508
 6765W        W22899   7.757  11.471   4.363  0.1158 -0.1356  0.3144
 6766W        W22900   6.165   1.350   3.760 -0.1099  0.0184 -0.0046
 6767W        W22901   8.467   3.292   2.590  0.0802  0.1744 -0.0046
 6768W        W22902  17.485  18.445   1.278 -0.0634  0.0907  0.0641
 6769W        W22903  19.278   9.338   0.190 -0.2849 -0.2823 -0.0738
 6770W        W22904  17.976   6.116   1.339 -0.1361  0.3510  0.0288
 6771W        W22905  18.157  15.957   3.346 -0.0791 -0.0559 -0.2911
 6772W        W22906  14.637   5.313  13.680  0.0205 -0.2224  0.0397
 6773W        W22907  13.161   8.006   0.263  0.0669  0.0780 -0.0346
 6774W        W22908  18.185   4.168  10.805 -0.1652  0.2208 -0.0078
 6775W        W22909   0.119   5.047   1.829  0.1394  0.2920  0.1041
 6776W        W22910   1.452   7.945  12.914  0.1416 -0.2634 -0.2671
 6777W        W22911  18.486  17.615  14.430 -0.2184  0.0068 -0.2770
 6778W        W22912   7.440   9.054   4.507 -0.3279  0.1374 -0.1501
 6779W        W22913   1.068  13.303   4.551 -0.1776  0.0028  0.2892
 6780W        W22914  16.213  15.213  13.685 -0.0655  0.1368 -0.2959
 6781W        W22915   3.843   6.692  13.124 -0.2586  0.4201 -0.0603
 6782W        W22916   1.029   9.769   0.487 -0.2716 -0.1588 -0.2227
 6783W        W22917  14.164   4.632   3.760 -0.2506 -0.0702  0.3676
 6784W        W22918  14.957   5.138   2.089 -0.1217 -0.0588 -0.1764
 6785W        W22919   9.879   1.206   2.923  0.2460  0.1658 -0.0461
 6786W        W22920   1.639  17.794   0.850 -0.1794 -0.1791  0.2249
 6787W        W22921  11.470  17.601   4.292  0.1309 -0.0286  0.4063
 6788W        W22922   5.145  18.955  13.362 -0.0328  0.0629  0.4114
 6789W        W22923  14.122   6.208   4.138 -0.1626 -0.1516  0.1049
 6790W        W22924   9.240   9.243  10.406  0.2303  0.0168 -0.0753
 6791W        W22925   3.193   2.706   3.866  0.1671 -0.3633 -0.1102
 6792W        W22926  14.144   9.613   2.269 -0.3647 -0.2813 -0.0590
 6793W        W22927  10.138   1.796   4.312 -0.1517 -0.2965  0.1873
 6794W        W22928  18.919  18.359   0.088  0.1656  0.2479  0.0372
 6795W        W22929  15.311  17.649   0.696 -0.2530  0.2899  0.0977
 6796W        W22930   9.105  17.812  12.971  0.0194 -0.0333  0.2603
 6797W        W22931  17.783   3.923  11.460  0.0034  0.2534 -0.0792
 6798W        W22932   4.743  15.949  10.870 -0.2759 -0.0338  0.3099
 6799W        W22933  15.626   2.337   1.982 -0.1676 -0.2137  0.0794
 6800W        W22934   8.604   8.604  12.103 -0.0690 -0.4254  0.0128
 6801W        W22935   3.632   0.106   0.946 -0.1286  0.0134 -0.1510
 6802W        W22936  15.808   3.230   3.924  0.2569  0.2089  0.0113
 6803W        W22937   4.787  10.602   3.032 -0.1318  0.2777 -0.1291
 6804W        W22938   6.655  14.713   3.061  0.1403 -0.2259  0.2394
 6805W        W22939  17.846   3.753   4.690 -0.1154 -0.1715 -0.0569
 6806W        W22940  11.715  11.591   1.247  0.3794  0.3332 -0.0583
 6807W        W22941   8.686   1.021   4.292  0.0762 -0.0560 -0.1112
 6808W        W22942  12.228  17.329   5.499  0.1258  0.0413 -0.2026
 6809W        W22943  10.000   5.492  12.289  0.3327  0.1104 -0.3539
 6810W        W22944  14.591   3.962  13.856 -0.1385  0.2264  0.0363
 6811W        W22945   1.157   1.840   0.746 -0.2285 -0.1084 -0.3325
 6812W        W22946  16.957   9.972  14.387  0.1083  0.1822  0.0400
 6813W        W22947   0.262  15.741   0.538 -0.1553 -0.2665  0.0347
 6814W        W22948   7.364  12.888   4.291 -0.1634 -0.0929 -0.0019
 6815W        W22949  18.379   3.786   0.481  0.0178 -0.4020 -0.1180
 6816W        W22950  17.544   7.455  12.404 -0.1557  0.0871  0.5121
 6817W        W22951  12.723   0.031   1.112 -0.1435 -0.0550  0.1096
 6818W        W22952   4.246  12.315   1.107  0.1121  0.0215  0.3650
 6819W        W22953   9.603  18.860  11.767 -0.1278 -0.4280  0.2218
 6820W        W22954   6.970   7.395  11.149  0.1652 -0.0022  0.2603
 6821W        W22955   3.523  13.060   4.609  0.2822  0.1348 -0.1790
 6822W        W22956   2.591  13.520   9.377 -0.0642  0.1115 -0.0445
 6823W        W22957  13.947  17.575  12.374 -0.0474  0.2189  0.1293
 6824W        W22958  14.694  14.781  14.150  0.1431 -0.0455  0.2304
 6825W        W22959   1.816   2.338  12.919  0.1242  0.0266 -0.2322
 6826W        W22960   6.448   2.265   0.544  0.1841  0.1713  0.1498
 6827W        W22961   9.988   8.964  12.739  0.1205  0.0188 -0.0527
 6828W        W22962   8.547  17.444  14.987 -0.0206  0.0116 -0.2183
 6829W        W22963   8.773   2.681  11.880 -0.2314  0.1468 -0.0571
 6830W        W22964   6.936  16.057   4.870  0.0933 -0.2313  0.1183
 6831W        W22965   8.158   0.496   4.933 -0.0321  0.2604 -0.2149
 6832W        W22966   4.819   7.007  14.464  0.0381  0.2354 -0.4666
 6833W        W22967  14.584   9.187  10.862  0.3389 -0.4454 -0.1268
 6834W        W22968   5.699   2.502  14.223  0.1518 -0.1550  0.0786
 6835W        W22969   3.567   6.156  10.176 -0.2100 -0.0456 -0.1912
 6836W        W22970  17.223   1.016  10.030 -0.1565  0.3661 -0.0718
 6837W        W22971   0.664  11.897  13.066 -0.2519 -0.0966 -0.2298
 6838W        W22972   7.338   9.990  11.654  0.0114  0.0080 -0.0395
 6839W        W22973  19.059   3.795  14.270  0.2032  0.3111 -0.3065
 6840W        W22974   1.618  11.685   2.135  0.1700 -0.0066 -0.0692
 6841W        W22975  11.422   5.798   1.364  0.0062 -0.1338 -0.0518
 6842W        W22976  12.742  11.446   4.356 -0.0759 -0.0517  0.2904
 6843W        W22977   6.287  12.951  13.854 -0.1642  0.3548  0.0393
 6844W        W22978  13.704   6.658  13.489 -0.1455  0.2864  0.1147
 6845W        W22979   4.863  10.918  14.960  0.0411 -0.2074  0.0268
 6846W        W22980   1.458  12.131   3.629 -0.1972  0.1312 -0.1337
 6847W        W22981  12.232   5.790  13.040 -0.2003  0.0713  0.3750
 6848W        W22982  18.893  16.290  13.553  0.5027  0.2534  0.1902
 6849W        W22983  14.229   3.342   3.981  0.3415 -0.1447 -0.2711
 6850W        W22984   0.875   2.299   0.746  0.1321 -0.0826  0.1365
 6851W        W22985  10.124   8.079  10.326  0.0086  0.1038  0.0574
 6852W        W22986   1.806  11.951   0.327 -0.0096 -0.0460 -0.1698
 6853W        W22987   7.254  15.052   1.453 -0.2324 -0.0423 -0.0874
 6854W        W22988   0.647   4.287  13.898  0.2371 -0.2079  0.0188
 6855W        W22989   7.014   9.732   0.588 -0.1665 -0.2158  0.1947
 6856W        W22990   4.810   3.136   4.669 -0.0885 -0.3917  0.0940
 6857W        W22991  17.755  16.774  10.289  0.2138 -0.1419 -0.0016
 6858W        W22992  13.731   1.323   1.058  0.0760 -0.0423 -0.2136
 6859W        W22993  15.511   6.967   0.062  0.0665  0.0047  0.0711
 6860W        W22994   6.804  15.249  12.596 -0.0422 -0.1466  0.2298
 6861W        W22995   3.487  12.343  11.463  0.2200  0.1259  0.1768
 6862W        W22996   2.388  11.469  13.090 -0.3780 -0.1760  0.0337
 6863W        W22997   5.763  13.578  12.644  0.1902  0.1509 -0.2632
 6864W        W22998  14.604  11.340  12.528 -0.0503  0.2538  0.2936
 6865W        W22999  14.268  18.226   1.630 -0.1402  0.2350  0.3764
 6866W        W23000  11.967   9.404  11.752  0.1282 -0.0454 -0.1137
 6867W        W23001   5.653  18.475   4.815 -0.0252 -0.2868 -0.3477
 6868W        W23002  15.314  16.443   3.112 -0.1810  0.1337  0.1936
 6869W        W23003   5.376   2.229   0.374  0.1856 -0.0229 -0.5173
 6870W        W23004   5.914  17.362   1.457 -0.2950 -0.1882 -0.2855
 6871W        W23005  11.668  17.404   3.837 -0.0395  0.1614 -0.0515
 6872W        W23006   1.167  10.124   3.597 -0.3393 -0.1307  0.0311
 6873W        W23007   7.185  10.473  11.587  0.0004 -0.0940 -0.2441
 6874W        W23008   0.548  13.870   2.938 -0.1061  0.0371 -0.1806
 6875W        W23009  16.000   1.159   0.170  0.1065  0.1392 -0.2519
 6876W        W23010   6.261   7.713   1.143 -0.2772 -0.3156 -0.0936
 6877W        W23011   1.943   7.816  13.157 -0.3499 -0.1478  0.1581
 6878W        W23012  18.569  13.712  11.083  0.3863  0.1857 -0.0113
 6879W        W23013  10.519   5.382  11.135 -0.2579  0.0225 -0.0912
 6880W        W23014  11.691   8.669  14.243 -0.0761  0.1016  0.1529
 6881W        W23015   4.202   5.359  10.815 -0.0435  0.2460 -0.1921
 6882W        W23016   5.618  17.907  10.870 -0.0310 -0.0385 -0.0939
 6883W        W23017  16.083   9.114   1.667 -0.2132  0.0092  0.2540
 6884W        W23018  10.087   9.170  11.106  0.0942  0.4924  0.2406
 6885W        W23019  14.861  18.025  11.093 -0.1648  0.0121 -0.0081
 6886W        W23020  18.753  10.232  14.431  0.1944 -0.0461  0.1434
 6887W        W23021  10.944   1.026  11.922 -0.1660  0.1558  0.2874
 6888W        W23022  16.164   2.028  12.660 -0.3954 -0.1946 -0.0482
 6889W        W23023   5.100   2.921   1.708  0.2338  0.0148 -0.1752
 6890W        W23024  15.782  14.974   3.623  0.0792 -0.0360  0.0369
 6891W        W23025   5.171  15.397   4.081 -0.1197 -0.0899  0.0336
 6892W        W23026  14.276   3.320  13.118 -0.3091  0.3535  0.0818
 6893W        W23027  11.202  11.523  10.455 -0.0505  0.2674 -0.4183
 6894W        W23028   8.798   4.809  10.411 -0.1410 -0.2531 -0.0240
 6895W        W23029  15.984   9.974   1.449 -0.1864 -0.3531  0.0261
 6896W        W23030   8.850   8.352  14.972 -0.0395 -0.0153 -0.0215
 6897W        W23031   2.710   3.944  11.626  0.1421 -0.1361 -0.0693
 6898W        W23032  15.563  17.294   1.008  0.0588  0.1259  0.0307
 6899W        W23033  16.019  13.271  11.783  0.1805  0.1711 -0.0962
 6900W        W23034   7.373  16.433   0.501  0.0611 -0.0786  0.0921
 6901W        W23035  18.378  11.885   4.240 -0.3071 -0.1926  0.2741
 6902W        W23036  12.593   2.303   1.549 -0.1290  0.2523 -0.1864
 6903W        W23037  17.037   6.410   0.389  0.2670  0.1089 -0.2639
 6904W        W23038  12.127  18.467  11.653  0.0897  0.0086  0.1060
 6905W        W23039  17.159   7.250  14.258 -0.1518 -0.0135 -0.2094
 6906W        W23040  13.542   6.954   4.619 -0.1858  0.3180 -0.1945
 6907W        W23041   9.039  15.230   1.738  0.1002  0.0934 -0.1260
 6908W        W23042  16.800  14.310  10.502  0.0735  0.0369  0.0804
 6909W        W23043  11.521  11.121   2.506  0.0026 -0.0493 -0.0932
 6910W        W23044  12.719  10.916  12.156  0.1742  0.1193  0.1929
 6911W        W23045   3.438  17.876  12.081 -0.0891  0.0140  0.2846
 6912W        W23046  12.523  17.167   9.522 -0.1264 -0.1502 -0.0961
 6913W        W23047  15.480  14.451  10.406 -0.3206  0.1393 -0.5156
 6914W        W23048   2.003   8.907   2.598 -0.1262 -0.2855 -0.1617
 6915W        W23049   1.631   8.162   4.405 -0.0042 -0.3114 -0.1498
 6916W        W23050  13.357   8.477  12.788  0.3257  0.0727 -0.0501
 6917W        W23051   6.041   6.793  12.583  0.3596 -0.0554  0.1397
 6918W        W23052  18.358  18.965   4.820 -0.2144 -0.0069 -0.0712
 6919W        W23053   1.267  18.364   9.936 -0.1523  0.0856 -0.1097
 6920W        W23054  10.281   3.661   1.518 -0.1206 -0.0380 -0.0703
 6921W        W23055   9.635  13.279   0.477 -0.2017  0.0915  0.2261
 6922W        W23056  15.539   1.434   1.744  0.2095 -0.0730 -0.1223
 6923W        W23057  17.794   1.504   0.355  0.0625 -0.1433  0.2159
 6924W        W23058   4.564   0.033   1.655 -0.0686  0.0297 -0.1939
 6925W        W23059   7.323   4.255   4.701 -0.1037 -0.0590 -0.1386
 6926W        W23060  14.740   7.634  14.105  0.2472 -0.1619 -0.0739
 6927W        W23061   4.565   8.944  11.057  0.1975  0.0956  0.1187
 6928W        W23062   0.961   1.839  11.920 -0.0537  0.1950 -0.1643
 6929W        W23063   3.649   2.321   3.979 -0.2677 -0.0851  0.1194
 6930W        W23064  17.488   1.353   1.184 -0.0492 -0.0284  0.0297
 6931W        W23065  12.347  15.125  13.627  0.1623  0.1239 -0.0060
 6932W        W23066   7.880  18.078   4.490  0.2963 -0.2535 -0.0047
 6933W        W23067  13.351   9.561  11.074  0.0601 -0.0833 -0.3354
 6934W        W23068  15.186  17.506   3.001  0.0372 -0.1075 -0.3207
 6935W        W23069   5.271   7.160   0.614 -0.1660  0.0826 -0.1613
 6936W        W23070  18.007   4.037  12.369 -0.2421  0.0171  0.4420
 6937W        W23071  14.429  14.403  11.929  0.1099  0.4388 -0.2039
 6938W        W23072  17.382   7.737  14.009 -0.0704 -0.0832 -0.2390
 6939W        W23073   8.887  14.648   2.413 -0.0656  0.1924 -0.0618
 6940W        W23074   3.550   6.765  13.665 -0.2694 -0.1781 -0.0713
 6941W        W23075  17.985  16.008  13.244  0.5743  0.4633 -0.2418
 6942W        W23076   0.058  14.394  13.196  0.2390 -0.1370  0.3636
 6943W        W23077   2.804   7.246  10.606  0.2508 -0.0758  0.3301
 6944W        W23078  10.866  14.768   1.662  0.1545 -0.1457  0.0573
 6945W        W23079  16.047   0.154  12.434  0.2358 -0.2088 -0.2546
 6946W        W23080   9.644   8.422   2.178  0.0875 -0.1063 -0.0089
 6947W        W23081   3.462   5.573   1.811  0.1043 -0.0349 -0.1839
 6948W        W23082   0.924   1.184   2.859  0.0209  0.1169  0.1716
 6949W        W23083  13.516   8.709   2.794 -0.1189 -0.0459  0.1072
 6950W        W23084   2.363   2.452   0.372  0.2347  0.1140 -0.1066
 6951W        W23085  11.435  10.547  10.546 -0.0654 -0.0150  0.3256
 6952W        W23086  12.515   6.986   1.797  0.2714  0.0828  0.0081
 6953W        W23087  14.027   5.353   2.423 -0.0717  0.0403  0.0144
 6954W        W23088  10.810  13.216   3.399 -0.0409 -0.1497 -0.3303
 6955W        W23089   4.286   4.351   0.153 -0.4119 -0.1155 -0.0032
 6956W        W23090  16.101   1.621  11.862 -0.0582 -0.0985  0.1632
 6957W        W23091   8.218   5.381   2.997 -0.1460 -0.0314 -0.2322
 6958W        W23092   1.356   7.703  14.800 -0.0163 -0.0171 -0.1567
 6959W        W23093  12.461  10.324  12.571 -0.0898  0.0537  0.0166
 6960W        W23094   1.451   3.627  10.162  0.1087 -0.0401 -0.0221
 6961W        W23095  15.996   0.885   3.750 -0.0641  0.0319 -0.1317
 6962W        W23096  14.605   6.736  13.148 -0.2502 -0.0859  0.2563
 6963W        W23097   3.332  13.437  11.012  0.0560  0.1996  0.2751
 6964W        W23098  18.570   6.884  14.949  0.1448  0.0426  0.0071
 6965W        W23099  17.216   3.563  11.324  0.0866  0.1410 -0.3591
 6966W        W23100  12.443  19.077   4.377  0.0999 -0.0356  0.0715
 6967W        W23101  19.261  17.459   0.278  0.0768  0.0545  0.0028
 6968W        W23102   5.377   7.932  12.868  0.1966 -0.0538 -0.2700
 6969W        W23103   2.056  14.334   3.059  0.1521 -0.4054  0.0716
 6970W        W23104   3.664  10.709   4.007 -0.1000  0.1073  0.4827
 6971W        W23105   0.383   1.758   1.874 -0.1182 -0.0017  0.2805
 6972W        W23106   6.403   9.509  12.096 -0.1437 -0.0358 -0.0585
 6973W        W23107  12.376  14.057   2.150  0.1215  0.1025  0.1442
 6974W        W23108   4.351   4.495   0.733  0.0486 -0.0902 -0.2978
 6975W        W23109  17.595  12.785   1.869  0.0233  0.1458  0.0931
 6976W        W23110  11.523   3.323   2.769  0.1201 -0.3114 -0.0047
 6977W        W23111  17.827  17.355   5.039  0.0697  0.2634  0.0239
 6978W        W23112  16.309  16.812   2.601 -0.0172 -0.0131 -0.0856
 6979W        W23113  14.449   1.314   9.481 -0.1449 -0.1424  0.0072
 6980W        W23114  10.921  17.577  14.293 -0.1115 -0.3674  0.2631
 6981W        W23115   0.151  11.070  11.596  0.1332 -0.2591 -0.3956
 6982W        W23116  13.522  18.474   4.585 -0.4980  0.1060 -0.0260
 6983W        W23117  15.586  12.831  10.609 -0.2561 -0.1756  0.2248
 6984W        W23118   4.163  10.053   2.026 -0.0207  0.0245 -0.0907
 6985W        W23119  10.183  12.144  13.945 -0.0703 -0.0046 -0.2327
 6986W        W23120   2.080   3.040   4.623  0.1480  0.0195  0.0911
 6987W        W23121   4.266  16.010   2.420 -0.1014  0.1333 -0.0371
 6988W        W23122   9.178  17.221   3.263 -0.0375  0.0571 -0.0276
 6989W        W23123  10.508  11.503  12.045 -0.0986 -0.2542 -0.3241
 6990W        W23124   7.661   2.842   2.261  0.1654  0.0822 -0.0023
 6991W        W23125  14.014  18.881  12.482  0.0601 -0.0318  0.0597
 6992W        W23126  13.949  12.034   2.544 -0.1241  0.0327 -0.0127
 6993W        W23127  12.713  10.754   2.154 -0.1351  0.0509  0.1517
 6994W        W23128  18.738  10.877   0.776 -0.0839 -0.0979  0.2781
 6995W        W23129   4.187  11.138  13.286 -0.1855  0.4119  0.0019
 6996W        W23130  17.557   2.403   3.582 -0.2421 -0.0402 -0.0072
 6997W        W23131   3.401   9.660  13.084  0.0074 -0.0335 -0.2587
 6998W        W23132   8.186  15.373  10.154  0.0576  0.0007 -0.2756
 6999W        W23133   0.777   8.321   0.730 -0.0938  0.1984  0.3061
 7000W        W23134   6.498  15.662   3.705 -0.0140 -0.0518  0.0795
 7001W        W23135  19.159  17.199  13.428 -0.0331 -0.2181  0.3913
 7002W        W23136  10.837  11.251  12.484  0.3528 -0.2029 -0.0175
 7003W        W23137   6.854   5.340   2.735  0.2574  0.4210  0.3276
 7004W        W23138   2.848  15.156  14.374  0.1755  0.3036  0.0534
 7005W        W23139   8.590   5.739   4.748 -0.1152  0.1019 -0.3678
 7006W        W23140   2.151  14.261   4.088 -0.0373  0.0715  0.2681
 7007W        W23141   6.998   7.393  12.112 -0.0482 -0.0753  0.0353
 7008W        W23142   5.001   5.877   4.686  0.1072 -0.0433  0.0380
 7009W        W23143   2.926   9.686   0.975 -0.1856  0.2750  0.2443
 7010W        W23144  16.710  15.008  10.936  0.0619  0.0053  0.0609
 7011W        W23145  17.892  17.755   8.931  0.1936 -0.0061  0.0023
 7012W        W23146  16.063  13.247  11.241 -0.1536  0.0771 -0.0138
 7013W        W23147   0.514   7.944   2.325  0.1416  0.0127  0.1016
 7014W        W23148   7.451   9.615  11.187 -0.2022 -0.0531  0.2041
 7015W        W23149   0.863   7.014   4.357  0.0125 -0.1779  0.0018
 7016W        W23150  16.846  16.339  12.874 -0.1194  0.1828 -0.0065
 7017W        W23151   4.660  18.357   5.010 -0.2543  0.1247 -0.1341
 7018W        W23152   0.189  17.693  13.576  0.1634 -0.1151  0.5383
 7019W        W23153  16.474  17.153  11.781 -0.1305 -0.0151  0.1060
 7020W        W23154  10.922  10.955   3.453  0.0060  0.4222  0.1244
 7021W        W23155   9.320   5.568   2.082  0.2618 -0.0263 -0.2215
 7022W        W23156   4.950  10.657   3.871  0.1947  0.1632  0.0430
 7023W        W23157  18.814   9.560   0.064  0.0510  0.0398  0.1188
 7024W        W23158  12.426  17.571   1.602  0.0225  0.1368 -0.1751
 7025W        W23159  12.146   9.950  11.270 -0.2319 -0.1523  0.1496
 7026W        W23160  15.652  15.521   3.593  0.0496  0.0104 -0.1756
 7027W        W23161   1.912  15.076   3.430 -0.0903 -0.0049 -0.0430
 7028W        W23162  14.347  17.444  11.081 -0.3679 -0.1818 -0.0404
 7029W        W23163  15.920   7.715  10.598  0.1768  0.1730  0.2753
 7030W        W23164   3.811   3.254  13.493 -0.3345 -0.1187  0.1155
 7031W        W23165  14.692   4.720   2.155 -0.1930  0.0901 -0.0531
 7032W        W23166  11.599   9.989  12.306 -0.0107 -0.1189 -0.5656
 7033W        W23167  13.012   8.296  11.926  0.1271 -0.1144 -0.0838
 7034W        W23168   2.372   2.876   2.700  0.3363  0.1641 -0.5931
 7035W        W23169  11.766   1.818   3.714 -0.1426  0.1817 -0.2254
 7036W        W23170   3.175  19.205  12.376  0.2837  0.0517  0.0991
 7037W        W23171  10.914  16.954   4.498 -0.1893 -0.1803  0.0892
 7038W        W23172   1.545  12.434   1.818  0.1346 -0.0389  0.0043
 7039W        W23173  12.768   9.521  14.546  0.2573 -0.0390 -0.1796
 7040W        W23174  15.757   7.810  11.099 -0.0766  0.0430  0.2530
 7041W        W23175   6.043  11.900  13.008  0.3024 -0.2086 -0.2392
 7042W        W23176   8.163  13.231  14.390  0.5770 -0.2204 -0.2594
 7043W        W23177  16.189   7.881   1.337 -0.0685  0.0406 -0.1156
 7044W        W23178   0.124   8.639  13.039  0.0053 -0.4320 -0.1976
 7045W        W23179  12.272  15.859  13.013  0.2285  0.0123 -0.0673
 7046W        W23180   9.576  12.197   5.571  0.3626 -0.0257 -0.2079
 7047W        W23181  19.106   0.607   4.202  0.0701 -0.0992  0.1238
 7048W        W23182  18.608   0.231   0.216  0.0846 -0.0566  0.1557
 7049W        W23183  12.972  14.480   4.420  0.1292 -0.3250  0.1100
 7050W        W23184  14.201   4.313  14.590 -0.0480  0.1353  0.0947
 7051W        W23185  13.000  14.155   2.880  0.0744  0.2874  0.2719
 7052W        W23186   2.466  12.905  14.407  0.1593 -0.0087 -0.1861
 7053W        W23187  10.321  18.499   1.026  0.0782 -0.1188  0.1966
 7054W        W23188   1.000   7.521   4.455  0.2716  0.2704  0.0179
 7055W        W23189   7.332  17.598  10.671 -0.1129 -0.0912 -0.0282
 7056W        W23190   8.316   0.350   2.730 -0.0803  0.2740 -0.2922
 7057W        W23191   3.327   7.435   2.209 -0.0105 -0.0539 -0.2906
 7058W        W23192  13.660  11.251  14.069 -0.0637  0.2857  0.0693
 7059W        W23193  13.676   3.161   1.888  0.0776 -0.0805 -0.0282
 7060W        W23194   3.541   6.699   4.256 -0.0225 -0.3507  0.2276
 7061W        W23195  17.997  14.507   3.832  0.3540  0.1449  0.1460
 7062W        W23196   7.545   9.288  12.218  0.4280 -0.1801  0.0063
 7063W        W23197  17.829  11.162   0.085 -0.0751 -0.2533 -0.0910
 7064W        W23198   8.197   8.243   1.208 -0.2594 -0.0516  0.2840
 7065W        W23199   9.735  18.872   0.524  0.2915  0.0010  0.1191
 7066W        W23200   6.887   0.738   0.519  0.0261  0.3911 -0.1546
 7067W        W23201   1.460   6.470   0.426 -0.3721 -0.1789 -0.3523
 7068W        W23202   9.284  19.328   2.319 -0.0134  0.1300 -0.1502
 7069W        W23203   9.553   5.635   3.379 -0.0355  0.1933  0.1312
 7070W        W23204  11.177  16.217   2.664 -0.1233  0.0995 -0.1173
 7071W        W23205   2.447  16.065  13.830 -0.1029  0.0277 -0.0421
 7072W        W23206  15.704   0.245  12.870  0.1033  0.2829  0.5935
 7073W        W23207  15.402  13.730   1.355  0.0661 -0.2302 -0.2936
 7074W        W23208   6.416  18.204  14.843 -0.1451  0.2471  0.1394
 7075W        W23209  15.209   3.448  13.339  0.1781 -0.0926 -0.0146
 7076W        W23210  18.915  13.440  11.764 -0.0407  0.2376 -0.3896
 7077W        W23211  13.820  15.133  14.155  0.1863 -0.4538 -0.2258
 7078W        W23212  15.636  14.640   1.298 -0.2335  0.0282 -0.1465
 7079W        W23213   5.280  18.558  14.586 -0.1996 -0.0619  0.0445
 7080W        W23214  15.010   6.748  13.772 -0.0567  0.0758  0.1251
 7081W        W23215  13.342   0.667  12.560  0.0323 -0.1699  0.0922
 7082W        W23216   1.822  17.704  11.786  0.1982  0.1052 -0.0377
 7083W        W23217  12.628  16.531  13.192 -0.3894 -0.2319  0.0348
 7084W        W23218   7.420  12.650   5.122 -0.1335  0.0619  0.1843
 7085W        W23219  10.611   7.564  13.373  0.1535 -0.2146  0.1705
 7086W        W23220   9.436   8.713   2.546 -0.2137  0.1254 -0.3293
 7087W        W23221   3.474  17.498   0.225  0.1988 -0.0233  0.1352
 7088W        W23222  18.680   2.292  12.842 -0.0316 -0.0656 -0.1375
 7089W        W23223  10.911  11.173  14.266  0.0587 -0.0510 -0.0218
 7090W        W23224   9.276  17.394  13.919 -0.0340 -0.1101  0.1231
 7091W        W23225  19.147   2.932  14.213 -0.0110 -0.2614  0.2103
 7092W        W23226   0.655  13.094   4.209 -0.1178 -0.1349 -0.0813
 7093W        W23227   9.589  17.274  11.871 -0.3037 -0.0463 -0.0084
 7094W        W23228   2.803   8.350   4.721  0.1509 -0.0065  0.0626
 7095W        W23229  17.003   5.345   1.937 -0.1531 -0.0193  0.0476
 7096W        W23230  18.118   3.227  12.464 -0.1577  0.1156  0.0382
 7097W        W23231  12.106   4.515   0.680  0.0568  0.1824  0.1197
 7098W        W23232  17.998   4.105   3.034  0.0932  0.0974 -0.4666
 7099W        W23233   2.417  11.765  13.574 -0.2215 -0.0984  0.2109
 7100W        W23234   7.748  14.947  12.898  0.4574 -0.2038  0.1311
 7101W        W23235  15.828  17.849   1.773 -0.4227  0.1349  0.3011
 7102W        W23236   1.135  12.515   5.227  0.1458 -0.0901  0.2944
 7103W        W23237   7.648  17.989  10.579  0.1554  0.1440  0.0880
 7104W        W23238   2.567  17.644  14.885 -0.0112  0.1742 -0.2687
 7105W        W23239  14.659  16.404   1.336  0.2040  0.0942  0.0859
 7106W        W23240  14.823   6.759   5.215  0.1132  0.1141  0.2516
 7107W        W23241   7.854  11.785  11.983  0.2684  0.3563 -0.2983
 7108W        W23242  11.214   0.163  10.759  0.1395 -0.4290  0.3336
 7109W        W23243  14.758  13.034   1.242  0.1375 -0.1447 -0.2367
 7110W        W23244  13.254   9.720   3.888  0.0480 -0.3111  0.1071
 7111W        W23245   6.308   6.691   3.845 -0.0302 -0.1042  0.0686
 7112W        W23246  13.434  14.085  11.520  0.1448 -0.1348 -0.0283
 7113W        W23247  16.937   5.480   3.720 -0.2204 -0.1911 -0.2060
 7114W        W23248   4.646  13.739  11.453  0.0725 -0.2304  0.1164
 7115W        W23249   8.412  11.679  14.082  0.3069  0.0196  0.0540
 7116W        W23250   1.294   7.367  14.475 -0.1991  0.2401  0.3711
 7117W        W23251   3.961   5.889   4.425  0.4858  0.1824  0.2089
 7118W        W23252  18.067  12.995   3.159  0.0755  0.4339 -0.0914
 7119W        W23253   7.805  16.453   5.847  0.1269  0.0227  0.0178
 7120W        W23254   1.086   2.750   1.237  0.1125  0.1965 -0.1574
 7121W        W23255   8.340   1.312   4.027  0.0424  0.0239  0.1315
 7122W        W23256  10.407  15.538  14.670  0.0109  0.1140  0.1914
 7123W        W23257  16.050   3.325  13.929 -0.2180 -0.0193 -0.0420
 7124W        W23258   5.217  15.561   0.134  0.2561 -0.1952  0.2272
 7125W        W23259  12.829   5.554   4.000  0.1684 -0.2554  0.1403
 7126W        W23260  10.389  19.099  12.896 -0.0232  0.0444 -0.0720
 7127W        W23261  12.426  17.498  11.873 -0.5139  0.0852 -0.1941
 7128W        W23262   5.600   0.456  13.729 -0.2477 -0.2229  0.0442
 7129W        W23263   4.318  18.162   0.499  0.0266 -0.2717  0.2797
 7130W        W23264  16.558   6.441   0.443 -0.2396 -0.0953  0.2921
 7131W        W23265  12.025  15.204  10.841 -0.2606 -0.0036 -0.0357
 7132W        W23266   6.421   1.510   0.995 -0.3901  0.0312  0.2384
 7133W        W23267   2.974   8.901  11.775  0.1441 -0.1861 -0.1766
 7134W        W23268   5.851   6.334  10.788 -0.3290  0.0023  0.2245
 7135W        W23269   1.402   4.535   0.278 -0.3025  0.0651 -0.2684
 7136W        W23270  12.530  17.479   2.299  0.1296 -0.0790  0.2243
 7137W        W23271  14.672   7.494  14.950  0.0457  0.1013  0.0268
 7138W        W23272   3.545  10.830  12.842 -0.2449 -0.0122  0.0785
 7139W        W23273   0.850   0.012   0.811 -0.3274  0.0312  0.1043
 7140W        W23274  17.910  12.645  13.951  0.2325  0.1072  0.0441
 7141W        W23275   8.509   1.294   1.338 -0.0884  0.2807  0.0583
 7142W        W23276  18.762  14.618   8.954  0.4495  0.1160 -0.0755
 7143W        W23277  17.056  13.401   3.920  0.0885  0.1175 -0.2239
 7144W        W23278  11.394  19.285   1.524  0.0929 -0.2588  0.3572
 7145W        W23279   0.320   6.292   3.806 -0.2931 -0.0724  0.0940
 7146W        W23280   3.150  13.680   2.168  0.2304 -0.0929  0.2725
 7147W        W23281   8.667   4.502  10.759  0.0847  0.0473  0.0972
 7148W        W23282   3.649  13.311   2.367 -0.0908 -0.0204 -0.2367
 7149W        W23283  10.002  15.749   1.754  0.3419 -0.2307  0.1203
 7150W        W23284   3.554   6.818  10.924 -0.3216 -0.0264 -0.1384
 7151W        W23285   6.091   8.844  13.625  0.0504 -0.1252 -0.1152
 7152W        W23286  13.312  14.906  12.876 -0.2146  0.3347 -0.2783
 7153W        W23287  12.571  16.996  14.823  0.1587 -0.1294  0.1247
 7154W        W23288   2.476  18.962   9.743 -0.0674 -0.0645 -0.5278
 7155W        W23289  14.874  11.679   4.826  0.0757 -0.0555 -0.2575
 7156W        W23290  16.246   5.674   4.623  0.0176  0.2052  0.1565
 7157W        W23291   8.486   1.139  11.551  0.2109 -0.2924 -0.1238
 7158W        W23292  10.543   4.602   2.788  0.0211 -0.0846 -0.2164
 7159W        W23293   1.064  17.722   5.249 -0.0204 -0.2653  0.0468
 7160W        W23294   1.462  18.014   3.047 -0.1704  0.2131 -0.2342
 7161W        W23295  17.772   1.600  14.877  0.0390  0.0825 -0.0261
 7162W        W23296  12.382  18.704  13.754 -0.2703 -0.0154  0.0327
 7163W        W23297  11.986   4.943   4.098  0.0175 -0.3569 -0.1510
 7164W        W23298   8.423   9.299   3.711 -0.2549 -0.0474  0.3213
 7165W        W23299   4.037   7.359   0.101 -0.0168  0.1848 -0.1812
 7166W        W23300  17.263  17.967  11.842 -0.1486 -0.0269 -0.3935
 7167W        W23301   2.000  11.631  11.020 -0.1349 -0.0795 -0.0260
 7168W        W23302  19.131  12.994  13.954  0.1681  0.1061 -0.2061
 7169W        W23303   8.739  15.266   0.484  0.1290 -0.1866  0.0239
 7170W        W23304   0.443  16.323  11.457 -0.3648  0.1365 -0.2301
 7171W        W23305   7.663   4.439  10.199 -0.0681 -0.1725  0.4884
 7172W        W23306  18.985   3.790   1.788  0.1398 -0.0127  0.2036
 7173W        W23307   2.853   0.442   0.529  0.0308  0.2008  0.3887
 7174W        W23308  12.748  14.460  14.399 -0.0462  0.1247 -0.0406
 7175W        W23309   5.584  13.826   0.700 -0.0295  0.0440 -0.1440
 7176W        W23310  15.813  11.441   2.210  0.2067  0.1294 -0.1091
 7177W        W23311  16.742  17.631   9.166 -0.2735 -0.1966  0.0017
 7178W        W23312   4.847  18.116   3.236 -0.0142  0.1446  0.0285
 7179W        W23313  14.200  11.327   0.219 -0.1627 -0.0989 -0.1071
 7180W        W23314   6.845  17.444  10.402  0.0259  0.0743  0.2252
 7181W        W23315   4.636   3.732   3.976 -0.0528 -0.0727  0.1257
 7182W        W23316  18.202   5.516  13.885  0.2288  0.0716  0.0217
 7183W        W23317  15.157   3.523   1.169 -0.0632 -0.1102 -0.1909
 7184W        W23318  16.930  11.435  14.078  0.3983  0.1902 -0.0321
 7185W        W23319   8.687   5.644   0.594  0.0274  0.0343 -0.2528
 7186W        W23320   3.833  17.904  13.580  0.0574 -0.1631 -0.2369
 7187W        W23321   3.624   3.692  11.912 -0.2230 -0.0849  0.1187
 7188W        W23322  11.188  18.387   0.572 -0.0673 -0.0261  0.0637
 7189W        W23323  11.129   6.732   1.884  0.3347 -0.1359 -0.1344
 7190W        W23324  13.824   6.981   0.759 -0.1664 -0.0094  0.1740
 7191W        W23325  15.162  16.989  13.831  0.4673 -0.2341  0.1142
 7192W        W23326   7.336  15.142  11.315 -0.3158 -0.1066  0.2723
 7193W        W23327  14.012   6.561  14.553 -0.1624 -0.1233  0.3071
 7194W        W23328  18.865   3.615   0.816  0.2744 -0.2285  0.1636
 7195W        W23329  14.961   6.876   0.760  0.3016  0.1775 -0.0228
 7196W        W23330   8.632   3.755   1.375 -0.1398  0.2023  0.0844
 7197W        W23331  11.098   3.874  10.726 -0.0471 -0.0622 -0.1517
 7198W        W23332  14.850  10.386  12.229 -0.0208  0.3378 -0.1474
 7199W        W23333   0.834  17.030   2.987  0.0509  0.0257 -0.3576
 7200W        W23334   4.397   8.060  11.218 -0.0230  0.1030 -0.1453
 7201W        W23335  15.747  16.234   3.341 -0.2294 -0.2853 -0.1367
 7202W        W23336  19.255   1.143  10.147 -0.0693 -0.0865  0.0803
 7203W        W23337   6.478   1.435   0.416 -0.3405 -0.0780 -0.2975
 7204W        W23338  13.439  18.331   2.860  0.0835  0.3003 -0.1082
 7205W        W23339  16.408  18.309  11.404 -0.3137 -0.0078  0.3377
 7206W        W23340  15.305  13.941   1.797 -0.4083  0.2925 -0.1501
 7207W        W23341   4.143  18.097   4.714  0.1447 -0.2649  0.2677
 7208W        W23342  16.946   3.881   0.110  0.0278 -0.0017 -0.3262
 7209W        W23343  16.261   9.788   2.412 -0.1205 -0.1504  0.2489
 7210W        W23344   0.579   6.176   4.260  0.2561  0.0811  0.1527
 7211W        W23345  10.040   1.742   0.207  0.2883  0.2263  0.1138
 7212W        W23346   6.440   4.745  14.401 -0.1483  0.0203  0.1196
 7213W        W23347  15.124  13.687   4.330  0.3684 -0.2983 -0.0806
 7214W        W23348  18.845   6.901  12.752  0.0339  0.0874  0.3426
 7215W        W23349   6.294  11.429   2.892 -0.0354 -0.0201  0.1046
 7216W        W23350   6.079   3.256   9.440 -0.1233  0.0559 -0.1810
 7217W        W23351  13.877   4.458   0.917 -0.0776 -0.1929  0.2812
 7218W        W23352   3.736  16.590   2.077  0.0820  0.0151 -0.1530
 7219W        W23353   9.512  15.831  10.674 -0.0396  0.3800 -0.0444
 7220W        W23354   3.287   5.067   9.977  0.0046 -0.1632 -0.5011
 7221W        W23355   2.075  11.438   0.614 -0.2822  0.2678  0.1254
 7222W        W23356   9.043   0.990   2.637 -0.1774 -0.0407 -0.2224
 7223W        W23357   9.981  17.886  11.693  0.2447 -0.0479  0.3867
 7224W        W23358   0.879  12.316  11.936  0.0243  0.0909  0.3419
 7225W        W23359   5.793  18.023  14.300 -0.1565  0.2521  0.2801
 7226W        W23360  17.417   4.493  13.839  0.2427  0.2729  0.0850
 7227W        W23361  16.561   0.941   0.261  0.1279  0.2473  0.1682
 7228W        W23362   1.999   4.081   9.941  0.0749  0.1703 -0.5738
 7229W        W23363  10.889   8.104   2.111  0.1105 -0.1146  0.5530
 7230W        W23364   5.691  11.248  14.330 -0.1917 -0.1152 -0.0675
 7231W        W23365   9.651  16.290  12.147  0.3573  0.0341 -0.0153
 7232W        W23366   5.329   9.863  14.999  0.0085 -0.1511  0.2517
 7233W        W23367  10.626  17.491   4.512  0.1973  0.1300  0.3014
 7234W        W23368  17.444   5.238  12.868 -0.3135  0.2817 -0.0218
 7235W        W23369  14.111   3.950   4.565  0.1674  0.3230 -0.3891
 7236W        W23370  14.598  12.747   0.241  0.0147 -0.2508  0.1926
 7237W        W23371  16.005   1.509   4.188 -0.2040 -0.0970  0.1241
 7238W        W23372  14.903  13.521  14.470 -0.2834 -0.2015  0.2960
 7239W        W23373   2.892  18.910  10.432  0.0110 -0.0072  0.0233
 7240W        W23374  13.990  16.450   0.139  0.0219  0.1553  0.2080
 7241W        W23375  16.006   6.015  11.728 -0.1222  0.1020 -0.1512
 7242W        W23376   8.904   0.892  11.324 -0.1375  0.1463 -0.1057
 7243W        W23377  18.394  14.984  12.225 -0.0157 -0.0921  0.0882
 7244W        W23378   9.197   7.288   3.554  0.0420 -0.1378 -0.1848
 7245W        W23379   7.679  14.725   5.048 -0.0727 -0.1920  0.1490
 7246W        W23380  19.010  15.288  12.392 -0.0129 -0.1967  0.0296
 7247W        W23381   0.521   7.762  11.170  0.1654 -0.3444 -0.1582
 7248W        W23382   2.858  17.861  11.755 -0.1999  0.0243 -0.1233
 7249W        W23383   7.529   4.915   4.419  0.1800  0.0144  0.4409
 7250W        W23384   0.310  10.591   9.583  0.0387  0.2453  0.0458
 7251W        W23385   1.141   9.772   1.776 -0.0152  0.0950  0.4136
 7252W        W23386   8.276   9.712  12.670 -0.2569  0.2123  0.3729
 7253W        W23387  11.358   9.400  14.851  0.0221  0.2281  0.1823
 7254W        W23388   0.290   4.980   4.439 -0.0184  0.1626  0.2978
 7255W        W23389  16.319   2.631   0.646  0.0979 -0.0679  0.3352
 7256W        W23390   0.123   0.950  13.707  0.1780  0.3253 -0.2198
 7257W        W23391  16.713   5.962   1.312 -0.0383  0.2028 -0.0040
 7258W        W23392   9.326  19.337   5.096  0.0485  0.1483 -0.0468
 7259W        W23393  12.420   6.211  11.171  0.0526 -0.0196 -0.1167
 7260W        W23394  18.153   1.609   2.628  0.0325 -0.3109  0.1563
 7261W        W23395   3.350  16.794   4.940 -0.1315  0.1457  0.2579
 7262W        W23396   1.604  14.330   3.280  0.2565 -0.2685  0.2730
 7263W        W23397  16.456  16.126   3.369 -0.2211 -0.5351  0.2898
 7264W        W23398   4.339   8.326   3.725 -0.0296 -0.2159  0.0630
 7265W        W23399   4.928  11.949  14.686  0.1771  0.0752 -0.2283
 7266W        W23400   5.313   4.710  13.671 -0.2407  0.0049 -0.0532
 7267W        W23401   0.579  15.954  13.886  0.3990 -0.1531  0.2650
 7268W        W23402  18.893   2.047  13.329  0.2298  0.0305 -0.1012
 7269W        W23403  19.277   4.465   2.896 -0.0177  0.1224 -0.3491
 7270W        W23404   9.233   2.484   1.505 -0.1729  0.3147 -0.1171
 7271W        W23405   6.747   1.871  11.929 -0.2933  0.0991  0.3884
 7272W        W23406   4.401  12.161  13.838  0.1020  0.1059  0.2857
 7273W        W23407  13.639  13.394  14.702 -0.1560 -0.0756 -0.0789
 7274W        W23408  11.783   9.911  13.619 -0.2232 -0.0933 -0.0173
 7275W        W23409   2.337  17.307  12.344 -0.2445 -0.0262 -0.0914
 7276W        W23410  14.143   8.552  11.985 -0.0045 -0.0765 -0.2154
 7277W        W23411  16.575   1.219  13.348  0.0617  0.1195  0.2641
 7278W        W23412   2.077  15.152   2.911 -0.1492 -0.1412  0.1610
 7279W        W23413   9.269   5.924   3.680 -0.2442  0.1889  0.1636
 7280W        W23414   7.312   7.615   2.110  0.1061 -0.2227  0.0939
 7281W        W23415   7.569   2.726  14.393  0.3631  0.0184 -0.0209
 7282W        W23416  18.078  14.556  11.984  0.2331  0.0423 -0.1150
 7283W        W23417   6.061  16.816   4.681  0.0865 -0.2158  0.0727
 7284W        W23418   5.567  12.190  13.042 -0.1619  0.1673  0.0450
 7285W        W23419   8.273   9.644  11.827  0.1108 -0.2017 -0.1565
 7286W        W23420  12.800  16.673  10.522 -0.4194 -0.1997  0.0333
 7287W        W23421  17.313   0.203  10.319 -0.1866  0.1497 -0.4576
 7288W        W23422  13.767  17.740  13.983  0.1756  0.1007  0.1492
 7289W        W23423   5.248   2.240  14.113  0.0397 -0.0527 -0.6831
 7290W        W23424  18.254   3.934   0.002 -0.3975 -0.0447  0.4416
 7291W        W23425  17.849   1.668   3.516  0.2864 -0.0275  0.1461
 7292W        W23426  18.117  16.889  11.230  0.0997  0.1793  0.0753
 7293W        W23427   4.184   5.600  14.099 -0.0774  0.3072 -0.1544
 7294W        W23428   9.564   5.128  11.500 -0.0423 -0.0884 -0.2154
 7295W        W23429   7.052  12.048   3.866 -0.1164 -0.1899  0.2029
 7296W        W23430  14.069   1.224   0.580  0.1126  0.1047 -0.2849
 7297W        W23431  17.805   3.987  14.685 -0.0718 -0.5735 -0.2477
 7298W        W23432   6.223   9.244   1.090 -0.2808 -0.3904 -0.1431
 7299W        W23433   6.559  16.621  11.063 -0.3291 -0.2509 -0.0217
 7300W        W23434   5.247   6.972   0.027  0.1833 -0.1479  0.2719
 7301W        W23435  17.013   3.566   4.451  0.1552  0.1348 -0.2095
 7302W        W23436  11.514   3.156   3.882  0.1697  0.1258 -0.0402
 7303W        W23437   8.685  11.999  13.804 -0.0775  0.3002  0.5718
 7304W        W23438   2.877   8.662  12.649  0.1096 -0.1696  0.1861
 7305W        W23439   4.854  12.801  12.397  0.1368 -0.1581 -0.0587
 7306W        W23440  16.676  13.193   0.555  0.0786 -0.1829  0.0303
 7307W        W23441   6.183  10.697   1.607 -0.0752 -0.1929  0.3414
 7308W        W23442  18.413   1.369  11.215  0.0391  0.3553  0.1867
 7309W        W23443  14.000   1.962  11.142  0.0700 -0.0261  0.2730
 7310W        W23444  14.460   4.318  11.353 -0.3120  0.0024  0.2503
 7311W        W23445  13.134   4.020   1.104 -0.0504  0.2015 -0.3587
 7312W        W23446  12.544   6.200   0.511  0.2186 -0.2457 -0.0226
 7313W        W23447  12.012  14.146  14.837 -0.1008 -0.0862 -0.0446
 7314W        W23448  19.076   3.294  13.718  0.1659  0.3636 -0.0490
 7315W        W23449   3.606  14.456  13.676  0.1266  0.1576 -0.0026
 7316W        W23450   3.093  13.742   0.957  0.1130  0.0309 -0.0732
 7317W        W23451   8.272  13.582   4.777 -0.0834 -0.0467 -0.2787
 7318W        W23452   0.801  17.038  12.099  0.4089 -0.2459 -0.0447
 7319W        W23453   2.135  12.821   0.823  0.2322 -0.0238 -0.1481
 7320W        W23454  14.142  11.375  12.359  0.1017  0.3073  0.0107
 7321W        W23455   5.489   2.729  13.386 -0.1294 -0.0477 -0.0290
 7322W        W23456  12.976   9.810   2.774 -0.0366 -0.3440  0.1728
 7323W        W23457   2.142   4.045   3.273  0.3100  0.1673 -0.2301
 7324W        W23458  13.307   2.515  12.452 -0.2570 -0.4150 -0.0785
 7325W        W23459   3.260  14.312  12.465 -0.3098 -0.2586 -0.1125
 7326W        W23460   3.656   3.970   9.103 -0.0929 -0.2017  0.2368
 7327W        W23461   3.326   2.091   2.993  0.0768  0.0035  0.2141
 7328W        W23462   2.610   1.018  12.084 -0.1795 -0.1018  0.0312
 7329W        W23463   6.841   9.337  14.494 -0.1567 -0.0225 -0.1662
 7330W        W23464  12.851   0.361  13.439 -0.1426  0.3698  0.1870
 7331W        W23465  15.578   8.572   1.016  0.2061  0.1480 -0.3360
 7332W        W23466   9.618  18.479  12.807 -0.0688  0.0692  0.1794
 7333W        W23467   7.743  10.943  11.998  0.0727 -0.3270  0.2991
 7334W        W23468   4.652   0.465   2.301 -0.1170 -0.1086  0.3087
 7335W        W23469  15.524   4.841  14.326  0.2359  0.1679 -0.0338
 7336W        W23470  12.566   8.895   2.601 -0.2130 -0.2190  0.0212
 7337W        W23471   4.539   2.939   1.934 -0.1166  0.2393 -0.2674
 7338W        W23472   9.667  18.377   2.206 -0.1379  0.1704  0.3934
 7339W        W23473  15.473   8.200   5.379  0.0800  0.0882  0.2579
 7340W        W23474   2.465   0.672  14.390  0.0642  0.2366 -0.0373
 7341W        W23475  11.256  17.475  14.632  0.1011  0.1086 -0.2739
 7342W        W23476   3.253   6.415   3.316 -0.1270  0.1561  0.2763
 7343W        W23477  14.971   8.123   3.338  0.0431 -0.2388 -0.0042
 7344W        W23478   6.387  14.077   0.345  0.3503 -0.0376 -0.0696
 7345W        W23479  14.873  17.783   0.972 -0.0490 -0.1798  0.1647
 7346W        W23480  10.425   3.183  14.482 -0.1381 -0.1006 -0.0188
 7347W        W23481  15.394  13.174  14.026  0.2376 -0.0462 -0.1072
 7348W        W23482   9.861  14.591   1.534  0.2612 -0.1192  0.0287
 7349W        W23483   2.812   4.853   2.842 -0.0512  0.0341 -0.1876
 7350W        W23484   2.640  11.160  10.369  0.3713  0.0150 -0.1375
 7351W        W23485  17.841   8.574   1.651  0.0473  0.3344 -0.3322
 7352W        W23486  15.969  17.772   0.137  0.2884  0.1949 -0.1609
 7353W        W23487  14.424  17.110  12.041 -0.0793  0.1593 -0.0897
 7354W        W23488  13.521  15.995  11.595 -0.0597 -0.2313  0.0162
 7355W        W23489  10.316   9.588  14.430 -0.0545 -0.1364  0.2222
 7356W        W23490   7.891   2.122   3.663  0.0415  0.3227 -0.0186
 7357W        W23491  10.598   2.885   1.912 -0.1750  0.1119  0.4201
 7358W        W23492   7.093   9.905   3.179  0.2463  0.0026 -0.3661
 7359W        W23493   9.501  19.278   3.855  0.1441 -0.0595 -0.0111
 7360W        W23494  15.841  16.922   4.185  0.1505  0.0723 -0.0188
 7361W        W23495   2.971  13.763  10.828 -0.0427  0.0701  0.1065
 7362W        W23496   6.915   3.842  14.114  0.0185  0.1261  0.1083
 7363W        W23497  13.042   8.047   2.548  0.4403  0.0751  0.1277
 7364W        W23498  14.077  15.120  12.475  0.2957  0.1597 -0.0320
 7365W        W23499  15.391  13.874   2.344 -0.1865  0.3109 -0.0538
 7366W        W23500   6.509  18.417   2.092  0.0689 -0.0403 -0.3607
 7367W        W23501  16.244   2.531  10.910 -0.1173 -0.2504 -0.2101
 7368W        W23502   8.859  15.611  11.393  0.0984  0.2657 -0.1872
 7369W        W23503   4.738  12.641   3.452  0.1267  0.1477  0.1315
 7370W        W23504  13.390  18.083   4.844 -0.1418 -0.0834 -0.0586
 7371W        W23505   2.777   2.661  12.770 -0.0228  0.0966  0.0167
 7372W        W23506  18.619  17.188   4.828  0.1468  0.0761  0.1155
 7373W        W23507   3.880  11.072   4.921 -0.0299 -0.0482 -0.0703
 7374W        W23508  18.417   7.122   5.696 -0.0390 -0.0344  0.7331
 7375W        W23509  10.391  12.224  14.995  0.3692  0.2327 -0.0305
 7376W        W23510   3.375  12.388   3.141 -0.2227 -0.2374 -0.0333
 7377W        W23511   5.178  13.619  12.930  0.1603 -0.1891 -0.1178
 7378W        W23512  16.769  12.981  10.612 -0.2200  0.2995 -0.1838
 7379W        W23513  17.499   2.568   1.819  0.0341 -0.1083  0.3097
 7380W        W23514  12.049   1.167   3.162  0.3956  0.1503  0.2534
 7381W        W23515  14.641  11.499  10.730 -0.1417  0.0764  0.1862
 7382W        W23516  13.019   4.793   1.612 -0.2709  0.2260  0.1704
 7383W        W23517   9.739   8.672  12.359 -0.1369 -0.1617  0.1069
 7384W        W23518   5.860   2.124  12.304 -0.0642  0.0938 -0.2821
 7385W        W23519   6.449   8.371   2.846  0.2461 -0.1888 -0.0120
 7386W        W23520  14.781   3.445  14.802  0.2409 -0.0602 -0.0519
 7387W        W23521  17.503  12.034  12.075  0.2571 -0.0736 -0.3609
 7388W        W23522  10.860   4.394   4.613  0.1674  0.0201  0.0674
 7389W        W23523  19.082   1.284   2.891 -0.2538  0.4623 -0.1435
 7390W        W23524  17.066  17.633  14.397 -0.2989  0.2689 -0.1723
 7391W        W23525  10.731   4.744   0.051  0.0068  0.0044  0.0476
 7392W        W23526  18.447   7.909   3.194  0.0423  0.0330 -0.2479
 7393W        W23527  12.552   4.099   2.888  0.0967 -0.0667  0.2473
 7394W        W23528   5.006  18.341   1.776  0.2489  0.4221 -0.0229
 7395W        W23529   9.796  13.145  11.392 -0.1723  0.1830  0.4207
 7396W        W23530   7.465  15.290  13.186 -0.0648 -0.0704 -0.2285
 7397W        W23531  12.384   2.100   0.465  0.1352  0.1601 -0.0839
 7398W        W23532  16.231   4.055  14.165 -0.2284 -0.0217  0.0222
 7399W        W23533   0.217  18.464   0.802  0.1385 -0.1453 -0.0118
 7400W        W23534   4.867   4.267   4.017 -0.0941 -0.0051  0.0640
 7401W        W23535   9.162   4.053   4.194  0.4112 -0.0551  0.5113
 7402W        W23536  18.399   1.231   3.044  0.1303  0.0369 -0.1888
 7403W        W23537  16.149   4.175  10.398 -0.1232 -0.5848 -0.0390
 7404W        W23538   6.309   0.607  12.599 -0.2102  0.0840 -0.3308
 7405W        W23539   6.542   0.928  14.045  0.0084 -0.2336  0.3703
 7406W        W23540  15.392  12.397   4.877 -0.1585  0.1078  0.1230
 7407W        W23541  18.405   1.407  10.541 -0.0321  0.0116  0.0702
 7408W        W23542  14.754   3.702   0.413  0.1244  0.0967  0.1814
 7409W        W23543  12.795   4.149   4.521 -0.1624  0.1205  0.1549
 7410W        W23544   5.991   6.674   4.448 -0.1579 -0.5770  0.0831
 7411W        W23545   8.342  18.532  13.193 -0.1188  0.3077 -0.0214
 7412W        W23546  12.208   3.933   4.049 -0.1384  0.3915  0.0985
 7413W        W23547  16.272   4.466   0.170 -0.2269 -0.1390  0.0111
 7414W        W23548  19.140  11.342  13.399 -0.1320  0.1189 -0.1208
 7415W        W23549   7.062   8.735   4.646 -0.0360 -0.0626  0.0616
 7416W        W23550  17.119   6.042  14.572  0.0335  0.0014  0.0739
 7417W        W23551  17.275   3.922   1.051  0.5036  0.2421  0.1931
 7418W        W23552  16.349  10.097  12.327  0.0950  0.2852  0.3140
 7419W        W23553  12.154  12.787  13.294  0.0169  0.1367 -0.0891
 7420W        W23554   7.756  12.195   4.913  0.1969  0.2071 -0.0111
 7421W        W23555  12.995  16.237   2.778  0.0606  0.2773  0.3106
 7422W        W23556  11.667   1.241  14.604  0.1985 -0.3276 -0.0981
 7423W        W23557   3.757   5.460   4.658  0.0153  0.0330 -0.1797
 7424W        W23558   2.987   5.996   3.038  0.1862  0.0347  0.4285
 7425W        W23559  15.873   7.547   4.220 -0.0488 -0.0078 -0.0221
 7426W        W23560   3.696  16.230   0.401  0.1362  0.0106  0.1510
 7427W        W23561  18.264   2.688  11.268 -0.2273 -0.3346  0.2158
 7428W        W23562   9.250   4.404   5.617 -0.0416 -0.2215  0.0024
 7429W        W23563   6.216   3.473  14.332  0.0648 -0.1394 -0.2672
 7430W        W23564  12.801   0.263  12.125 -0.2756 -0.4444 -0.3126
 7431W        W23565   9.020   3.032   2.560  0.0365 -0.0597 -0.2417
 7432W        W23566   8.291  13.309   4.236 -0.0787 -0.2351 -0.1551
 7433W        W23567  10.045   1.634   1.583  0.3893 -0.1263  0.0479
 7434W        W23568   0.968  18.898   3.006 -0.0951  0.0097  0.1187
 7435W        W23569   0.911  18.358  13.889  0.0581  0.0932 -0.1836
 7436W        W23570  11.896  10.316   5.080  0.0027  0.2977 -0.0571
 7437W        W23571   7.517   1.995   1.300 -0.4500  0.0884 -0.1647
 7438W        W23572   2.149   4.065  11.662 -0.3209 -0.0550 -0.1528
 7439W        W23573   1.307  12.877   2.166  0.0513 -0.2922 -0.3626
 7440W        W23574   9.620   7.253  12.063 -0.1256  0.2293  0.0192
 7441W        W23575  18.192   4.031   2.046 -0.0436 -0.4094  0.0112
 7442W        W23576   0.854  10.982  11.898  0.1513  0.1554  0.0469
 7443W        W23577  18.620   8.472   0.620  0.1805 -0.0285 -0.4396
 7444W        W23578  15.709   5.657  13.193 -0.1151 -0.3222 -0.1153
 7445W        W23579   6.730  18.743   4.018  0.0158 -0.0371  0.2156
 7446W        W23580   7.683  14.959  14.510  0.1847  0.0591 -0.1214
 7447W        W23581  12.007  16.742   2.012  0.2430  0.0682 -0.2443
 7448W        W23582  12.915  15.016  12.262 -0.4286  0.2180  0.3165
 7449W        W23583   5.585   8.455   0.113  0.4493  0.2468 -0.4783
 7450W        W23584  15.037   6.720  11.028 -0.3117  0.3168 -0.2089
 7451W        W23585   8.034   5.038  13.444  0.2690  0.0376  0.0331
 7452W        W23586   4.024  14.951  11.762  0.3080 -0.1891 -0.0238
 7453W        W23587   6.817  10.981  11.568 -0.3228 -0.1850 -0.1997
 7454W        W23588   5.672   2.550   0.078  0.1383  0.2443 -0.0160
 7455W        W23589   8.701  15.944  10.958  0.2101 -0.2556 -0.0017
 7456W        W23590   4.765   8.388   2.056  0.2622  0.0498 -0.2764
 7457W        W23591   1.241   5.850  10.506  0.1707 -0.1146 -0.3127
 7458W        W23592   5.215  13.878  11.011  0.0153 -0.1853  0.0030
 7459W        W23593   9.931   4.775   2.881 -0.1546  0.1159 -0.0019
 7460W        W23594   0.346   2.407   4.046  0.4783 -0.0036 -0.0863
 7461W        W23595   7.410  10.367   2.482  0.1699 -0.0830 -0.3024
 7462W        W23596  11.767  18.513  12.074  0.1663 -0.1863 -0.0114
 7463W        W23597   9.319   4.188   2.502 -0.0190 -0.0671 -0.1083
 7464W        W23598  11.124  14.648   4.763 -0.0101 -0.1268 -0.2060
 7465W        W23599  14.424  13.230   3.598  0.0130  0.0255 -0.0750
 7466W        W23600   9.031  13.517   3.883  0.2144  0.3587  0.2807
 7467W        W23601  17.336   8.427  10.915 -0.1569 -0.0496  0.2003
 7468W        W23602   8.726   2.021   3.168 -0.1326  0.1744 -0.1530
 7469W        W23603  16.435  12.542   3.968 -0.0430 -0.3856 -0.2338
 7470W        W23604  11.744  16.105   1.399  0.2430  0.0523 -0.0410
 7471W        W23605   3.422   1.826   4.083  0.1774  0.1281 -0.0641
 7472W        W23606   4.185   5.030  10.409 -0.0357  0.1403  0.1194
 7473W        W23607  13.463   9.345   3.546 -0.2087  0.2510  0.1129
 7474W        W23608   1.950  16.818   4.769 -0.0529 -0.0365 -0.2196
 7475W        W23609   9.191  13.439  14.575  0.0893  0.1759  0.0316
 7476W        W23610   0.865  10.163   5.657 -0.0708  0.3388  0.0488
 7477W        W23611   5.189   5.296   0.787  0.1614 -0.3304 -0.1217
 7478W        W23612   5.205  15.131   2.766 -0.2422  0.1446 -0.0315
 7479W        W23613  19.193  18.102   2.011 -0.1817 -0.0243 -0.2976
 7480W        W23614  10.472  13.747  13.820  0.0247  0.1244 -0.0376
 7481W        W23615   7.854  11.423  12.894 -0.0640 -0.3584 -0.1399
 7482W        W23616  17.080   6.821  10.346  0.1328 -0.1051 -0.2711
 7483W        W23617   5.904  15.374  12.359  0.0751  0.0378 -0.0938
 7484W        W23618   7.989   5.019   9.622  0.2370  0.3893 -0.1135
 7485W        W23619  10.473   1.990   0.371  0.0100 -0.0278 -0.2030
 7486W        W23620   7.501  10.364   4.344  0.1249 -0.5673  0.0630
 7487W        W23621  14.617  18.711  11.877 -0.5216  0.1603  0.0770
 7488W        W23622   5.949   7.100   2.907 -0.1568 -0.2160  0.0923
 7489W        W23623   9.121   9.203   1.859 -0.0006 -0.2167  0.1674
 7490W        W23624   8.906  17.504  13.348  0.2919  0.0387  0.3176
 7491W        W23625   1.235   2.310  10.285  0.0793 -0.3369  0.2268
 7492W        W23626  12.866   6.815  12.874 -0.0052  0.1622 -0.3650
 7493W        W23627   9.192  14.691   0.491  0.0938 -0.0887 -0.1138
 7494W        W23628  19.194   1.956   1.765 -0.0898 -0.3360  0.0655
 7495W        W23629   8.308  14.253  10.813 -0.4694  0.2441  0.0974
 7496W        W23630   7.034   4.454   4.305 -0.2029  0.2837  0.2761
 7497W        W23631  17.817   3.374  10.444  0.0491 -0.4419 -0.0326
 7498W        W23632  11.948   0.560  12.771  0.0235  0.2399 -0.1027
 7499W        W23633   8.096   3.400  14.334  0.3382 -0.2857 -0.2147
 7500W        W23634   6.932  13.687  14.249 -0.3274  0.3019  0.0375
 7501W        W23635  18.238  15.330   0.171  0.1517  0.0386 -0.1960
 7502W        W23636   5.705  14.319  10.197 -0.1311 -0.2089  0.1357
 7503W        W23637  13.524  17.068  14.815 -0.2041 -0.2752 -0.1468
 7504W        W23638   6.773   5.327  11.331 -0.0153 -0.0270 -0.3827
 7505W        W23639  10.586  10.018  14.335 -0.2342  0.0496  0.1346
 7506W        W23640   0.630  16.227   4.660 -0.1964  0.1012  0.0379
 7507W        W23641   8.475   7.390  14.557  0.0056 -0.0840  0.1838
 7508W        W23642   5.794   0.063   1.868  0.0754 -0.2310  0.1052
 7509W        W23643   1.287  12.338  12.685 -0.0911 -0.1746  0.1678
 7510W        W23644  16.995  15.468  10.826  0.0488 -0.1270  0.3204
 7511W        W23645  10.729   0.593  14.086 -0.2262  0.1566  0.1145
 7512W        W23646  12.110  11.733  12.395 -0.2378  0.0928  0.2419
 7513W        W23647   7.517   6.025   1.281  0.2871  0.1923  0.1430
 7514W        W23648   4.995   2.441  14.645 -0.1683  0.2097 -0.1680
 7515W        W23649   0.505  10.842  12.285  0.1514 -0.0096 -0.1057
 7516W        W23650  10.152  13.505  14.261  0.1380  0.0244  0.0818
 7517W        W23651  11.586   0.919   2.750 -0.0487 -0.0496  0.1743
 7518W        W23652  16.606   8.297   1.466  0.0097  0.0529  0.3718
 7519W        W23653  12.175   6.989  12.647 -0.2147 -0.3313 -0.3384
 7520W        W23654  11.744   3.310   3.451  0.1750  0.1486 -0.0935
 7521W        W23655   3.363  15.960   3.298  0.1844 -0.1798 -0.3263
 7522W        W23656  15.644   3.567   1.121  0.0175  0.2042 -0.1448
 7523W        W23657   1.507  19.295  11.767 -0.2976  0.1391  0.1812
 7524W        W23658   2.987   3.086   2.934 -0.2982 -0.1351  0.2103
 7525W        W23659  11.578  13.898   2.053  0.0640 -0.6035 -0.1593
 7526W        W23660  15.301  15.579   2.897 -0.4904 -0.2696  0.1985
 7527W        W23661  10.541  12.199  11.918  0.1035  0.2493 -0.0897
 7528W        W23662  16.508   7.891   0.527  0.3209  0.0237 -0.1044
 7529W        W23663   9.267   0.451   3.799 -0.2588  0.1685 -0.0920
 7530W        W23664   2.312   6.800  12.249 -0.1934 -0.1382 -0.0410
 7531W        W23665  19.315  14.487  14.918 -0.0401  0.0514  0.3173
 7532W        W23666   1.474   2.785  10.237 -0.1207  0.0112 -0.3364
 7533W        W23667  17.875   0.804  10.427  0.2016  0.0470 -0.1532
 7534W        W23668   6.543   5.384   0.211 -0.4350  0.0100  0.0515
 7535W        W23669   4.967   1.830  13.958 -0.1184 -0.0870  0.1916
 7536W        W23670   0.911   3.687  14.601 -0.0107 -0.0455 -0.1165
 7537W        W23671   9.332   2.072  12.698 -0.1200 -0.2204 -0.0291
 7538W        W23672   1.098   6.850   1.289 -0.2060 -0.1744 -0.2831
 7539W        W23673  12.562  11.247   0.224  0.0853  0.0207  0.2747
 7540W        W23674   2.909   5.971  11.932 -0.0384  0.1813  0.0202
 7541W        W23675   0.237   1.655  10.025  0.4597 -0.0547 -0.1339
 7542W        W23676  11.968  16.797   4.824  0.0869 -0.2407 -0.4649
 7543W        W23677  13.143  13.265  12.895 -0.2862 -0.1220  0.2042
 7544W        W23678   6.978  11.950   5.205  0.0404  0.1686  0.0527
 7545W        W23679   0.706  16.912   3.472 -0.0098 -0.0734 -0.2676
 7546W        W23680   9.959   8.403   1.366  0.2497 -0.0089 -0.1110
 7547W        W23681   1.477  10.610   0.195  0.2267  0.1640  0.1566
 7548W        W23682  14.811  11.027  10.889  0.0758 -0.0053  0.1893
 7549W        W23683   4.582  17.175  14.525  0.0653  0.2875 -0.6061
 7550W        W23684  10.311  18.789   0.588 -0.0991 -0.0504 -0.2307
 7551W        W23685   9.216  15.001   1.020 -0.0694 -0.1776  0.2499
 7552W        W23686  10.968  16.628  11.724 -0.2099  0.1769 -0.0625
 7553W        W23687  17.098   8.817  12.666  0.1055  0.2912 -0.2802
 7554W        W23688   2.323  13.544   1.968  0.0948  0.1237 -0.0205
 7555W        W23689   0.114  10.768  11.193 -0.1651  0.2613 -0.2066
 7556W        W23690   0.896   0.404  14.067  0.0235 -0.0019 -0.0619
 7557W        W23691   7.198  14.456  10.916  0.2424  0.1567 -0.1523
 7558W        W23692  11.828  15.012   2.581 -0.1327 -0.1718 -0.1428
 7559W        W23693  10.479   1.932  11.651 -0.3393 -0.1404  0.0210
 7560W        W23694  11.444   0.681   0.932 -0.5422 -0.1817 -0.1220
 7561W        W23695  10.970  11.020   4.856 -0.0901  0.1586  0.0208
 7562W        W23696  11.278   2.777  14.515  0.1948 -0.0364  0.1351
 7563W        W23697   2.187  18.486   3.431  0.3413 -0.1542  0.0450
 7564W        W23698  17.165   5.804   0.452  0.2679  0.0879  0.1639
 7565W        W23699   0.843  13.466  12.576  0.0026  0.1167  0.0855
 7566W        W23700  12.068  13.909   1.701  0.2215 -0.0572  0.0920
 7567W        W23701  12.749   5.503  10.089 -0.1184 -0.0611 -0.0143
 7568W        W23702   0.323  13.622  14.931  0.1038  0.0664 -0.3814
 7569W        W23703   6.254   1.511  14.652  0.1587 -0.0440  0.0207
 7570W        W23704   4.954  17.551  11.168  0.2922 -0.2558 -0.0112
 7571W        W23705  19.246  18.638   0.395 -0.2892  0.1567 -0.1667
 7572W        W23706  17.637  16.187  13.600 -0.2313 -0.0205 -0.2318
 7573W        W23707   1.005   5.356   1.048 -0.2588 -0.1261  0.0175
 7574W        W23708  18.973  10.284  12.542 -0.0335 -0.0495  0.0687
 7575W        W23709   1.631  15.059  12.476 -0.3480  0.0975  0.2732
 7576W        W23710  11.998   8.765   0.858 -0.2088  0.1979  0.1865
 7577W        W23711  10.938  14.387   4.348  0.0150  0.0721  0.1836
 7578W        W23712   6.733   6.402   2.703  0.1570  0.1045  0.4945
 7579W        W23713  13.571   0.118  13.103  0.1979 -0.0580  0.2677
 7580W        W23714   4.910   7.324   1.911 -0.1795  0.0787 -0.2492
 7581W        W23715   0.032  11.375   2.678  0.1565 -0.1631  0.0577
 7582W        W23716  12.928   1.078  11.633  0.2157 -0.2640 -0.2374
 7583W        W23717   7.278   2.649   3.816  0.4118  0.2061 -0.3552
 7584W        W23718  10.081  14.737  13.595 -0.2152 -0.2986  0.1031
 7585W        W23719  13.522  16.418  12.140  0.1119  0.2283 -0.0162
 7586W        W23720   5.737  10.361  11.549 -0.0848  0.2941 -0.2033
 7587W        W23721  16.742  13.031  10.111 -0.2607 -0.2510 -0.4159
 7588W        W23722  16.572   3.399   4.535 -0.0005 -0.0833 -0.2463
 7589W        W23723  16.496  14.501  12.234  0.2339  0.0148 -0.1070
 7590W        W23724   6.207   6.433  14.458 -0.1543  0.0069  0.0887
 7591W        W23725  12.012  11.091   1.553 -0.0980  0.0692 -0.2733
 7592W        W23726   9.989  18.846   2.482 -0.1254 -0.0345 -0.2243
 7593W        W23727  16.050   9.850   1.918  0.2247 -0.0348  0.1574
 7594W        W23728  10.421  11.045  13.284 -0.1067  0.0517 -0.0243
 7595W        W23729  18.159   2.391  12.196  0.6461 -0.2350 -0.2168
 7596W        W23730  11.120  11.393   2.292 -0.0585  0.0943  0.1054
 7597W        W23731   0.920  14.977   2.182 -0.0682 -0.0971  0.0569
 7598W        W23732  18.749  12.617   2.469  0.3346  0.2351 -0.2557
 7599W        W23733  18.980   6.553   9.780 -0.0020 -0.0659  0.1636
 7600W        W23734  12.784   1.852   1.582  0.0225  0.2525 -0.0557
 7601W        W23735   4.828  11.404  12.201  0.0932  0.1695  0.1773
 7602W        W23736  17.998   8.028   9.678 -0.1903 -0.1818  0.1278
 7603W        W23737   7.137   0.281   2.424 -0.1404  0.0147  0.1300
 7604W        W23738   4.173  17.043  13.429 -0.3104  0.1572 -0.0015
 7605W        W23739  13.487  15.642  12.519 -0.1545 -0.1015 -0.1693
 7606W        W23740  10.776   5.401   2.527  0.0976 -0.2336  0.1283
 7607W        W23741  13.799  10.319   0.719  0.2489 -0.2219  0.2380
 7608W        W23742   3.398  16.410   2.538 -0.3464  0.0907  0.4955
 7609W        W23743  11.635   5.288  14.192 -0.0416  0.0164  0.0133
 7610W        W23744  14.514  15.147  11.070  0.1710  0.0236  0.0040
 7611W        W23745   7.531   8.955   2.064 -0.1070 -0.1463 -0.0697
 7612W        W23746   6.566  16.539   1.581  0.0405  0.0450  0.0182
 7613W        W23747  12.196  11.174   4.960 -0.2181 -0.1120  0.0520
 7614W        W23748  12.987   1.111  12.331  0.1501 -0.1449  0.0670
 7615W        W23749  19.143   6.545  14.938  0.2327 -0.0221 -0.0341
 7616W        W23750   0.726   1.384  11.989  0.0234  0.2344 -0.1917
 7617W        W23751  10.816   9.800  10.654  0.0740  0.0086  0.1141
 7618W        W23752   0.017  12.116  11.825  0.0350  0.1895 -0.1862
 7619W        W23753   6.142   1.416  13.158 -0.0924 -0.0092  0.0318
 7620W        W23754  16.326  11.104   2.734  0.4511 -0.1216  0.0267
 7621W        W23755   5.847  14.289   1.978 -0.3779 -0.0377 -0.3351
 7622W        W23756   5.805  13.428  11.838 -0.2636  0.1271  0.1636
 7623W        W23757  10.373  14.939  14.533 -0.2288 -0.1907  0.2613
 7624W        W23758   1.942  17.872   0.451 -0.2000  0.3770  0.1424
 7625W        W23759   6.366  13.591   1.780 -0.0010 -0.0123  0.1081
 7626W        W23760  14.341  15.208   0.214 -0.3351  0.2517  0.0996
 7627W        W23761   1.631   6.610  14.943 -0.3000 -0.0683 -0.3349
 7628W        W23762  12.145  18.690   4.477 -0.1134  0.1316  0.1113
 7629W        W23763   5.926   4.597   1.132 -0.1600  0.1547 -0.0464
 7630W        W23764  16.538   2.674  12.708  0.1412  0.2610 -0.0700
 7631W        W23765  18.292  14.811  13.810 -0.2721 -0.5335 -0.0982
 7632W        W23766  12.783  16.395  10.132  0.0361 -0.1053 -0.0018
 7633W        W23767  15.193   3.694   0.054  0.0728  0.3262 -0.0680
 7634W        W23768  18.546  13.527  10.580 -0.0888  0.0588  0.0757
 7635W        W23769  15.658   4.474  14.655 -0.0020 -0.0988  0.0177
 7636W        W23770  14.299  13.708   3.486  0.0722 -0.3716 -0.0159
 7637W        W23771   3.593  19.299   0.429 -0.1227 -0.2393  0.1527
 7638W        W23772  16.396  12.045   3.301 -0.2040  0.5304  0.0701
 7639W        W23773  15.881  12.343  12.681  0.0177  0.1701  0.0380
 7640W        W23774  10.970   4.950  10.712 -0.0323  0.1742  0.3362
 7641W        W23775  11.241  10.049  11.526  0.1431 -0.3493  0.0152
 7642W        W23776   2.694  10.031  14.175  0.3918 -0.1290  0.0449
 7643W        W23777  16.542   5.152  10.203 -0.1828  0.1871 -0.0005
 7644W        W23778   1.302  12.174  11.293  0.0537 -0.1491 -0.2113
 7645W        W23779   5.496  13.680  11.494  0.0756 -0.3493  0.0436
 7646W        W23780   4.371  11.316  10.931 -0.1512  0.0704  0.0042
 7647W        W23781  14.115   9.965   3.370 -0.1884  0.2223  0.3599
 7648W        W23782   4.666  18.889   2.843 -0.1469  0.2529  0.0452
 7649W        W23783   5.927   5.801  11.021  0.1141 -0.0660  0.1447
 7650W        W23784   7.490   9.847   1.494  0.1612  0.3533 -0.0087
 7651W        W23785   7.888  11.809   0.907 -0.1434  0.4629 -0.1309
 7652W        W23786   0.667   7.454   2.030  0.0854 -0.1957 -0.1139
 7653W        W23787   7.779   6.580   2.131  0.0638 -0.0732 -0.1481
 7654W        W23788   1.133  12.123  13.117 -0.3197 -0.0072  0.2198
 7655W        W23789  15.996   6.370  14.594 -0.0211 -0.1389  0.1198
 7656W        W23790  14.532  13.812  13.589  0.0102  0.4267 -0.0869
 7657W        W23791  17.092  15.704  13.413  0.2270 -0.5269 -0.1243
 7658W        W23792   7.885   0.759   4.071 -0.2919 -0.0573  0.2713
 7659W        W23793   0.874  18.702   5.665  0.4427 -0.2712  0.1569
 7660W        W23794  14.511   6.060   4.533  0.1037  0.2387 -0.0115
 7661W        W23795   1.848  14.904  12.917  0.1872 -0.3710 -0.1737
 7662W        W23796  17.871  10.092  10.209 -0.2164 -0.1390 -0.0851
 7663W        W23797  12.079   8.417   9.493 -0.0467 -0.1626 -0.1113
 7664W        W23798   4.396  17.915   5.195  0.1286 -0.0792  0.0889
 7665W        W23799  14.955  17.726  10.424  0.0860  0.2975 -0.0578
 7666W        W23800   2.809  11.945  10.616  0.1707  0.0132 -0.0017
 7667W        W23801  13.653   5.306   2.811 -0.2097 -0.3337 -0.0160
 7668W        W23802  16.165  18.302  12.710 -0.3847 -0.0406 -0.1816
 7669W        W23803   9.674  16.878  11.557 -0.3107  0.2507  0.0757
 7670W        W23804  12.284   4.838   0.279 -0.2665  0.4661 -0.1113
 7671W        W23805  16.378   0.744  14.769  0.1563  0.0879 -0.1575
 7672W        W23806   4.285  15.087   4.083  0.0914  0.1055 -0.2161
 7673W        W23807   2.050   2.568   1.283 -0.0661  0.2048  0.1663
 7674W        W23808  19.263   8.854   3.616  0.5551  0.1568 -0.2518
 7675W        W23809  11.937  14.745   0.463 -0.2903  0.1850 -0.0397
 7676W        W23810   8.182   1.140  12.592  0.0734 -0.0550 -0.0907
 7677W        W23811   6.167  17.218   1.048 -0.2461  0.0535 -0.0019
 7678W        W23812  17.857   4.421  14.447 -0.1767 -0.1605  0.2313
 7679W        W23813  15.406   8.478  13.634  0.2191  0.0482  0.2196
 7680W        W23814  15.546  15.364  12.430  0.0120 -0.3132  0.1724
 7681W        W23815  11.465  17.807   2.964  0.0922 -0.0296 -0.0116
 7682W        W23816   9.001   2.627   5.884  0.0167  0.2352  0.1817
 7683W        W23817   3.072   5.981   3.506 -0.1979  0.4614 -0.0987
 7684W        W23818  19.053  10.251   3.431  0.0614 -0.1746  0.0553
 7685W        W23819  14.178  15.446  14.228  0.0345  0.2082 -0.1662
 7686W        W23820   2.753  12.799   2.754  0.1282 -0.1976  0.3880
 7687W        W23821  16.985  10.301   4.194  0.0313  0.3192  0.2879
 7688W        W23822  10.669  18.427   1.436  0.4618  0.3727 -0.2402
 7689W        W23823   4.748   3.472   3.546 -0.2583 -0.0161 -0.0665
 7690W        W23824  17.620   8.794  12.692 -0.1600 -0.0325 -0.0249
 7691W        W23825   6.198   6.147  14.895  0.0866 -0.0231  0.0293
 7692W        W23826   2.615   2.397   1.334 -0.2814  0.0753  0.3816
 7693W        W23827   8.478   3.221   4.496 -0.3444  0.1960  0.1447
 7694W        W23828   7.263  15.870   9.074 -0.4974 -0.2223 -0.3262
 7695W        W23829   0.817  16.547   4.224  0.4042 -0.3917  0.0179
 7696W        W23830   5.530  18.864  10.380  0.0704 -0.1778  0.1744
 7697W        W23831  15.887   8.707   0.665 -0.3006 -0.2521  0.1121
 7698W        W23832   6.769  18.134  14.518  0.0766 -0.1658 -0.7135
 7699W        W23833  12.870   8.617   5.072  0.0424 -0.3231 -0.1651
 7700W        W23834   6.097   3.356   4.537  0.1146 -0.1524 -0.6088
 7701W        W23835   6.268  18.652   0.517 -0.1183 -0.1795  0.2069
 7702W        W23836  11.100   4.483  10.939 -0.0705 -0.2320 -0.1948
 7703W        W23837  14.742  17.295   3.171 -0.1805 -0.3239 -0.2765
 7704W        W23838   0.277   7.300   3.038  0.2299  0.0306 -0.0356
 7705W        W23839   8.964  14.384  12.346  0.0803  0.1503  0.0724
 7706W        W23840   0.712  12.877   2.200  0.2256 -0.1233  0.1173
 7707W        W23841  15.956  14.604   3.976 -0.0831  0.1229  0.0697
 7708W        W23842  13.748  10.229  12.665 -0.1859 -0.1777 -0.1818
 7709W        W23843   3.473  18.821  13.233 -0.1818 -0.1846  0.1927
 7710W        W23844   3.166   3.678   0.671  0.0609 -0.2595  0.2511
 7711W        W23845  12.845   0.749  14.164 -0.4513  0.0712 -0.0766
 7712W        W23846   1.699  14.961   1.550  0.0465  0.0166  0.1320
 7713W        W23847   9.254  15.551  11.039  0.1145  0.0514  0.0942
 7714W        W23848   5.748  12.110  14.512  0.1307 -0.0973 -0.1450
 7715W        W23849   2.620   8.729   0.780 -0.2116  0.0476  0.2947
 7716W        W23850  14.997   7.887   0.047  0.2800  0.1197 -0.0501
 7717W        W23851   2.457   4.360   0.463 -0.1261  0.1214  0.1676
 7718W        W23852   9.555  18.850  11.160 -0.0702  0.0305 -0.2136
 7719W        W23853   0.871  16.396   1.708 -0.0457  0.0333  0.1350
 7720W        W23854  17.328   2.533  13.329  0.3731 -0.0260  0.2581
 7721W        W23855   2.274   5.884   9.908  0.0085 -0.0893 -0.3449
 7722W        W23856  12.414  14.436  12.873  0.2322 -0.1255  0.2670
 7723W        W23857  14.126   1.976  10.658 -0.0679 -0.0019  0.1143
 7724W        W23858   4.689  13.395   2.306 -0.1451  0.3456 -0.3212
 7725W        W23859   0.674  18.451   3.146 -0.2410 -0.0962  0.0018
 7726W        W23860   5.405  16.829  13.944 -0.3262 -0.3746 -0.0526
 7727W        W23861   5.450   4.919   1.037  0.4224 -0.1698  0.1486
 7728W        W23862  11.971  16.788  12.306  0.3412 -0.1320 -0.2557
 7729W        W23863  17.005   5.592   9.895  0.1874  0.2815 -0.5513
 7730W        W23864   1.899   3.783   1.560  0.2916  0.1093  0.0613
 7731W        W23865  17.413  11.534  12.144  0.1924  0.2328  0.3571
 7732W        W23866  17.547  18.084  12.242 -0.2497 -0.0822  0.1012
 7733W        W23867   4.844  15.183  11.476 -0.0147 -0.1420 -0.0120
 7734W        W23868  16.022  19.197  11.429 -0.0438 -0.3115  0.2633
 7735W        W23869   9.242  16.401   2.121  0.0307  0.2140  0.1899
 7736W        W23870  12.110  10.370  13.467 -0.0618 -0.1302  0.0764
 7737W        W23871  14.536  14.670   3.773  0.1187 -0.0637  0.1588
 7738W        W23872   5.933   3.670   0.644 -0.4530  0.0685 -0.0801
 7739W        W23873   7.820   2.522  13.919 -0.3469  0.2365  0.0491
 7740W        W23874  11.396  10.791   3.545  0.0045  0.1006  0.1295
 7741W        W23875  15.690   9.015  14.816  0.2698  0.3376 -0.1746
 7742W        W23876   8.458   5.428   1.492  0.1062 -0.0012  0.1858
 7743W        W23877  18.307  18.711   1.443 -0.3399  0.0937  0.0925
 7744W        W23878  18.886  19.235  11.030 -0.1712  0.0665 -0.2923
 7745W        W23879   4.834  19.108  10.484  0.1556 -0.3573 -0.1500
 7746W        W23880   8.388  15.030  11.015 -0.4927 -0.0757  0.1852
 7747W        W23881   3.887  17.310   3.657  0.5439 -0.1550 -0.0290
 7748W        W23882   5.041  16.723   4.404 -0.1376  0.0475 -0.0186
 7749W        W23883   4.178   7.719   1.279  0.0661  0.4343 -0.1663
 7750W        W23884  14.578   5.335  11.420  0.0323  0.3221 -0.0501
 7751W        W23885   6.917  17.178   4.334  0.0215  0.3943  0.4312
 7752W        W23886  15.088   8.033  13.732  0.0909  0.1548 -0.1199
 7753W        W23887  18.336   8.948   0.648  0.2280  0.4464 -0.3179
 7754W        W23888   0.892   2.327  10.797 -0.3131 -0.0295  0.0128
 7755W        W23889   8.663   6.156   3.260  0.0852 -0.0117  0.2621
 7756W        W23890  12.550  12.153   2.617  0.3891  0.1866 -0.3302
 7757W        W23891  14.300  10.075   2.168  0.0784 -0.1913 -0.0440
 7758W        W23892  13.031   6.513   2.574 -0.5289  0.0261 -0.1928
 7759W        W23893  18.555   4.459   2.158 -0.0217  0.0248  0.1365
 7760W        W23894  15.393   1.521  15.006 -0.2329  0.0557  0.3912
 7761W        W23895   1.202  18.336   2.280 -0.1011 -0.0328  0.1004
 7762W        W23896  16.108   0.454   4.055  0.1572  0.2139  0.2062
 7763W        W23897   3.297  13.424   3.200 -0.3809  0.0211  0.0612
 7764W        W23898   1.639  16.906   1.293  0.1031 -0.1429 -0.0894
 7765W        W23899  16.967  18.352   4.594  0.3394 -0.3342  0.1667
 7766W        W23900  14.050   8.101  14.794  0.3097 -0.1702 -0.0946
 7767W        W23901  10.005   3.854   4.424 -0.1021  0.3982  0.0908
 7768W        W23902  16.074   3.951  12.064 -0.0270 -0.2314 -0.1890
 7769W        W23903  14.223   6.599   0.202  0.0005  0.0895  0.1516
 7770W        W23904  15.006   7.706  14.564  0.1484 -0.2340 -0.1768
 7771W        W23905   6.563   2.911  11.082  0.0353  0.2232 -0.0503
 7772W        W23906  16.876  18.377   9.833  0.2555  0.1961  0.1193
 7773W        W23907  14.777  19.311   0.319  0.0552 -0.0419  0.0876
 7774W        W23908   8.833   7.187   3.165 -0.0173  0.0072  0.1381
 7775W        W23909  13.497  16.977  11.800  0.0603 -0.1111 -0.2110
 7776W        W23910   5.070   0.888   4.686 -0.0258 -0.1176 -0.0048
 7777W        W23911   2.861  18.853  13.819  0.0504  0.2029  0.3531
 7778W        W23912   4.993  12.309   0.116 -0.0535  0.3473 -0.0008
 7779W        W23913  16.878   8.532   4.444 -0.0034  0.2125  0.2526
 7780W        W23914   9.804   0.540   4.875  0.4399  0.0816  0.1345
 7781W        W23915  17.319   9.929   5.467  0.1503  0.1856 -0.1685
 7782W        W23916  17.604   6.866   4.068 -0.0319 -0.0161  0.0409
 7783W        W23917  12.795  15.312   0.029  0.1437  0.2999  0.1296
 7784W        W23918   3.223  12.075   5.917 -0.4503  0.1326  0.1520
 7785W        W23919   6.843  15.115  14.706  0.2014 -0.2753  0.0107
 7786W        W23920  10.908   4.990   1.846 -0.2588 -0.0482 -0.0190
 7787W        W23921   3.106   5.084  14.929 -0.0222 -0.0437  0.0390
 7788W        W23922   7.612   8.436   3.548  0.0251 -0.0455  0.2287
 7789W        W23923   9.561   8.753   1.496 -0.0010  0.0947 -0.0481
 7790W        W23924  12.087  16.337   2.350 -0.1245 -0.0277  0.0701
 7791W        W23925  17.782   7.286  14.634  0.1521  0.0767 -0.2623
 7792W        W23926   7.685  10.354  14.344  0.0608 -0.3370  0.3694
 7793W        W23927  14.951   5.364   5.071  0.1285  0.1154 -0.3371
 7794W        W23928  11.667   8.390   4.200  0.2428 -0.2640 -0.0008
 7795W        W23929   3.510   7.065   3.648  0.0803  0.2461 -0.0077
 7796W        W23930   2.509  18.246   0.862  0.0530 -0.0038  0.1419
 7797W        W23931   3.842   4.510   0.684 -0.0267  0.1292  0.0787
 7798W        W23932  11.686   4.631   4.991 -0.3253  0.1103 -0.1747
 7799W        W23933   7.360   9.382  11.686 -0.0045  0.4410  0.1010
 7800W        W23934  18.718   2.430  14.935 -0.0099  0.1893  0.3637
 7801W        W23935   5.745   9.042   1.926  0.2717  0.1068 -0.0201
 7802W        W23936  14.858  16.885  14.681  0.1425  0.1568  0.5037
 7803W        W23937   1.493   0.022  13.210 -0.1926 -0.1979 -0.4800
 7804W        W23938  14.998   3.031   1.064  0.4727  0.2531 -0.1019
 7805W        W23939   2.347   5.002   1.567  0.0820 -0.1032 -0.0365
 7806W        W23940  15.251  16.283   9.684  0.0515  0.0483 -0.5499
 7807W        W23941  10.787   2.512  14.303  0.0367 -0.1582  0.1988
 7808W        W23942   3.456   4.243   2.378 -0.0196 -0.2105 -0.1080
 7809W        W23943  14.274   8.482   1.325 -0.0291 -0.0098  0.0635
 7810W        W23944   5.786   9.541   1.921 -0.2218 -0.2895 -0.3569
 7811W        W23945   7.960   4.615   1.925 -0.2046 -0.0934  0.0529
 7812W        W23946  14.357   0.724   0.607 -0.1325  0.1463 -0.0286
 7813W        W23947  16.929  13.215  13.057  0.0462  0.1628  0.1670
 7814W        W23948  13.012   2.509  12.928  0.0101 -0.2635 -0.1111
 7815W        W23949  19.038   5.691  13.398 -0.4608 -0.4465 -0.0601
 7816W        W23950  15.799  15.603  12.810  0.0084 -0.0716 -0.0983
 7817W        W23951   2.170  14.180   2.005  0.4532  0.1566 -0.0043
 7818W        W23952   2.548   6.250  10.113 -0.1256  0.1558  0.0079
 7819W        W23953  17.862   4.179   4.034  0.3373  0.1662 -0.0824
 7820W        W23954  18.515  16.173  13.967 -0.2775  0.2411  0.1791
 7821W        W23955   0.532  15.398   0.820 -0.1085 -0.1155 -0.0637
 7822W        W23956   5.694  11.233  12.520 -0.1101  0.1410 -0.1683
 7823W        W23957  16.500  11.547   3.882 -0.0734 -0.0789  0.0299
 7824W        W23958   6.220   8.362   3.817 -0.1979  0.1867  0.0429
 7825W        W23959   8.512   0.986   4.913  0.2281 -0.3368  0.0080
 7826W        W23960  19.173   4.658   3.390  0.1044 -0.0122  0.0098
 7827W        W23961   2.790   1.773  11.307  0.1174 -0.1691  0.1096
 7828W        W23962   6.617   4.212  12.130  0.2839 -0.4045 -0.1373
 7829W        W23963  15.925  16.669  14.198 -0.2771  0.2767 -0.1302
 7830W        W23964   7.210  11.430   2.716 -0.0763 -0.0610 -0.4010
 7831W        W23965   8.140   3.198   5.162 -0.2591 -0.1235  0.1401
 7832W        W23966   6.651   6.423   1.290  0.0135  0.1219 -0.2017
 7833W        W23967   9.514   1.483   4.088  0.3018  0.1005  0.3991
 7834W        W23968   1.324   0.830   3.285 -0.0843 -0.0653 -0.2503
 7835W        W23969   6.381   7.227   3.744  0.1174 -0.2230  0.0060
 7836W        W23970  18.636  11.562  12.801  0.2776  0.0116 -0.2328
 7837W        W23971   6.608   4.813   1.642  0.0986  0.0726  0.3471
 7838W        W23972  18.981   3.409   2.051 -0.2077 -0.1165 -0.0114
 7839W        W23973  14.083   4.983   0.142 -0.0420  0.2057  0.1395
 7840W        W23974   0.720  16.860  14.095  0.0031 -0.0968 -0.5168
 7841W        W23975   8.668   4.026  11.897  0.0473  0.1247  0.1493
 7842W        W23976   9.439  11.318  11.205  0.0637  0.0543 -0.2531
 7843W        W23977  13.643  11.916   0.906  0.0053  0.2408 -0.1481
 7844W        W23978  12.061  14.696   4.516  0.0409  0.2399  0.0075
 7845W        W23979   7.501   2.080   4.574 -0.1277  0.0112 -0.0656
 7846W        W23980  13.715   9.367  14.053 -0.0940  0.3145 -0.0078
 7847W        W23981   2.122  16.933   5.595 -0.0094  0.0933 -0.2128
 7848W        W23982  16.645   4.570   3.597 -0.0641  0.0527 -0.1057
 7849W        W23983   1.691   1.259   2.641  0.1300 -0.1965 -0.0618
 7850W        W23984  16.921   6.485  10.969 -0.1569  0.1327 -0.0144
 7851W        W23985   0.155   8.517   4.521 -0.0132 -0.0461 -0.1178
 7852W        W23986   0.698   9.806   4.701  0.0652 -0.1762 -0.0204
 7853W        W23987   0.438  17.732   2.531 -0.2933 -0.0693 -0.2310
 7854W        W23988  15.140  11.805   1.833 -0.0992 -0.1040  0.0498
 7855W        W23989   2.088   9.324  14.082  0.1491  0.0873  0.0034
 7856W        W23990  18.266  18.062   1.589  0.0970 -0.0148  0.0396
 7857W        W23991  16.638   4.688  12.554 -0.0259  0.2915 -0.4017
 7858W        W23992   1.158  13.463   4.091  0.2157  0.3070  0.0953
 7859W        W23993   7.551   6.342   3.597 -0.0652 -0.2711 -0.2185
 7860W        W23994   3.629   3.724  13.007 -0.3848 -0.0611  0.0026
 7861W        W23995   2.761  13.018   4.166  0.1345 -0.1590 -0.1449
 7862W        W23996   3.649   7.541  13.065 -0.0368  0.0617  0.2402
 7863W        W23997   9.450   3.778   2.127 -0.1459  0.2113  0.2225
 7864W        W23998   3.605  10.475  11.377 -0.0579 -0.0193  0.4341
 7865W        W23999   8.751  11.610   2.935  0.2000 -0.0849  0.0128
 7866W        W24000  16.439  13.627   2.666  0.0345  0.0852  0.1882
 7867W        W24001  12.414   3.034   5.500 -0.1027  0.2135  0.0542
 7868W        W24002  11.670  10.148  11.259 -0.1339  0.1122 -0.4473
 7869W        W24003   0.987   7.853   0.226  0.0212  0.1154 -0.1795
 7870W        W24004   6.297  10.422   3.166  0.1183  0.0020 -0.0194
 7871W        W24005  14.517  17.604   0.045 -0.0693  0.2730 -0.2089
 7872W        W24006  11.221   6.609   0.941 -0.1820 -0.0633  0.0944
 7873W        W24007  10.846   0.373  12.258  0.1317 -0.0709 -0.1451
 7874W        W24008  10.717  10.135  11.882 -0.0658  0.3993  0.3894
 7875W        W24009  15.945   0.341   0.573 -0.2346  0.0210  0.1373
 7876W        W24010  16.270  11.668  14.357 -0.0876  0.0160  0.0073
 7877W        W24011   3.736  12.560   4.465  0.0786  0.3501 -0.0740
 7878W        W24012  14.924  11.363   2.984 -0.0986  0.0603  0.1286
 7879W        W24013   0.302   2.863   1.777  0.1802  0.1745  0.0986
 7880W        W24014   9.148  11.724   3.775  0.0305 -0.0997 -0.0937
 7881W        W24015  18.615   9.302   1.402 -0.1811  0.2501  0.2752
 7882W        W24016  16.817  18.077   3.694 -0.0620  0.0628 -0.3189
 7883W        W24017  15.826  14.223   3.669 -0.1139 -0.0454 -0.0856
 7884W        W24018  16.070  11.970   2.934  0.1522 -0.0682  0.1591
 7885W        W24019  17.205  15.582   4.173  0.2031  0.0573 -0.1000
 7886W        W24020  13.130  10.836  14.711 -0.0657 -0.0351 -0.2347
 7887W        W24021  12.221  12.459   0.209  0.1879 -0.0810  0.0945
 7888W        W24022   6.215   1.363  11.721  0.1258 -0.1562 -0.1596
 7889W        W24023   1.506   3.718  14.108  0.2278  0.1873  0.1301
 7890W        W24024   4.874  11.248   3.820  0.1011 -0.2041 -0.1200
 7891W        W24025   4.284  10.727   2.924  0.0926 -0.3188 -0.1626
 7892W        W24026   7.262   8.478   3.975 -0.3405  0.2214 -0.2940
 7893W        W24027   6.573  11.557   1.998 -0.1832  0.1214  0.1122
 7894W        W24028  11.651  14.554   1.343  0.0224 -0.0129 -0.3339
 7895W        W24029   8.403   7.864   0.920  0.0438 -0.5170 -0.2671
 7896W        W24030   0.149   1.018   5.232  0.1769  0.3298  0.2124
 7897W        W24031   5.677  14.446  13.091 -0.1755 -0.2086 -0.0643
 7898W        W24032  16.556  14.998  12.879  0.0148 -0.2883 -0.1913
 7899W        W24033  17.469  14.376  13.484  0.1685  0.0051  0.2101
 7900W        W24034   3.002   1.015  13.150  0.2829 -0.2892 -0.0160
 7901W        W24035   8.806   4.518  11.248  0.0871  0.2163 -0.2225
 7902W        W24036   1.726  12.739  12.867 -0.1649  0.3059 -0.0720
 7903W        W24037  11.140   4.441   0.475  0.1658 -0.0205  0.0177
 7904W        W24038   5.353  10.276   0.277  0.2148 -0.1742  0.0101
 7905W        W24039   3.428   5.737  10.490 -0.2047 -0.1339  0.1001
 7906W        W24040  11.498   1.490   1.408 -0.0429  0.1683  0.0355
 7907W        W24041  11.033  12.539  14.313 -0.0770  0.1153  0.1208
 7908W        W24042   1.895  18.155   4.662 -0.0290 -0.3037  0.1274
 7909W        W24043  10.283  15.205  12.495 -0.1426 -0.0243 -0.3241
 7910W        W24044  19.302  12.959  11.212 -0.1345 -0.0231  0.0903
 7911W        W24045  11.380   4.683   4.617 -0.0399  0.0571 -0.2553
 7912W        W24046  13.213   6.230   2.981 -0.0494 -0.0123 -0.1359
 7913W        W24047   9.683  16.943  13.815 -0.0191 -0.2226 -0.0860
 7914W        W24048   2.249   9.377  13.263 -0.2345  0.1572  0.1274
 7915W        W24049  17.539  15.963   0.277 -0.2065  0.0437 -0.1329
 7916W        W24050   5.159  13.735   1.799  0.0321 -0.3592  0.3125
 7917W        W24051  16.297  16.362  12.893 -0.2942  0.3223 -0.4334
 7918W        W24052   6.390  19.175   1.936 -0.1949 -0.0154 -0.2873
 7919W        W24053  10.907  19.247   1.585 -0.0172  0.0461  0.1091
 7920W        W24054  15.443   9.426  10.950  0.1835 -0.0804  0.0949
 7921W        W24055  11.363  11.832  11.964 -0.0302 -0.2797 -0.2793
 7922W        W24056  13.668  17.724   3.970 -0.5478  0.0112 -0.2775
 7923W        W24057  11.254  16.161   3.997  0.0352 -0.0326  0.0210
 7924W        W24058  15.715   4.562   3.615  0.0792  0.0596 -0.1102
 7925W        W24059  11.829   1.596   1.781  0.1599 -0.3012 -0.1832
 7926W        W24060   3.165  18.386   5.382 -0.1598  0.1669 -0.1538
 7927W        W24061  17.676  12.691  12.813 -0.0694  0.1553 -0.0091
 7928W        W24062   5.667  18.448  14.965 -0.1142  0.1674 -0.2090
 7929W        W24063   3.229   4.697  11.017 -0.0054 -0.0747 -0.2038
 7930W        W24064   6.149   1.408   5.027 -0.1841 -0.2582 -0.0539
 7931W        W24065  11.810  12.037   3.791  0.0960 -0.1743 -0.3966
 7932W        W24066   7.463  16.321  12.872  0.1615  0.0690 -0.3392
 7933W        W24067   7.442  16.785   0.114  0.3314 -0.1429  0.0130
 7934W        W24068   9.051   5.941  12.390  0.2765 -0.3441  0.1442
 7935W        W24069   0.693   2.626   1.695  0.0157  0.4815  0.0331
 7936W        W24070  11.292  14.172   0.723 -0.3035 -0.1276  0.0772
 7937W        W24071   7.808   2.478  14.749  0.1574  0.0444 -0.0697
 7938W        W24072   2.901  16.602   4.745 -0.3006  0.1240 -0.0765
 7939W        W24073  17.018  18.623  10.674  0.0366 -0.3102 -0.1270
 7940W        W24074   8.139   9.711  10.321  0.4567 -0.1840  0.1399
 7941W        W24075   4.297  13.128  12.638 -0.2272  0.1365  0.0138
 7942W        W24076  14.625   5.863   3.936  0.0231 -0.1965  0.3637
 7943W        W24077  10.571   3.942  14.438 -0.0275  0.0653  0.1368
 7944W        W24078  14.125  10.082   9.506 -0.1070 -0.0563  0.3705
 7945W        W24079   9.068   6.569   2.267 -0.0537 -0.1625 -0.0502
 7946W        W24080   0.281   0.707  12.953  0.1158  0.5706  0.2439
 7947W        W24081  18.946   1.976   0.127  0.0263 -0.2310 -0.0782
 7948W        W24082  14.060   6.183   1.657  0.1138 -0.0038  0.2899
 7949W        W24083  17.271   7.801   3.879 -0.0777 -0.0224  0.1719
 7950W        W24084   8.668  13.747   2.640  0.1273  0.0720 -0.2160
 7951W        W24085  12.211  11.587   2.670  0.0336 -0.2954  0.0146
 7952W        W24086  10.668   5.525   3.569  0.1089 -0.0767 -0.1543
 7953W        W24087   5.699   4.937   1.454  0.3111 -0.3917  0.0587
 7954W        W24088  12.938   2.431  14.059  0.0695 -0.1812  0.1848
 7955W        W24089   6.622   4.814  10.788 -0.0843  0.1193  0.0235
 7956W        W24090   4.785  13.309   0.742  0.0614 -0.2640 -0.0454
 7957W        W24091  10.862  14.946  10.528 -0.0360  0.0059 -0.3678
 7958W        W24092   3.824  15.670  12.544 -0.1544 -0.0906 -0.1084
 7959W        W24093  13.335  19.213  14.831 -0.0356 -0.1545 -0.3047
 7960W        W24094   5.418   9.984  10.032  0.1248  0.0506  0.0780
 7961W        W24095  16.719   0.822  13.877 -0.1464 -0.0297  0.2098
 7962W        W24096   7.743   8.192   4.168 -0.0651 -0.0359 -0.2652
 7963W        W24097   4.692   1.409  13.954  0.1783 -0.0526  0.1389
 7964W        W24098   4.628   4.506  12.311  0.2405 -0.3145 -0.1337
 7965W        W24099   8.340   5.072   4.023 -0.2235  0.1526  0.1261
 7966W        W24100   0.054  16.285  13.326 -0.4021  0.2630 -0.0865
 7967W        W24101   5.455  14.132   2.792  0.0996 -0.0292 -0.1580
 7968W        W24102  16.321  11.956   0.322 -0.0110 -0.0938  0.3055
 7969W        W24103  19.120   0.768  12.727  0.0490  0.0810  0.4264
 7970W        W24104  14.705  12.773   9.384  0.2254  0.0891  0.0471
 7971W        W24105  10.400  14.525  10.405  0.0875 -0.1463  0.1525
 7972W        W24106   8.974  12.049   4.133  0.1971  0.0524  0.0895
 7973W        W24107   4.753   8.763  14.799 -0.3735 -0.1502  0.1536
 7974W        W24108  15.690   4.628  13.396  0.2822  0.1786 -0.2314
 7975W        W24109   8.266   1.816   2.505 -0.4280  0.0411  0.0035
 7976W        W24110   5.087   1.473   2.870 -0.1810 -0.1490  0.0605
 7977W        W24111  15.161   9.273   1.985  0.1282 -0.2771 -0.2149
 7978W        W24112   6.752   4.253   0.274  0.2252  0.0737  0.2404
 7979W        W24113   8.288   6.645  14.219  0.0146 -0.2717 -0.1724
 7980W        W24114   8.649   8.154   4.774  0.0556  0.1144 -0.0025
 7981W        W24115  15.828  18.418  14.044  0.1496  0.0085  0.1762
 7982W        W24116  16.065  15.185  12.796 -0.3441  0.2135 -0.1143
 7983W        W24117  13.395  15.869   2.685  0.1257  0.0875  0.1355
 7984W        W24118  14.304   3.943  13.426  0.2948  0.2074 -0.0456
 7985W        W24119  11.741   7.381  11.403  0.0350  0.1210  0.1525
 7986W        W24120  16.744   9.925  12.713 -0.0585 -0.1689 -0.0069
 7987W        W24121  11.777  15.501   2.457 -0.0388  0.3251  0.0089
 7988W        W24122  17.839   3.656   3.347  0.0721  0.1729  0.1033
 7989W        W24123  17.310   4.420   0.343  0.2247 -0.0561 -0.0740
 7990W        W24124   7.810  15.411  14.709  0.2033  0.0161 -0.0302
 7991W        W24125  11.046  14.434  12.991 -0.1596 -0.2224 -0.2560
 7992W        W24126  15.736   8.053  12.898 -0.0232 -0.0728  0.3474
 7993W        W24127   3.514  18.732  14.513  0.0316 -0.0560 -0.0542
 7994W        W24128   7.181   0.516   5.480  0.3182 -0.2679  0.0253
 7995W        W24129   5.520   9.709   2.774 -0.0240 -0.2290 -0.1496
 7996W        W24130   0.407   7.827   3.767  0.0902 -0.0611 -0.0069
 7997W        W24131   9.245   7.634  11.323 -0.0028  0.0123 -0.1072
 7998W        W24132   6.239   0.812   1.597  0.1144  0.0761 -0.0534
 7999W        W24133  12.847  18.827   2.300 -0.0133  0.1952  0.1782
 8000W        W24134   9.030  11.214   1.748 -0.2072 -0.0339  0.4002
 8001W        W24135  17.380  19.081   0.419 -0.1125  0.2160 -0.0429
 8002W        W24136  11.305   7.329  12.662 -0.0514  0.0480  0.0261
 8003W        W24137   8.230   4.208  10.865 -0.0132  0.5127  0.0326
 8004W        W24138  13.431   4.384  13.091 -0.0988  0.2966  0.1102
 8005W        W24139  18.640   0.453   2.520 -0.0196  0.0890  0.3618
 8006W        W24140   1.422  10.755   5.024 -0.0157  0.0740 -0.0117
 8007W        W24141  11.290   6.780  11.926  0.1764  0.0839 -0.0497
 8008W        W24142   7.198   0.293   3.026 -0.7327  0.0213  0.1316
 8009W        W24143  14.562   5.626  11.938 -0.2927 -0.0894 -0.0910
 8010W        W24144  12.511   8.213   0.373  0.1510 -0.0732  0.0304
 8011W        W24145   1.338  17.473  13.550 -0.0719 -0.0082  0.1899
 8012W        W24146  16.810   2.994  13.039  0.0752  0.4533  0.1060
 8013W        W24147   1.445   5.943  12.775  0.0912  0.1137  0.0072
 8014W        W24148  13.228   2.449  14.492 -0.0099  0.2932 -0.2360
 8015W        W24149   5.772   6.184  12.122 -0.0367 -0.3251  0.3316
 8016W        W24150   6.271   8.079  11.153  0.3066  0.2701  0.2096
 8017W        W24151   7.305  14.794  13.153  0.0845 -0.0712 -0.2877
 8018W        W24152  10.254   1.895   2.907 -0.2817  0.1437 -0.0749
 8019W        W24153   5.961   9.032  11.337  0.0144 -0.0577 -0.2225
 8020W        W24154   4.234  15.528  12.744  0.0588 -0.2869 -0.2851
 8021W        W24155  12.918   2.577   3.043 -0.0887  0.2979 -0.0798
 8022W        W24156   1.714   8.008   1.526 -0.1375 -0.0668 -0.2436
 8023W        W24157   3.857  10.900  10.766  0.1976  0.0166 -0.3245
 8024W        W24158   9.742   1.654  13.741  0.2922  0.1390 -0.2700
 8025W        W24159  13.550  18.936  13.053  0.0725 -0.1223  0.0453
 8026W        W24160  18.390  11.109   2.290 -0.0407  0.0491  0.1810
 8027W        W24161   4.174  17.954   1.836 -0.1181  0.0951  0.0201
 8028W        W24162   2.716   6.856  10.229 -0.3382  0.0696 -0.0595
 8029W        W24163   7.816   7.011  12.431  0.0631 -0.0012 -0.1773
 8030W        W24164   4.532   8.883   0.661  0.0194  0.1699  0.1266
 8031W        W24165  14.068  15.288  13.259 -0.0440 -0.0210  0.0725
 8032W        W24166  18.999  12.219  13.391  0.2790  0.0450  0.1789
 8033W        W24167   7.979  11.129   0.680  0.0585 -0.0358 -0.0437
 8034W        W24168   7.171   1.098  13.758 -0.0937  0.0444 -0.0850
 8035W        W24169  12.484  18.543  14.205  0.1489 -0.4594 -0.2827
 8036W        W24170   7.290   3.136   0.856  0.0102  0.2204  0.1092
 8037W        W24171  16.391  15.299   0.500 -0.0333 -0.0429  0.2149
 8038W        W24172   3.555   5.320   2.323  0.0246 -0.0585 -0.1819
 8039W        W24173   9.916   7.037   3.841 -0.2751  0.0349  0.0778
 8040W        W24174   5.327   9.554   3.223  0.1013  0.0600 -0.0297
 8041W        W24175   3.878  18.313   1.659 -0.0937  0.2540 -0.2050
 8042W        W24176   5.907   4.791   4.918 -0.0143  0.0652 -0.2308
 8043W        W24177  15.630  13.306   1.580 -0.0091  0.1196  0.3033
 8044W        W24178   6.469   3.778  11.244  0.0003  0.1388 -0.0839
 8045W        W24179  10.929  15.417   4.308  0.0756  0.0048 -0.0225
 8046W        W24180  13.943   4.873  11.816 -0.1029 -0.0879  0.3052
 8047W        W24181  16.545   1.376   3.227 -0.0792  0.1264  0.0537
 8048W        W24182   5.209  10.022   4.919  0.1016  0.3912 -0.1091
 8049W        W24183   0.422   5.810  14.925  0.0307  0.1848  0.1197
 8050W        W24184   9.968   7.137  11.692  0.0135 -0.0396 -0.2429
 8051W        W24185  17.889  15.157  12.507  0.1123  0.0017 -0.0190
 8052W        W24186  15.821   8.575  13.291 -0.2003 -0.0225 -0.0249
 8053W        W24187  17.163  10.691  14.415 -0.1796  0.0440 -0.0338
 8054W        W24188  17.810  17.814   2.394 -0.0556  0.0097  0.3127
 8055W        W24189   6.250   8.602  14.123  0.1335  0.0112 -0.2368
 8056W        W24190   8.674  19.044   4.550  0.1887 -0.3224  0.1170
 8057W        W24191  18.268  13.953   1.634 -0.0992  0.3351  0.4890
 8058W        W24192  18.925  15.155   4.654  0.0829 -0.3673 -0.1849
 8059W        W24193   3.226   3.215  10.545  0.1084 -0.0716 -0.1583
 8060W        W24194  13.197  16.243  12.966  0.0491 -0.3011 -0.1903
 8061W        W24195  13.679   0.587   4.463 -0.2266 -0.0822 -0.0745
 8062W        W24196   1.017   4.489   2.377 -0.0837 -0.0730 -0.2384
 8063W        W24197   5.998  13.358   5.145 -0.3705  0.3358  0.0304
 8064W        W24198   7.110   8.470  13.348  0.1828 -0.1726  0.2352
 8065W        W24199  16.239   2.439   4.059 -0.0260  0.0868 -0.1917
 8066W        W24200   7.570   0.499   2.751  0.1618  0.2253  0.3797
 8067W        W24201  11.515  11.276  13.691  0.0010 -0.5403  0.0468
 8068W        W24202   3.796  18.656   2.931  0.0177 -0.0494 -0.0201
 8069W        W24203   2.035   5.481   4.463  0.1436  0.0618  0.0309
 8070W        W24204  17.732   8.086  10.818  0.3201  0.1908  0.1045
 8071W        W24205   9.768  14.875   2.338 -0.0880  0.0280  0.1939
 8072W        W24206   7.854   5.405  13.983  0.0077  0.1160  0.3246
 8073W        W24207  10.009   0.864  12.390 -0.3962 -0.0366  0.1006
 8074W        W24208  16.620   1.924  11.708  0.2792 -0.0636 -0.2818
 8075W        W24209   1.770   5.385  12.199 -0.0662  0.1017 -0.0845
 8076W        W24210  15.907  13.816   5.602 -0.0976  0.0342  0.2245
 8077W        W24211   8.059  11.825   4.811  0.0579 -0.1266  0.2196
 8078W        W24212   0.239  19.306   3.491 -0.1670 -0.0320 -0.3015
 8079W        W24213   3.600  11.267   0.121 -0.0654  0.3163 -0.1264
 8080W        W24214   6.940   4.604  12.006 -0.1108 -0.0490 -0.1584
 8081W        W24215  17.335  17.486  10.728  0.1845 -0.1377 -0.0750
 8082W        W24216   7.294  13.521  13.798 -0.0501 -0.5057 -0.1246
 8083W        W24217  18.585  10.241  12.208  0.1499  0.1555 -0.0368
 8084W        W24218   6.181  19.163  10.946  0.2033  0.1152 -0.1209
 8085W        W24219  13.965  14.734  11.971  0.0292  0.0900  0.1394
 8086W        W24220   2.286  16.948  14.038  0.1066 -0.1165 -0.0265
 8087W        W24221  14.831  10.875  11.936  0.0743  0.0232 -0.2718
 8088W        W24222   9.817   2.975   4.363  0.2699 -0.1237  0.1842
 8089W        W24223   0.705   1.598  11.484  0.2069  0.2052  0.0159
 8090W        W24224  10.829  16.125  12.504  0.0358  0.2766 -0.3758
 8091W        W24225  11.327   5.053   0.709 -0.0411 -0.2334  0.2023
 8092W        W24226   2.854  15.290   1.723  0.2091 -0.1034 -0.1453
 8093W        W24227   2.028  12.852  11.094  0.1659  0.3989 -0.2754
 8094W        W24228   3.914   2.695  13.374 -0.2994 -0.3904  0.0901
 8095W        W24229  11.843  13.481  12.610 -0.3499 -0.1837 -0.0054
 8096W        W24230   9.656   2.098   5.992 -0.1807  0.2160 -0.3453
 8097W        W24231   8.567   9.959  14.780  0.0738  0.0537 -0.1324
 8098W        W24232  19.052  11.882   3.305 -0.1110 -0.1102  0.0900
 8099W        W24233   2.938   0.335   1.055 -0.1957 -0.4409  0.2965
 8100W        W24234   9.555  18.750   0.988  0.1196 -0.2408 -0.2687
 8101W        W24235  11.542  13.971  13.521 -0.1856  0.3558 -0.1128
 8102W        W24236   3.179   7.063   0.840 -0.0610 -0.2130  0.2627
 8103W        W24237  13.989  18.604   3.548  0.0701 -0.0488  0.1655
 8104W        W24238  14.773   0.935   1.944 -0.0691 -0.0535 -0.3022
 8105W        W24239  12.573   7.322   1.454 -0.3249  0.0130  0.1141
 8106W        W24240   2.154   9.407   0.247  0.1930 -0.0643  0.1690
 8107W        W24241   2.509   0.167   3.192  0.1044 -0.1595  0.0311
 8108W        W24242  16.193   3.835  14.673  0.0027 -0.0562 -0.2111
 8109W        W24243   0.243  15.644   1.861  0.0805 -0.1404  0.1059
 8110W        W24244  13.843   4.126  13.219  0.0141 -0.1066 -0.2424
 8111W        W24245   2.385  10.919   1.106  0.1130  0.2269 -0.1818
 8112W        W24246   7.887   2.998  14.060  0.0619  0.0798  0.1486
 8113W        W24247  13.784   8.985   2.114 -0.4507  0.1528 -0.1864
 8114W        W24248  14.465  15.038   4.537 -0.2351  0.1676  0.0312
 8115W        W24249   2.013  14.124   2.485 -0.0571 -0.2942 -0.0869
 8116W        W24250   0.857  16.838  10.483 -0.0177 -0.1051  0.0396
 8117W        W24251   9.642   3.947   4.748 -0.1180 -0.6395 -0.3046
 8118W        W24252  16.112  13.122  14.867 -0.2929  0.0716 -0.1638
 8119W        W24253  18.118   4.927   1.415  0.0814  0.0412 -0.0124
 8120W        W24254   1.867  18.498  12.656 -0.1421 -0.3417  0.4493
 8121W        W24255  10.176   2.067   0.804  0.1262 -0.0535  0.2949
 8122W        W24256   9.133   1.334   3.490 -0.1009  0.0316  0.0884
 8123W        W24257  11.269  13.066  14.813  0.0625  0.1793 -0.0308
 8124W        W24258   8.872  12.703   3.494  0.1045 -0.0830  0.0067
 8125W        W24259  18.724  17.105   4.284 -0.1029 -0.1279  0.0224
 8126W        W24260  19.089   0.011   1.512 -0.0656  0.2464 -0.2521
 8127W        W24261   3.194   4.366  14.558  0.2271 -0.1132 -0.3191
 8128W        W24262  15.721  12.629   2.175 -0.0368  0.1111 -0.0672
 8129W        W24263  10.436   3.352  12.147  0.0734 -0.3677 -0.0965
 8130W        W24264  17.230   0.256   1.047  0.1136  0.1034  0.0225
 8131W        W24265  15.095   4.029   4.704 -0.3714 -0.1019 -0.2433
 8132W        W24266   2.128   9.619   4.914 -0.5110 -0.1645 -0.0063
 8133W        W24267  13.570  11.086  11.428  0.1402  0.3519 -0.1231
 8134W        W24268   7.754  13.717   3.478  0.0952 -0.2047  0.0162
 8135W        W24269   6.617  18.371  12.774 -0.2492 -0.1721  0.0563
 8136W        W24270   6.002  17.253   4.442 -0.0167 -0.2404 -0.0329
 8137W        W24271   4.662   1.969  12.574  0.2136 -0.0515  0.1579
 8138W        W24272   3.716   0.974  11.889 -0.2608  0.4210  0.1827
 8139W        W24273   1.282   6.449  12.531  0.0231 -0.0778  0.1732
 8140W        W24274  15.517  18.113  14.525 -0.1946  0.0205  0.1994
 8141W        W24275  15.930   2.751  14.011 -0.0672  0.2054 -0.3202
 8142W        W24276  13.433  13.428   4.042  0.0094  0.2147 -0.0477
 8143W        W24277   2.860  11.602  11.165  0.2261 -0.0789  0.0217
 8144W        W24278  16.262  17.796  12.762  0.0634  0.2766 -0.1207
 8145W        W24279  14.359   0.553  13.457 -0.3053 -0.2232  0.4941
 8146W        W24280  16.691   1.667  14.381 -0.1389 -0.0905 -0.1141
 8147W        W24281   6.324  12.153  13.390  0.1774  0.1198  0.2640
 8148W        W24282  13.442  12.809  10.825  0.2295  0.2647  0.2060
 8149W        W24283   3.602  14.274   5.276  0.2227  0.0392 -0.0888
 8150W        W24284   5.022   2.963  14.299 -0.2756 -0.2773 -0.1971
 8151W        W24285   5.387  16.134   3.793  0.5590 -0.2020 -0.0680
 8152W        W24286   1.442  10.756   3.293  0.1591 -0.1228  0.1893
 8153W        W24287   5.115   5.568  10.438 -0.1255  0.4378 -0.0774
 8154W        W24288  11.007  10.883  12.196 -0.0201  0.0381  0.0019
 8155W        W24289  18.427   5.270  14.694  0.0491  0.3114  0.2532
 8156W        W24290   7.544  11.191  11.479  0.0411 -0.1022  0.3863
 8157W        W24291   4.031  11.157  12.619  0.1662  0.2114 -0.2049
 8158W        W24292  18.461  12.307  10.877 -0.2655 -0.1296  0.0505
 8159W        W24293   2.157  12.457  12.910  0.0953  0.1658  0.1840
 8160W        W24294   3.647  14.217  12.761 -0.0427  0.0901  0.4058
 8161W        W24295  12.994  17.329  14.508 -0.0917 -0.2037 -0.1986
 8162W        W24296  12.480  14.805   1.126 -0.1492  0.0200 -0.4193
 8163W        W24297   0.332   9.691   3.066 -0.0526 -0.0042 -0.3307
 8164W        W24298   9.150  17.182   3.746 -0.0674 -0.1123 -0.2530
 8165W        W24299  11.460  18.269   0.149  0.0027 -0.3309 -0.0850
 8166W        W24300  13.193   1.179  13.935  0.1654 -0.2362  0.1116
 8167W        W24301  18.852  18.004  12.476  0.2023 -0.1699  0.1361
 8168W        W24302   9.174   7.618   3.181  0.1717  0.0163 -0.1792
 8169W        W24303   2.815  17.161  14.682  0.0641 -0.0279  0.1907
 8170W        W24304   3.934  13.295  14.550  0.1771 -0.0925 -0.0591
 8171W        W24305   6.980  15.680   3.590  0.0727  0.1568  0.2980
 8172W        W24306  18.573   6.696  13.631 -0.0548 -0.2253 -0.0794
 8173W        W24307  17.974   8.272  12.090 -0.0825  0.0810 -0.2006
 8174W        W24308  14.835   0.317  11.589  0.4255 -0.0072 -0.2438
 8175W        W24309   9.800  11.315  12.938  0.2642 -0.1211 -0.0159
 8176W        W24310   9.285   9.161  14.288 -0.0025 -0.0964  0.1872
 8177W        W24311  15.612   6.334  11.843 -0.0113 -0.1275 -0.1175
 8178W        W24312   5.999   8.783   3.941 -0.0233  0.2259 -0.0540
 8179W        W24313   6.562  12.290   1.253 -0.0381  0.0145 -0.1521
 8180W        W24314  15.952   8.223  14.748 -0.2504 -0.3378  0.1232
 8181W        W24315  11.823   6.904  11.374 -0.0405  0.1735  0.1585
 8182W        W24316  11.657  15.526   0.116 -0.5984 -0.1291 -0.1542
 8183W        W24317  19.008   6.515   0.368 -0.0487  0.2261 -0.0790
 8184W        W24318  19.302  17.998   0.043 -0.2617  0.2395 -0.0557
 8185W        W24319  15.794   3.965   3.544  0.0282 -0.0406 -0.0670
 8186W        W24320  18.578   6.537  11.244 -0.0090  0.2562  0.0015
 8187W        W24321   0.865  14.302  10.292 -0.0697 -0.2400 -0.2207
 8188W        W24322  13.525   7.119   3.260 -0.2441 -0.0492 -0.1880
 8189W        W24323  17.879   4.676   4.225 -0.3043  0.0297  0.2511
 8190W        W24324   4.374  11.307   4.220  0.2480 -0.1479 -0.1547
 8191W        W24325  18.926  13.483  14.053  0.0898 -0.2991  0.1610
 8192W        W24326  18.007   6.805  10.670 -0.2775 -0.2665  0.0187
 8193W        W24327  16.359  17.283   3.851 -0.0667 -0.2018  0.0580
 8194W        W24328   7.663  11.095  13.706  0.1848 -0.2605 -0.1412
 8195W        W24329  17.973   1.728  11.304 -0.0431  0.0230  0.0357
 8196W        W24330  11.488  16.014  10.761  0.0804  0.0490 -0.1942
 8197W        W24331  14.453   0.378  10.810  0.1151 -0.2895  0.1985
 8198W        W24332  10.435  15.693   1.520  0.0639 -0.2253 -0.0569
 8199W        W24333   4.279   4.236   4.079 -0.0225 -0.1457  0.0941
 8200W        W24334   1.221   4.941  13.395  0.0062  0.2342 -0.1513
 8201W        W24335   9.937  11.862   4.663  0.0239  0.1364  0.3215
 8202W        W24336   7.274  16.235   4.543 -0.2377 -0.0225 -0.0610
 8203W        W24337   9.799  13.105   0.922 -0.3082  0.0303 -0.0218
 8204W        W24338   9.829   8.650   3.982 -0.0705  0.0788  0.2739
 8205W        W24339   5.180   7.654   3.189 -0.1115  0.3532 -0.1405
 8206W        W24340  15.037  15.977   1.391 -0.1742 -0.0971 -0.1238
 8207W        W24341  11.407  10.333  14.365  0.1941  0.2064  0.0830
 8208W        W24342   5.745   6.478   1.649  0.0096  0.2695 -0.1073
 8209W        W24343   4.858   1.574   1.105 -0.0248 -0.2764  0.2411
 8210W        W24344   9.169  18.200   3.081 -0.0499 -0.2891 -0.1857
 8211W        W24345   0.859  18.855   1.040 -0.3595  0.1029 -0.4986
 8212W        W24346  13.356   9.830   3.160  0.1049 -0.0707 -0.2313
 8213W        W24347   2.945  17.055   4.565  0.3304  0.0529  0.0251
 8214W        W24348  17.846   1.119   3.995 -0.0448  0.2480 -0.0176
 8215W        W24349   0.854   9.445  12.588  0.2010 -0.3934 -0.1263
 8216W        W24350   6.883  17.305   0.588 -0.1784 -0.1163  0.1887
 8217W        W24351  10.430   1.072   0.950  0.0026  0.2318 -0.1193
 8218W        W24352  11.846   5.711   4.088 -0.0044 -0.1020 -0.2414
 8219W        W24353   3.314   2.838   0.551  0.1893 -0.1108 -0.2371
 8220W        W24354  16.497   8.331  11.615 -0.0094 -0.2206  0.0373
 8221W        W24355   8.545  18.347   3.721  0.1100  0.2242 -0.1395
 8222W        W24356  11.930  12.906   1.995  0.0395  0.0792  0.0093
 8223W        W24357   3.263  10.845   0.998  0.2044 -0.0414 -0.0701
 8224W        W24358   8.507  15.927  11.442  0.0176 -0.0467  0.0500
 8225W        W24359   4.488   9.398   1.558  0.1121  0.0230  0.1189
 8226W        W24360  12.126   2.498   0.230  0.0251  0.0302 -0.1699
 8227W        W24361  15.117   1.950  10.254  0.0998  0.0095  0.0950
 8228W        W24362   7.653  13.262  10.383 -0.1693 -0.4405  0.2096
 8229W        W24363   2.633  14.224  11.090 -0.1662  0.1484  0.0280
 8230W        W24364  11.736   3.977   3.196 -0.2633 -0.6709  0.0528
 8231W        W24365   9.338   7.288   2.781  0.0468 -0.1478 -0.3483
 8232W        W24366  10.000  18.315  10.488 -0.3321 -0.0082  0.3835
 8233W        W24367   6.462  17.291   3.139 -0.0447  0.4671  0.2590
 8234W        W24368  17.531  15.445  10.941 -0.0157 -0.1831 -0.1565
 8235W        W24369  10.342  10.337   2.700 -0.1185 -0.0320 -0.2590
 8236W        W24370  11.713   7.116   2.297  0.1618  0.1438  0.1055
 8237W        W24371  15.126  18.234   0.998 -0.0435 -0.0044  0.0794
 8238W        W24372  17.193  13.389   0.607 -0.1124  0.4796  0.2661
 8239W        W24373  15.920   5.218  14.335 -0.1195  0.0897  0.3937
 8240W        W24374  18.642  13.102  12.053  0.0578 -0.2211  0.2612
 8241W        W24375  10.973  13.717   3.887 -0.0819 -0.0401 -0.1491
 8242W        W24376  11.700   3.039   0.767 -0.2254  0.0082 -0.2447
 8243W        W24377  12.540  12.478  13.484  0.0240  0.1711  0.0187
 8244W        W24378  15.043  12.954   0.279 -0.3064  0.1636 -0.0361
 8245W        W24379  18.047   8.792  11.231  0.2454  0.0523 -0.3680
 8246W        W24380  10.335  10.327   5.372 -0.1073  0.0237 -0.1803
 8247W        W24381   6.350   6.653  11.130 -0.4672 -0.2155  0.2049
 8248W        W24382   9.350  15.846   0.782 -0.0251 -0.0749 -0.1946
 8249W        W24383  10.509  10.456  10.996 -0.0978  0.3984  0.1741
 8250W        W24384   8.362   4.611   2.623  0.1000  0.1759  0.2793
 8251W        W24385  15.663  11.143   9.295 -0.4928 -0.1914  0.0022
 8252W        W24386   1.631   2.476  13.551 -0.0031 -0.1497 -0.0132
 8253W        W24387   7.747   0.693   4.587 -0.0941 -0.3435  0.0314
 8254W        W24388  14.962  17.478   0.342  0.2316  0.1728  0.0384
 8255W        W24389   5.960  12.221  12.593 -0.0485 -0.3648  0.0456
 8256W        W24390  10.384  13.778   0.544  0.1081  0.0423 -0.0035
 8257W        W24391   9.018   8.239   2.830 -0.3600 -0.2243  0.1313
 8258W        W24392  12.610   7.539   1.963  0.0480  0.0510  0.0778
 8259W        W24393  15.095   4.282  12.481  0.0689  0.0306 -0.1304
 8260W        W24394   4.611   2.214  10.824 -0.0055 -0.0630  0.1575
 8261W        W24395   8.256   2.299  13.159 -0.1855 -0.1903 -0.4079
 8262W        W24396  13.152   7.911  11.488  0.2524  0.2219  0.0624
 8263W        W24397   2.329   4.296   5.012  0.1160 -0.0526 -0.1280
 8264W        W24398   8.282   8.780  12.417  0.0977  0.0789  0.1830
 8265W        W24399   4.934  13.530   3.219  0.0680  0.1669  0.1911
 8266W        W24400  18.333   8.106  10.905 -0.0373 -0.1545  0.0410
 8267W        W24401  14.589  11.813  11.856 -0.0319 -0.0599  0.3307
 8268W        W24402  14.397  11.815   0.332 -0.1382 -0.0925  0.0062
 8269W        W24403   3.058  14.254   2.891 -0.3853 -0.0810 -0.0901
 8270W        W24404  17.187   0.678   3.409  0.2145 -0.1280 -0.0874
 8271W        W24405   9.852  16.247   2.107 -0.1101 -0.2041  0.1311
 8272W        W24406  17.949   5.298   2.659 -0.1581 -0.4680  0.1200
 8273W        W24407  17.606   4.678   4.683  0.0218  0.1697  0.0160
 8274W        W24408   9.360   9.928  13.450  0.2129 -0.3432 -0.0468
 8275W        W24409   0.140  15.185   0.451 -0.1108  0.0670 -0.0321
 8276W        W24410   0.296   0.142   4.240  0.3298  0.1937  0.3016
 8277W        W24411   5.203  19.209   4.841 -0.6441  0.0729  0.2811
 8278W        W24412  12.837  18.064   1.134  0.2072 -0.1871 -0.0461
 8279W        W24413   7.531  17.963   5.367  0.2021  0.3300  0.0775
 8280W        W24414   2.613   6.785  14.796  0.1251  0.1455  0.1379
 8281W        W24415   1.133   6.362  10.267 -0.1334  0.0952 -0.4213
 8282W        W24416   7.780   2.363   2.006 -0.0013  0.1342 -0.2071
 8283W        W24417  10.524   4.597   1.596 -0.0502  0.2263 -0.0287
 8284W        W24418  12.207  14.481   3.861  0.0191  0.2282  0.0267
 8285W        W24419   8.299  14.535   2.321  0.0025  0.3732 -0.2674
 8286W        W24420  18.270   1.983  12.472 -0.4251  0.0891  0.2997
 8287W        W24421  10.303   6.418   5.114  0.0605 -0.1396  0.0260
 8288W        W24422   0.514  18.057   1.350  0.1460 -0.0426 -0.0438
 8289W        W24423  18.275  18.241   2.032 -0.0392 -0.0845 -0.0110
 8290W        W24424   7.735  11.948   2.877  0.0462 -0.0864  0.0156
 8291W        W24425   8.828   3.537  11.138  0.1712  0.1916  0.2432
 8292W        W24426   5.121  16.919   0.269  0.2918 -0.2347 -0.1870
 8293W        W24427  16.842  15.929   1.550 -0.1603  0.2272  0.4889
 8294W        W24428  15.933  15.929  14.405  0.1052  0.1387 -0.0289
 8295W        W24429   8.183   5.731   0.400  0.1409 -0.2456 -0.0400
 8296W        W24430  10.803  13.809  14.307 -0.1424 -0.5438 -0.0026
 8297W        W24431   2.574   5.071   0.643 -0.1924 -0.2952 -0.0964
 8298W        W24432   4.393  13.922   5.959  0.0859  0.0012  0.0986
 8299W        W24433   1.807   9.310  12.725  0.1447 -0.1521 -0.0392
 8300W        W24434  18.197  14.949  11.003  0.3844 -0.0065  0.0497
 8301W        W24435  11.459   7.681   3.461 -0.2694  0.2410 -0.5225
 8302W        W24436  12.222   3.361   3.419  0.1215 -0.0846 -0.0530
 8303W        W24437  14.232  15.982   0.775  0.3770  0.1784  0.0472
 8304W        W24438  17.032  16.702   3.680 -0.1228 -0.0586  0.5104
 8305W        W24439   1.232   2.788   3.538  0.0128  0.3290 -0.2745
 8306W        W24440   1.171   7.973   4.488  0.4263 -0.4013  0.1655
 8307W        W24441  10.098   8.230  12.114  0.2289  0.0053  0.3255
 8308W        W24442  13.578   9.527   0.654  0.1516  0.1106 -0.1222
 8309W        W24443  17.199   2.755  10.910  0.0663 -0.1233  0.1642
 8310W        W24444  15.762  13.952   1.983 -0.2898  0.0334  0.2537
 8311W        W24445   4.642  19.049   3.360  0.0454  0.2051  0.1275
 8312W        W24446   6.545   6.580  13.637 -0.0666  0.0716 -0.2539
 8313W        W24447   9.905  14.980  10.742  0.0955 -0.0768  0.3303
 8314W        W24448  14.852   4.722  12.217 -0.2038  0.0871  0.0388
 8315W        W24449  14.191   3.240  11.774  0.1520 -0.2547 -0.0461
 8316W        W24450  16.270   3.674  12.430  0.0872 -0.2567  0.1733
 8317W        W24451  13.564   2.805  14.658 -0.4273  0.1595 -0.0909
 8318W        W24452   2.900   4.128  10.116 -0.0270  0.1108 -0.1242
 8319W        W24453   0.243   2.898  10.533 -0.2201  0.1975 -0.1617
 8320W        W24454  13.263   9.392  13.769  0.0431  0.1146 -0.1504
 8321W        W24455   5.714  11.547  14.786 -0.0263 -0.1434 -0.1224
 8322W        W24456   1.494  17.213   1.724 -0.1307 -0.2658  0.0499
 8323W        W24457   0.246   5.469   1.558 -0.0044 -0.2348 -0.1337
 8324W        W24458   5.303  15.179  12.795 -0.0873  0.1995  0.1682
 8325W        W24459  18.746  17.807  13.025 -0.1308  0.4278 -0.0355
 8326W        W24460  11.429  16.088   5.002  0.1111 -0.3357  0.1449
 8327W        W24461   3.148  16.235  13.621 -0.1956  0.3639  0.0457
 8328W        W24462  14.259  17.946  12.258  0.0784 -0.2591 -0.0277
 8329W        W24463   9.052  12.027  14.790  0.0373  0.3191 -0.1045
 8330W        W24464  10.100   9.492   0.397  0.0141  0.0867  0.2251
 8331W        W24465   8.754  17.778   1.203 -0.1160  0.0547  0.1920
 8332W        W24466   7.678  10.853   2.104  0.0196 -0.0407  0.0798
 8333W        W24467   8.311  18.713   1.040 -0.1544 -0.0915 -0.0722
 8334W        W24468  13.096   5.048  12.320  0.1483  0.2196 -0.0571
 8335W        W24469   0.657  16.448   3.249 -0.2625  0.0236  0.0944
 8336W        W24470   8.953  17.984   2.220  0.0083 -0.0569  0.1657
 8337W        W24471   2.478   0.795   2.495 -0.1279 -0.0275 -0.2829
 8338W        W24472   8.535  12.790   1.820 -0.0936 -0.3241 -0.0248
 8339W        W24473  14.350  13.009  14.228 -0.0433  0.3239  0.1629
 8340W        W24474  13.324  10.373  12.446 -0.1481 -0.0019 -0.1700
 8341W        W24475   3.335  15.706  13.346 -0.0539 -0.0921 -0.0999
 8342W        W24476  18.089  18.347  13.377 -0.0195  0.1081  0.2064
 8343W        W24477  14.251   5.368   1.532 -0.2695 -0.2309  0.1398
 8344W        W24478   3.911  13.343   3.240  0.1491  0.1623  0.2639
 8345W        W24479  11.208   2.406  11.479  0.1165  0.1597 -0.1467
 8346W        W24480  13.043  10.121  14.982 -0.4820  0.3453 -0.0254
 8347W        W24481   3.007  15.373  12.447 -0.1703 -0.1273  0.2001
 8348W        W24482  10.085   3.055   2.412  0.1048 -0.3339  0.2658
 8349W        W24483  12.858   9.490  12.590  0.0430 -0.2985 -0.1297
 8350W        W24484   4.845  11.393   2.506 -0.0326 -0.0185  0.0256
 8351W        W24485  15.291   3.086   5.270  0.2978 -0.0180  0.2907
 8352W        W24486  14.626  18.018  13.269  0.1519 -0.1780 -0.3197
 8353W        W24487  12.780  18.203  12.828  0.0476 -0.0815  0.0766
 8354W        W24488   6.266  11.413   1.445  0.2349  0.1039 -0.0803
 8355W        W24489  12.093  16.996  14.950  0.0122  0.0024 -0.1764
 8356W        W24490   1.228   4.831  12.935  0.3431 -0.1774 -0.0974
 8357W        W24491   5.340   6.832  13.961  0.0726 -0.0363 -0.2452
 8358W        W24492   1.161   0.782  11.507 -0.2061 -0.1556  0.0496
 8359W        W24493  14.190  18.616   4.601  0.3105  0.0363  0.0234
 8360W        W24494  15.531   1.015  14.252  0.3556  0.2470  0.1046
 8361W        W24495  15.672   7.093   1.501 -0.2702 -0.2964  0.3667
 8362W        W24496   5.160   4.725  12.347 -0.1776  0.2162 -0.0199
 8363W        W24497  18.511   4.850   0.912  0.0849  0.0562 -0.0093
 8364W        W24498  16.254  18.808  12.747 -0.0921 -0.0095 -0.0794
 8365W        W24499  11.645   2.095   2.412 -0.0012  0.0631  0.1136
 8366W        W24500   3.456  17.135  10.872  0.1321  0.0321 -0.0257
 8367W        W24501  11.009  14.622  13.770 -0.0973 -0.4547  0.0557
 8368W        W24502  16.632   4.306  11.800 -0.2004  0.1142  0.2110
 8369W        W24503  17.976  10.371   2.554  0.1785 -0.0715  0.0199
 8370W        W24504   1.589  10.210  11.613 -0.0274  0.0628 -0.0490
 8371W        W24505   0.646   2.404  13.645  0.0162 -0.0986 -0.0009
 8372W        W24506  16.431   3.348  13.380  0.2318  0.2622  0.0917
 8373W        W24507   5.013   0.994  11.661 -0.1827  0.1069 -0.2297
 8374W        W24508  11.767  16.307  11.115  0.1301 -0.0866 -0.3928
 8375W        W24509   0.254   1.895   4.299 -0.1056  0.5656  0.0507
 8376W        W24510   8.233   5.842  12.172  0.1938 -0.2075  0.0975
 8377W        W24511   4.699  17.947   1.800  0.1661  0.1837  0.0676
 8378W        W24512  16.044  16.006   1.555  0.0989  0.1383 -0.2592
 8379W        W24513   9.359  14.051   2.633  0.0303  0.0841 -0.0720
 8380W        W24514   0.983  15.370  11.041 -0.2861 -0.0002 -0.1920
 8381W        W24515  15.299   6.893   5.082  0.2510  0.1613 -0.2669
 8382W        W24516  16.216  10.160  12.836 -0.0220 -0.1085 -0.2307
 8383W        W24517   7.967  19.339   3.500  0.0257 -0.0596  0.2187
 8384W        W24518   9.154   9.270   2.872 -0.0438 -0.0488  0.0097
 8385W        W24519  11.725   9.262   0.804  0.1587 -0.0865  0.2405
 8386W        W24520  18.396  13.633  13.818  0.0536  0.0084  0.3354
 8387W        W24521   7.182  16.128   3.584 -0.4554 -0.1655 -0.1402
 8388W        W24522  16.156   2.159   0.849  0.3427  0.0125 -0.0741
 8389W        W24523  16.231   9.168   3.601 -0.0207  0.0998 -0.0271
 8390W        W24524  17.641  10.736  10.923  0.0130 -0.2587 -0.1328
 8391W        W24525  10.066  17.100  10.961 -0.0002 -0.0566 -0.5243
 8392W        W24526   7.688  16.524  11.485  0.0106  0.1134 -0.2890
 8393W        W24527  16.691   7.318   5.061 -0.2739 -0.1087  0.0753
 8394W        W24528  13.755   3.531   2.267 -0.0987  0.0531 -0.1646
 8395W        W24529  18.961  17.498  11.315 -0.2016 -0.0010  0.0687
 8396W        W24530   6.872   2.650  13.354  0.2914 -0.1842 -0.2362
 8397W        W24531   8.253  11.207  12.743  0.2058  0.0055 -0.0028
 8398W        W24532  11.154  19.218   3.743  0.1542  0.1153 -0.1940
 8399W        W24533  13.096   1.758   3.560 -0.2062  0.1996 -0.0150
 8400W        W24534  12.909   3.799   3.313 -0.1699  0.0702 -0.1219
 8401W        W24535  15.095  13.485  11.734  0.4018 -0.0612 -0.3277
 8402W        W24536   8.266   4.330   4.666  0.1775  0.1199 -0.1798
 8403W        W24537   6.044   2.978   9.857  0.1999  0.3615 -0.1389
 8404W        W24538  15.667  18.808  13.696 -0.2366 -0.0567  0.2517
 8405W        W24539   9.184   6.610  14.436  0.2765  0.2076 -0.1164
 8406W        W24540   6.047   1.155   0.455  0.4094 -0.0947  0.0820
 8407W        W24541   9.873  12.230   1.712  0.2260 -0.0511 -0.0071
 8408W        W24542  11.870  17.596  13.461  0.0809  0.3162 -0.0890
 8409W        W24543  13.234  15.136   1.349  0.1658 -0.2128  0.0716
 8410W        W24544   5.592   5.553   2.539  0.1480  0.3197 -0.1792
 8411W        W24545  17.699  13.365  13.267  0.1204 -0.1333  0.2680
 8412W        W24546  11.604   1.783  13.520 -0.0647 -0.0461  0.1741
 8413W        W24547  14.468   7.340  14.498  0.0257  0.1408  0.0452
 8414W        W24548  17.968  14.931   3.197  0.1938 -0.0615  0.2278
 8415W        W24549   9.116   2.214   1.845 -0.1463 -0.0640  0.0584
 8416W        W24550   6.798  12.122  13.235  0.0860  0.3622 -0.1877
 8417W        W24551  11.898  16.969   1.205  0.1626 -0.0183 -0.0397
 8418W        W24552   0.213  14.432  14.480 -0.0804  0.2146  0.0941
 8419W        W24553  16.331   9.972   4.531  0.1371  0.0899  0.0932
 8420W        W24554   6.872   3.234   0.614  0.4610 -0.1442  0.0448
 8421W        W24555   0.846   4.625   1.329  0.1432  0.0933 -0.0863
 8422W        W24556   4.814  15.261  14.994 -0.0954 -0.0421  0.0959
 8423W        W24557   2.464  17.382   0.727 -0.0508 -0.1339 -0.4022
 8424W        W24558  16.625  14.192   0.875 -0.1042  0.1229  0.0654
 8425W        W24559  19.310  14.162   0.788 -0.0597  0.1573  0.0792
 8426W        W24560  17.279  11.523   2.863  0.1153  0.1988  0.1659
 8427W        W24561  11.041   9.152  12.483  0.3333  0.3128  0.0111
 8428W        W24562   7.648   1.167  11.703 -0.2164  0.0713  0.0674
 8429W        W24563  13.536  15.299   2.193  0.2122 -0.1444 -0.3422
 8430W        W24564   5.174   8.403   3.937  0.1622 -0.3119 -0.1673
 8431W        W24565   0.405  12.395  11.755  0.1275  0.1296  0.2247
 8432W        W24566  16.326  14.249   3.938 -0.0903 -0.0893  0.0882
 8433W        W24567   1.198  18.619  12.003  0.3038 -0.3090  0.1670
 8434W        W24568   7.409  10.198   5.366  0.3032 -0.0416  0.2936
 8435W        W24569   2.178   0.225  10.945  0.0567  0.1897  0.4737
 8436W        W24570  19.091   8.086  13.622  0.2175 -0.0014 -0.0563
 8437W        W24571  13.429  14.676   0.548  0.0103 -0.0856 -0.1323
 8438W        W24572   3.892   2.438  12.247 -0.2191  0.0979  0.1534
 8439W        W24573  10.154   0.758  11.632  0.2042  0.1271 -0.2227
 8440W        W24574   9.682  10.981  11.500  0.3624 -0.3850  0.2219
 8441W        W24575  18.451   9.445   3.884  0.0530  0.2901 -0.2621
 8442W        W24576  13.134  15.754   9.658  0.1481 -0.1150  0.0936
 8443W        W24577  10.286   1.187  10.342 -0.2752  0.1547  0.1723
 8444W        W24578  13.278  11.471   1.933  0.1376  0.2937  0.0288
 8445W        W24579  18.094  17.512  12.240 -0.2241  0.0735  0.1575
 8446W        W24580   1.851   3.514   9.912 -0.0261  0.4639  0.1199
 8447W        W24581  18.953   3.590  12.159  0.0325 -0.1209  0.1904
 8448W        W24582   7.580   7.374  12.023 -0.3453 -0.2406 -0.0684
 8449W        W24583  16.965   4.463  12.872  0.1765 -0.2806 -0.0515
 8450W        W24584   0.613   1.984  10.644  0.0942 -0.1724 -0.3094
 8451W        W24585   1.887   7.112   0.970  0.3948 -0.0927  0.2251
 8452W        W24586   8.753  10.500   0.739  0.4130  0.1522 -0.0094
 8453W        W24587  12.269   3.876   5.086  0.2387 -0.1871 -0.1190
 8454W        W24588  12.687   2.398   5.118  0.2405  0.0541 -0.0420
 8455W        W24589   3.964  10.252   5.218  0.1027  0.0613 -0.1534
 8456W        W24590   0.150  11.379   5.076 -0.1989  0.1256 -0.1014
 8457W        W24591  13.298  11.362  14.431  0.0016  0.1477  0.0011
 8458W        W24592  17.912   2.052  13.775  0.0529 -0.0625 -0.0520
 8459W        W24593   5.003  12.968   2.402 -0.0874  0.3552  0.1429
 8460W        W24594  13.849  13.819  13.372  0.2407 -0.1409  0.1715
 8461W        W24595   0.695   8.686  11.053 -0.1448 -0.2061  0.1003
 8462W        W24596   7.372   8.951  10.874 -0.1991  0.2634  0.2769
 8463W        W24597   4.627  14.681  13.531  0.2201 -0.0009 -0.0648
 8464W        W24598   6.239  10.189   0.849 -0.3668 -0.1955 -0.1618
 8465W        W24599   5.574  18.640   3.382  0.1717  0.1744  0.0033
 8466W        W24600  14.980   8.116  14.307  0.1260 -0.1039  0.1968
 8467W        W24601  18.449   6.171   1.582 -0.0011 -0.0292 -0.0495
 8468W        W24602   6.534   2.860   2.073  0.1762 -0.0071 -0.2063
 8469W        W24603  14.737   7.834  13.293 -0.6002  0.1427  0.2503
 8470W        W24604  18.950  18.852   0.894 -0.2112  0.2908  0.0115
 8471W        W24605  16.251  17.445  13.640  0.1515  0.1767  0.3308
 8472W        W24606  16.682  16.789   3.986  0.0801  0.0966 -0.1971
 8473W        W24607   5.789  13.212   2.950 -0.1785 -0.0973  0.0506
 8474W        W24608   2.145  17.672   9.559  0.1108  0.0857  0.1672
 8475W        W24609  13.545   0.665  13.044  0.0887 -0.1716 -0.1522
 8476W        W24610  11.813  10.625   1.340 -0.0460 -0.3365 -0.0247
 8477W        W24611   7.365   1.570  13.592 -0.2517 -0.3034 -0.2711
 8478W        W24612  11.339   5.858   9.920  0.1119  0.0436  0.0063
 8479W        W24613  14.582  16.017   2.184 -0.0147 -0.0366 -0.3282
 8480W        W24614  16.289  13.980  12.160  0.0538 -0.2792  0.2944
 8481W        W24615   5.002   6.255  11.867 -0.1137 -0.0010 -0.3784
 8482W        W24616  13.251  14.289   4.767 -0.1411 -0.1525 -0.0204
 8483W        W24617  17.433   8.806   2.667 -0.1345 -0.2476  0.1124
 8484W        W24618  12.948  17.696  12.832 -0.1438  0.0514 -0.2437
 8485W        W24619  16.730  14.893  13.907  0.1180  0.2109  0.2146
 8486W        W24620   6.145   7.228  14.985  0.0269 -0.1428 -0.4363
 8487W        W24621  10.579   4.725  12.569  0.5340  0.0303 -0.0830
 8488W        W24622  15.622   1.122   5.323  0.1133  0.3005 -0.0972
 8489W        W24623   4.708  17.441  10.607 -0.1789  0.0071 -0.0379
 8490W        W24624   7.740  12.695   4.585 -0.4482  0.0486  0.0153
 8491W        W24625  17.176   9.187  10.883  0.0549  0.2174 -0.2122
 8492W        W24626  12.363   6.473  14.105 -0.0917 -0.3040 -0.0522
 8493W        W24627   7.949   1.431   4.719  0.0108  0.2786 -0.1722
 8494W        W24628  10.453   7.088   1.382  0.2676  0.0252  0.0153
 8495W        W24629   7.436  11.162   1.379 -0.0160  0.2035  0.1420
 8496W        W24630   1.014  19.217  10.766 -0.1980  0.0173  0.1641
 8497W        W24631  14.708  17.733  13.668  0.0004  0.0955  0.1574
 8498W        W24632  13.939  16.821   1.202 -0.3106  0.1055 -0.1671
 8499W        W24633  10.673   8.405  12.835 -0.2580  0.4018 -0.2398
 8500W        W24634   9.168   5.318  11.712 -0.0312  0.3118  0.2062
 8501W        W24635   9.701   8.972   9.594 -0.0147  0.1229 -0.0310
 8502W        W24636   3.582   0.133   9.899  0.1730  0.0379  0.1289
 8503W        W24637  16.629   6.208  14.334  0.1417  0.0442  0.1988
 8504W        W24638   1.492  11.856  12.652 -0.3117 -0.0439 -0.1651
 8505W        W24639  14.713   3.241   2.200  0.2710 -0.2122  0.0054
 8506W        W24640   9.751  15.649  14.658 -0.0415 -0.2021  0.1221
 8507W        W24641  14.499  10.624  10.549  0.2831 -0.0482  0.0572
 8508W        W24642  12.229   4.255   3.656  0.0365  0.0405 -0.2260
 8509W        W24643   7.709   2.895   0.105 -0.1695 -0.0132  0.0801
 8510W        W24644   1.795   0.494  12.077 -0.1241  0.1508  0.1847
 8511W        W24645  17.816   7.659  12.023 -0.4554  0.0994 -0.2813
 8512W        W24646   2.123   1.533   2.436  0.1252 -0.0178 -0.2825
 8513W        W24647  12.812  15.292   1.043  0.2325  0.1674 -0.1409
 8514W        W24648   8.621  16.011  12.182  0.0640  0.1831  0.2112
 8515W        W24649   4.128   0.825  12.181 -0.2736 -0.2405  0.1793
 8516W        W24650   4.506  16.322   4.432 -0.0118  0.0560 -0.0545
 8517W        W24651  19.295  10.248  12.098  0.1293 -0.1196  0.0977
 8518W        W24652   6.843   8.265   1.395  0.0570  0.3455 -0.0031
 8519W        W24653  10.860   0.962   2.274  0.1821  0.1532  0.0662
 8520W        W24654   4.555  15.146  11.919  0.0586  0.2998  0.2316
 8521W        W24655   8.598   8.367   3.483  0.1125  0.0004  0.0171
 8522W        W24656   5.746   9.603   4.231  0.3045  0.1921 -0.1204
 8523W        W24657   6.376  18.317  11.270 -0.0122 -0.1749 -0.1610
 8524W        W24658   2.272  10.540  12.578  0.0802  0.3465 -0.1753
 8525W        W24659   9.284   4.596  13.522 -0.0302  0.0260  0.0490
 8526W        W24660   1.980   9.080   5.310  0.2293  0.0537 -0.0804
 8527W        W24661   1.425   8.024   0.150  0.1970  0.1588  0.1543
 8528W        W24662  13.627  18.708   3.103 -0.0064 -0.0949  0.0067
 8529W        W24663   5.956   5.503  13.063  0.4419 -0.0236  0.1144
 8530W        W24664   7.937  18.489  12.275 -0.0475 -0.4246  0.0434
 8531W        W24665   1.581  11.531  14.104  0.3445  0.1077  0.1020
 8532W        W24666  12.152  16.494  11.909 -0.1669  0.0115 -0.0748
 8533W        W24667   8.409  18.699  11.092  0.0763  0.0952 -0.0993
 8534W        W24668  15.527  13.705  12.731 -0.2301  0.0852  0.1615
 8535W        W24669   3.645  18.220   4.440  0.0560 -0.0546 -0.0777
 8536W        W24670   0.984  10.133   2.171 -0.3501 -0.0568  0.3657
 8537W        W24671  17.206   2.431   2.170 -0.1080 -0.2090  0.1879
 8538W        W24672   3.568  10.067   4.892 -0.0435 -0.0793  0.3671
 8539W        W24673   7.493   1.507   4.425  0.0997 -0.2349 -0.1725
 8540W        W24674  13.884  10.375  10.411 -0.0832  0.1163 -0.0234
 8541W        W24675  11.055   7.654  13.540 -0.0332 -0.2052  0.1140
 8542W        W24676   8.635   7.952   0.155 -0.0244 -0.0996 -0.2454
 8543W        W24677  16.977  10.810   0.141  0.1267  0.0405 -0.3888
 8544W        W24678   3.049  13.595   1.576  0.1416  0.1662  0.2683
 8545W        W24679   0.386   6.684  14.738 -0.1008 -0.1753 -0.0689
 8546W        W24680  15.774  12.300  11.452 -0.1101  0.3329 -0.1778
 8547W        W24681  12.674   9.978  13.465  0.1919 -0.1401  0.0340
 8548W        W24682  11.915  16.139   3.799  0.0499 -0.5681 -0.0963
 8549W        W24683   8.682  13.812   3.906 -0.1219 -0.0995  0.0419
 8550W        W24684  14.219   1.437  10.975  0.1480 -0.0509 -0.1415
 8551W        W24685   6.677  12.214  11.805  0.2140  0.0236  0.1496
 8552W        W24686  17.100  17.977  10.491  0.1384 -0.1289  0.1608
 8553W        W24687   7.677   0.337   0.560 -0.1973 -0.0371 -0.1433
 8554W        W24688   0.246   2.588   3.631  0.0147  0.1499  0.1850
 8555W        W24689   8.341   3.720   4.515  0.0461 -0.0232  0.0808
 8556W        W24690   3.540   8.523  12.364  0.1098 -0.0240 -0.4672
 8557W        W24691   2.741   7.788   1.088  0.2115  0.0157 -0.2121
 8558W        W24692   1.060   8.396   0.278  0.1801  0.0055  0.0897
 8559W        W24693  10.858   2.051  14.432 -0.0471 -0.2854  0.0270
 8560W        W24694  11.625   1.115  13.232 -0.0310  0.0939  0.1390
 8561W        W24695   3.841   6.525   0.592  0.0813  0.0262  0.0788
 8562W        W24696   4.202  11.430   3.693  0.2771 -0.1009 -0.3001
 8563W        W24697  10.842   3.959  12.805  0.0410  0.3177  0.1956
 8564W        W24698   7.650   2.002  13.704  0.1429 -0.1447  0.2476
 8565W        W24699   1.123   6.413  13.609  0.4128  0.2285 -0.1680
 8566W        W24700  19.185  12.732  14.767  0.1116  0.0954 -0.0281
 8567W        W24701   6.813   1.814  10.034 -0.0421 -0.1547  0.0691
 8568W        W24702  12.328   9.546   1.009 -0.0341  0.0367 -0.3471
 8569W        W24703   4.513   8.642  14.303 -0.3928  0.1906 -0.1383
 8570W        W24704   9.560  11.697   3.520 -0.0959 -0.2507  0.2789
 8571W        W24705  16.998   1.596  11.598  0.0293  0.0185 -0.2607
 8572W        W24706  16.729  18.507   3.297 -0.0478 -0.1118  0.1838
 8573W        W24707   7.841   0.072  10.727  0.3935  0.2615  0.2311
 8574W        W24708  17.992   8.942   4.656  0.0161 -0.1493 -0.2363
 8575W        W24709  13.434  12.432   4.042  0.1322  0.2463 -0.5192
 8576W        W24710   2.263   1.769  13.142  0.2427 -0.1530 -0.5052
 8577W        W24711   3.833  14.132   4.400  0.0695 -0.1914 -0.2110
 8578W        W24712  13.803   3.076   3.578  0.1633  0.1562  0.0995
 8579W        W24713   1.770   2.130   1.174 -0.0293 -0.0466  0.2730
 8580W        W24714   4.161  11.935   2.471 -0.0900 -0.1494 -0.0421
 8581W        W24715  17.675   3.994   1.274 -0.1421 -0.4244  0.0162
 8582W        W24716  17.759   5.821   2.549 -0.0029  0.3562  0.2577
 8583W        W24717  12.665   8.561  12.725  0.0672  0.1458  0.1613
 8584W        W24718  17.263  18.030   1.852  0.2225  0.0306 -0.0957
 8585W        W24719   3.660  17.786  11.595 -0.2965  0.0969  0.0160
 8586W        W24720  10.180  10.773  10.733 -0.0073  0.3258 -0.0320
 8587W        W24721   4.467   8.559   3.101  0.1187  0.2608 -0.1209
 8588W        W24722   8.896  16.978   0.049  0.1539  0.2488 -0.0826
 8589W        W24723  11.297   5.426   2.434  0.0631  0.2620  0.2431
 8590W        W24724  10.791  18.594  10.460  0.4405  0.2377  0.0663
 8591W        W24725  14.325   9.992  12.338 -0.3742 -0.2337  0.0931
 8592W        W24726  13.096  15.439  14.207  0.3814  0.1475  0.2696
 8593W        W24727  17.023  15.515   1.805 -0.0506 -0.3175  0.0453
 8594W        W24728   9.985   2.516   2.271  0.0897  0.1427  0.0359
 8595W        W24729  12.757  15.901   4.781  0.0481 -0.3879  0.1514
 8596W        W24730   7.341  13.678  14.570 -0.0477 -0.3314 -0.0644
 8597W        W24731   3.121  16.083  14.651 -0.0623  0.0126 -0.1373
 8598W        W24732   2.261  14.398  12.016 -0.1770  0.1040 -0.2308
 8599W        W24733   1.794   7.635   0.078 -0.2050 -0.1206  0.1268
 8600W        W24734  18.559  13.532   0.573 -0.2084  0.3503 -0.0202
 8601W        W24735   9.771  16.888   4.357 -0.1579  0.0395  0.1273
 8602W        W24736   2.761  14.051  14.114  0.3354 -0.1136  0.3444
 8603W        W24737   5.157   1.263  12.787 -0.0734  0.0057  0.0885
 8604W        W24738  13.660   1.555  14.822  0.1598 -0.1737 -0.0673
 8605W        W24739   2.089  12.123  11.038  0.4208  0.2867  0.3257
 8606W        W24740   2.198  11.696   5.041 -0.0144 -0.1932 -0.0853
 8607W        W24741  13.721  18.271  11.817 -0.0713 -0.0699  0.1604
 8608W        W24742  19.205  18.987   0.026 -0.0060  0.0046  0.0771
 8609W        W24743  13.133  12.348   1.276  0.0365  0.1986  0.1109
 8610W        W24744  14.897   8.209  11.718  0.4987 -0.1814 -0.1353
 8611W        W24745   2.879   0.083  14.916  0.0701  0.2183 -0.3661
 8612W        W24746  18.017   1.110   0.063 -0.1220  0.1286 -0.1448
 8613W        W24747  12.803   1.568  11.570 -0.0961 -0.3170 -0.2801
 8614W        W24748   9.481   9.213  10.952 -0.0164  0.0573  0.1127
 8615W        W24749  10.679  16.812  10.790  0.0751 -0.0251  0.0537
 8616W        W24750  13.425   6.033  10.644 -0.0596 -0.5180 -0.0660
 8617W        W24751   8.831  15.594   2.706 -0.0946  0.0973  0.2703
 8618W        W24752   9.732   8.523  13.667 -0.1318  0.1631  0.0848
 8619W        W24753  13.649   2.847   4.057 -0.0048  0.0148 -0.5132
 8620W        W24754  14.962  15.333  10.227 -0.2213 -0.2097 -0.1773
 8621W        W24755   2.299  17.697  11.402  0.0792  0.2497 -0.0486
 8622W        W24756   4.500   6.882  10.084  0.1654  0.0778 -0.0627
 8623W        W24757   9.427   3.523   4.922  0.0067  0.0950 -0.1763
 8624W        W24758   4.522  10.466  11.931 -0.0010  0.2899 -0.0045
 8625W        W24759  11.278  16.986  11.526 -0.0980 -0.2271 -0.0425
 8626W        W24760  16.227  13.853   0.986  0.1721  0.5083 -0.0073
 8627W        W24761   5.258  16.550   0.687 -0.1866 -0.2649  0.0729
 8628W        W24762   5.283  10.015   0.714  0.3235 -0.0341  0.2661
 8629W        W24763   5.817   4.988  11.148  0.0661  0.2618  0.0203
 8630W        W24764   0.423   9.537  11.894  0.3632 -0.3425  0.3845
 8631W        W24765  18.067   6.929  12.029 -0.0789  0.4256 -0.0016
 8632W        W24766  12.404  17.808   3.258  0.0325  0.2265  0.1174
 8633W        W24767  13.475   3.954  13.465 -0.0691 -0.1215 -0.5165
 8634W        W24768  11.457  15.736  13.893 -0.2533  0.5233  0.2295
 8635W        W24769  12.239   3.416   4.199  0.0580 -0.2381 -0.0319
 8636W        W24770  17.977   1.550   1.149 -0.3896  0.0468  0.0805
 8637W        W24771   2.344  13.774   2.442  0.2168  0.3047  0.0394
 8638W        W24772  12.874   4.835   2.984 -0.0833  0.1362 -0.0424
 8639W        W24773   0.371   5.790   9.300 -0.2365 -0.1364 -0.0010
 8640W        W24774  16.571  16.251   5.040  0.2703  0.1433  0.1313
 8641W        W24775   0.398   9.501  13.001 -0.3934 -0.3360  0.2421
 8642W        W24776   3.851  10.793   1.694  0.0432 -0.1502  0.0537
 8643W        W24777   0.080   5.235   0.629  0.0367 -0.1193 -0.2302
 8644W        W24778   7.585   1.311  13.941  0.0296  0.0843 -0.0098
 8645W        W24779  19.329   7.290   5.243  0.6143  0.1202 -0.1978
 8646W        W24780   7.063  11.642  14.747  0.2000  0.1058 -0.0196
 8647W        W24781   1.207   6.182  14.707 -0.0384  0.0904 -0.0354
 8648W        W24782   1.492  18.104   1.722 -0.3118 -0.0924  0.1645
 8649W        W24783   1.330   2.841   2.791  0.3679 -0.0684 -0.1041
 8650W        W24784   7.265   6.372   0.725 -0.0556  0.2589 -0.5560
 8651W        W24785   1.188   5.846  14.081 -0.2981 -0.2648  0.2945
 8652W        W24786   4.250  11.409   1.385 -0.1013 -0.0403  0.0208
 8653W        W24787   7.573   5.397  12.597  0.1608  0.0942 -0.1060
 8654W        W24788  17.741  16.172   3.699 -0.2339  0.0698  0.2409
 8655W        W24789   0.759   2.954  11.754 -0.0911  0.1053  0.0002
 8656W        W24790   7.577  17.859  11.961  0.1051 -0.0630  0.2297
 8657W        W24791  13.247  15.661   4.729 -0.0661 -0.0171 -0.2410
 8658W        W24792   2.914  13.091   1.621 -0.3864 -0.2283 -0.1224
 8659W        W24793   8.402   7.166   2.764  0.1715  0.0650  0.2555
 8660W        W24794   5.764  11.781   0.730 -0.0170  0.0916  0.0570
 8661W        W24795  10.579  18.594   2.865 -0.3024 -0.4760  0.2427
 8662W        W24796  12.077  12.059   2.460 -0.0296  0.0526 -0.0396
 8663W        W24797   3.082  10.745   1.839  0.3038 -0.0319  0.0873
 8664W        W24798  18.039   0.448   5.245  0.0703  0.1489  0.1008
 8665W        W24799   4.148  15.930   1.512  0.1981 -0.0243  0.0832
 8666W        W24800  18.388   0.761   0.296 -0.1416 -0.4043 -0.1892
 8667W        W24801  17.395  18.681   2.575  0.0458  0.1387  0.1122
 8668W        W24802  15.572  14.465   0.344  0.2028  0.1694 -0.0730
 8669W        W24803   5.342   8.474  14.237 -0.0689  0.2927 -0.0398
 8670W        W24804  11.380  16.837  13.397 -0.0030  0.1547 -0.3352
 8671W        W24805  14.036  18.921  12.975 -0.0201 -0.2147 -0.1030
 8672W        W24806  13.468   7.192   0.481 -0.2635  0.0148 -0.4487
 8673W        W24807   8.254   8.315  10.153 -0.0808 -0.3007  0.0534
 8674W        W24808  13.587   8.693   4.765  0.1698 -0.0571 -0.0636
 8675W        W24809   0.023  16.036   2.696  0.1006 -0.0683  0.2049
 8676W        W24810   5.476  17.561   4.392 -0.3404 -0.0559  0.2616
 8677W        W24811  13.100  11.630  10.194 -0.1886  0.0311 -0.0445
 8678W        W24812   6.136   0.704   0.008 -0.1836 -0.0393  0.1050
 8679W        W24813  17.552  10.051   2.247  0.1440 -0.0592 -0.1695
 8680W        W24814   5.525   6.959   3.763  0.2260  0.0352  0.0876
 8681W        W24815   9.637   2.065   2.827  0.0097 -0.0878 -0.1909
 8682W        W24816  14.190   0.759  11.002  0.1596  0.1325 -0.1023
 8683W        W24817  16.841  10.019   0.647 -0.1244  0.0453 -0.1386
 8684W        W24818  12.788   2.088   5.828  0.1594 -0.2893  0.0488
 8685W        W24819   6.237  10.724  12.922  0.2144 -0.1118 -0.0496
 8686W        W24820  13.577   2.423  12.861 -0.0057  0.0428  0.0370
 8687W        W24821  10.350   2.207   1.247  0.1877  0.1639 -0.0376
 8688W        W24822   4.577  10.556   3.500 -0.1079  0.1205  0.1403
 8689W        W24823   7.878   6.139   1.652  0.2947 -0.2352  0.0411
 8690W        W24824   6.213   9.731   1.958 -0.0853 -0.4384  0.0462
 8691W        W24825   4.900  12.487   2.361 -0.0013 -0.2008 -0.1122
 8692W        W24826   3.192   7.407   1.711 -0.1667 -0.1789 -0.1125
 8693W        W24827   0.758  11.366   4.312  0.0705  0.0581 -0.2059
 8694W        W24828   3.642  18.913  12.225  0.3604  0.0694 -0.1647
 8695W        W24829   9.431  15.996  11.734  0.1723 -0.0076 -0.0408
 8696W        W24830   7.906  11.736  14.332  0.1303  0.2513  0.0838
 8697W        W24831  17.646   5.766   1.532 -0.1430  0.0395  0.1974
 8698W        W24832  10.890  12.572  11.951  0.1524 -0.1237 -0.0374
 8699W        W24833  12.158  12.159   2.968  0.0165  0.0418  0.0832
 8700W        W24834  15.175   1.023  13.849  0.2269 -0.3747 -0.2030
 8701W        W24835   2.003  12.547   4.911  0.1165  0.1434 -0.2173
 8702W        W24836   8.981  15.306  14.596 -0.0231 -0.1387 -0.2723
 8703W        W24837   4.557  14.202  13.508  0.1654  0.1735  0.2353
 8704W        W24838  14.218   8.592  10.306 -0.2626  0.1371 -0.2008
 8705W        W24839   1.864  11.351  14.511  0.0995 -0.0601 -0.0477
 8706W        W24840   7.905   5.929   0.806 -0.1984  0.0099  0.0181
 8707W        W24841  12.473   3.656  10.888  0.2625 -0.2505 -0.0762
 8708W        W24842  18.144   7.343   0.941  0.0106 -0.0493 -0.1997
 8709W        W24843  19.222  19.168  14.001 -0.2941  0.0682  0.0124
 8710W        W24844   3.815  13.705  14.961  0.5122 -0.5013 -0.0296
 8711W        W24845  13.161  15.345   2.899  0.1638 -0.0220 -0.2450
 8712W        W24846  14.353  17.057   4.294 -0.1124  0.0879 -0.0903
 8713W        W24847  13.613  18.242   3.332 -0.1159  0.0148 -0.1283
 8714W        W24848   0.999  15.654  12.005  0.1335  0.0918  0.1936
 8715W        W24849   7.154  15.833   1.372 -0.1196 -0.3342  0.0309
 8716W        W24850   9.675   8.064   0.146 -0.2976 -0.0655 -0.3443
 8717W        W24851   3.766  17.862   0.351 -0.1356  0.0374  0.1225
 8718W        W24852  15.031   8.430  11.299  0.0385  0.0378  0.2107
 8719W        W24853   6.278  11.111   4.386  0.0547  0.0404  0.2977
 8720W        W24854   0.087   8.431   0.556 -0.2702  0.1096 -0.1531
 8721W        W24855  14.363  13.774   2.940  0.0123 -0.0367  0.1450
 8722W        W24856  12.499  18.002  11.956  0.0133  0.0694  0.0080
 8723W        W24857   7.858  16.681  12.885 -0.1893 -0.0663  0.1979
 8724W        W24858  13.877   9.908   1.937 -0.3909  0.1962  0.0883
 8725W        W24859  19.115  10.499  10.697 -0.2228  0.4578 -0.0963
 8726W        W24860   6.490  13.650   0.893  0.1120  0.1383 -0.1907
 8727W        W24861  16.655   5.939   0.393  0.0929 -0.0631 -0.2470
 8728W        W24862  10.490   4.191  12.256 -0.0271  0.1215  0.2247
 8729W        W24863   2.283   7.572  10.461  0.0220  0.2785  0.1944
 8730W        W24864  11.133   3.340  13.371 -0.1632 -0.1658  0.0649
 8731W        W24865  11.331   4.846   3.040 -0.1967  0.1919  0.0014
 8732W        W24866   9.319   9.065  11.389  0.0564  0.1247 -0.0729
 8733W        W24867  14.899  14.804   4.145  0.0878 -0.0314 -0.3328
 8734W        W24868  15.301   7.106  12.075  0.0084 -0.1293  0.0310
 8735W        W24869   3.705   4.559  11.065  0.2447 -0.1403  0.0510
 8736W        W24870  10.402   5.571  13.599  0.1764 -0.2192  0.3263
 8737W        W24871  14.866   3.244   4.323 -0.0688  0.0383  0.1048
 8738W        W24872   3.495  16.425   5.174 -0.0255  0.1286 -0.1078
 8739W        W24873  16.153  13.975  13.975 -0.1709 -0.0574 -0.2806
 8740W        W24874  16.225  16.711   3.910  0.0945  0.3008  0.1449
 8741W        W24875   5.855  14.132  14.429 -0.5456 -0.0719 -0.4662
 8742W        W24876  14.289   0.026   4.196  0.0411  0.2507  0.2194
 8743W        W24877   4.365  13.408  13.730 -0.2533  0.0584 -0.0404
 8744W        W24878   3.526  12.127   0.396 -0.0403  0.1289  0.1649
 8745W        W24879   1.411  18.899   3.383  0.0642 -0.0235 -0.0876
 8746W        W24880   1.669   3.931  10.978 -0.1869 -0.0211  0.3079
 8747W        W24881  17.025   1.248   3.267  0.0415 -0.0035  0.3760
 8748W        W24882   4.675  17.773   2.828 -0.0640 -0.0987  0.0366
 8749W        W24883   6.072   3.898  14.476 -0.3232  0.1947 -0.2038
 8750W        W24884  12.802   8.037   4.418  0.4969  0.2448  0.2664
 8751W        W24885  10.957  12.353   4.551 -0.1464 -0.0749  0.0205
 8752W        W24886   3.915  15.267   0.064  0.3135 -0.1316 -0.0579
 8753W        W24887   3.766   1.562   2.758  0.0643  0.1282  0.1877
 8754W        W24888  14.056   9.387   0.847  0.0715  0.1080  0.0361
 8755W        W24889   5.689   1.573   4.111 -0.1863  0.1891 -0.0276
 8756W        W24890  12.263  12.587   0.674 -0.1649 -0.1575  0.0002
 8757W        W24891   1.722   4.683   9.928  0.1172  0.1974  0.1477
 8758W        W24892   0.939  13.865   1.974 -0.3148 -0.0257  0.0067
 8759W        W24893  17.887   1.303  10.541  0.3022  0.0977 -0.0478
 8760W        W24894   8.051  14.633   1.303 -0.1964 -0.2470 -0.5726
 8761W        W24895  16.533   1.450  10.382  0.0318  0.1606  0.0316
 8762W        W24896   8.801   0.508   2.859 -0.0905  0.1798 -0.1326
 8763W        W24897  18.161   9.161  13.372  0.0448  0.2400  0.0489
 8764W        W24898  12.250  13.783  13.294 -0.1221  0.2610  0.1718
 8765W        W24899   7.813  15.052  10.963  0.2116  0.0165 -0.1675
 8766W        W24900   0.512   6.731  10.661 -0.0963 -0.0703 -0.0646
 8767W        W24901  18.589   9.754  14.480 -0.2305 -0.2208  0.0873
 8768W        W24902   6.225  11.102  12.531 -0.1446  0.0503  0.0628
 8769W        W24903  13.994   0.897  13.347 -0.2129  0.3360 -0.1650
 8770W        W24904  12.862  18.518   1.394  0.1057 -0.1177  0.0616
 8771W        W24905  19.113   2.739  14.839  0.2733 -0.0347 -0.1560
 8772W        W24906   9.272   9.568   3.702  0.1962  0.4421  0.1190
 8773W        W24907   2.372   7.616  11.884  0.2704 -0.1392  0.1482
 8774W        W24908  18.057  12.451  10.665  0.0854 -0.2121  0.2113
 8775W        W24909   8.805  19.149   5.031 -0.1507  0.3203  0.0320
 8776W        W24910   7.456   6.687   3.951 -0.0573 -0.2513 -0.0611
 8777W        W24911  13.006   9.311   2.768  0.0638  0.2213  0.1464
 8778W        W24912   6.769   7.818   4.500 -0.0464 -0.1761  0.0235
 8779W        W24913   6.425  15.933  10.944 -0.2088  0.2858  0.1485
 8780W        W24914  15.845  18.129  14.862 -0.0800 -0.0346 -0.0422
 8781W        W24915   4.965  13.982   3.006 -0.2108 -0.0767 -0.0725
 8782W        W24916   2.073  15.777  11.788  0.1738 -0.1598  0.5570
 8783W        W24917  13.633  14.413   4.375 -0.0720  0.1074  0.2430
 8784W        W24918   0.946  11.526  11.848 -0.2090 -0.0060 -0.2633
 8785W        W24919  15.142  13.121   2.904  0.1332  0.1713  0.2155
 8786W        W24920  18.767   0.913   1.214  0.3874 -0.3116 -0.2132
 8787W        W24921  18.267   1.455  14.803 -0.0149  0.0902  0.3772
 8788W        W24922   1.104  13.465   3.598  0.0941 -0.5854  0.2831
 8789W        W24923   4.363  14.729  14.399 -0.0411 -0.0679 -0.1714
 8790W        W24924  18.033   2.261   5.118  0.1076 -0.0025  0.5980
 8791W        W24925   3.884   8.793  11.852  0.3244  0.0122  0.0061
 8792W        W24926  12.091  10.597  10.997  0.1752 -0.0227  0.1815
 8793W        W24927  14.309   9.046   2.628 -0.0743  0.2193 -0.2194
 8794W        W24928  18.112   6.971   3.228 -0.0507  0.2712  0.0758
 8795W        W24929   1.776  12.225   0.852  0.1123  0.0108 -0.0212
 8796W        W24930   3.251   4.609  14.999  0.0258  0.2252  0.4509
 8797W        W24931  10.233   9.343   3.521  0.0831 -0.3569  0.1533
 8798W        W24932   7.233  12.261   4.753 -0.0295 -0.0662 -0.0202
 8799W        W24933   8.204   7.620  14.897  0.0260  0.0287 -0.1705
 8800W        W24934  11.011  18.436   3.442 -0.1151  0.1272 -0.0395
 8801W        W24935  12.307   6.491  12.547 -0.4884  0.2189 -0.0878
 8802W        W24936   2.277  15.866  12.237  0.0596 -0.1011  0.0802
 8803W        W24937  11.702   4.754  14.937  0.0978 -0.2557  0.2544
 8804W        W24938   0.673  14.710  14.779  0.0923 -0.0972 -0.2596
 8805W        W24939  18.442  16.626  10.601  0.2863 -0.1330  0.1499
 8806W        W24940   4.380  13.150   3.117 -0.0018  0.0378 -0.0055
 8807W        W24941  12.322   4.750  12.534  0.0836  0.1146  0.0973
 8808W        W24942   8.849   3.522  14.015  0.2928  0.0716  0.0079
 8809W        W24943   3.871  15.596  10.694  0.0615 -0.1257  0.2208
 8810W        W24944  15.368  18.864   4.656 -0.0256 -0.0866  0.1190
 8811W        W24945  16.361   9.027   4.523  0.0111 -0.0589 -0.0249
 8812W        W24946  16.379  13.382  10.798  0.0815 -0.1255  0.1344
 8813W        W24947  10.631   1.982  13.053  0.2443 -0.2558 -0.2687
 8814W        W24948   2.106  10.463  10.531  0.0888 -0.0345  0.2537
 8815W        W24949   2.543   7.288  13.159  0.0406 -0.3527  0.1520
 8816W        W24950  19.145   7.747   1.602  0.1078 -0.2899  0.1375
 8817W        W24951  10.423   9.331   1.243  0.2134  0.1543 -0.3267
 8818W        W24952  12.893  11.412   1.139  0.0622  0.0482  0.0345
 8819W        W24953  12.620   4.249   4.051  0.3153 -0.0441 -0.1832
 8820W        W24954   8.244  19.088  12.947 -0.0699 -0.1075  0.1827
 8821W        W24955   2.266   8.320   4.622  0.0834 -0.2164 -0.3142
 8822W        W24956  10.226   4.349  11.817  0.4186  0.0196 -0.4475
 8823W        W24957   3.958   1.573   0.419  0.0999  0.1871 -0.1567
 8824W        W24958   3.641   9.872  12.679  0.0873 -0.1012 -0.1623
 8825W        W24959   8.806  11.971  14.339 -0.2554 -0.0347  0.2018
 8826W        W24960   0.067   6.465   5.815 -0.2545 -0.1945  0.1388
 8827W        W24961   5.733  17.920  12.716  0.0825  0.0783 -0.0872
 8828W        W24962  18.508   5.506  13.356  0.2333  0.3021 -0.4017
 8829W        W24963   3.822  17.684   2.948  0.2509  0.0304  0.1241
 8830W        W24964   3.248  14.659   3.220 -0.2375 -0.0800  0.1693
 8831W        W24965  15.780   7.069   5.005 -0.2087 -0.3371 -0.1041
 8832W        W24966  15.432  15.314  11.239  0.0435 -0.2710 -0.2667
 8833W        W24967  13.417   9.923   4.767  0.1500 -0.0663  0.0572
 8834W        W24968   6.935  17.833   3.586  0.0829 -0.0567  0.0255
 8835W        W24969   3.987  17.653  11.962  0.0118  0.0437 -0.1843
 8836W        W24970  11.026  12.605   1.131  0.1314  0.1662 -0.1049
 8837W        W24971  14.789   9.016   0.867  0.2263  0.0887 -0.2041
 8838W        W24972   2.289   7.565   3.315  0.2059 -0.1741 -0.1392
 8839W        W24973   9.133   6.146  14.170 -0.1813 -0.1101 -0.2371
 8840W        W24974  11.975  15.484  13.258 -0.0833  0.0595  0.2187
 8841W        W24975  13.804  17.770  11.930  0.1136  0.1204 -0.0868
 8842W        W24976   2.976  13.839   0.381 -0.1549  0.2337  0.1059
 8843W        W24977  17.158   5.030  11.818 -0.0662 -0.2206 -0.1470
 8844W        W24978   9.264   1.621  14.866  0.2750 -0.4522  0.0303
 8845W        W24979  15.865   0.186  14.098 -0.0436 -0.2327  0.3309
 8846W        W24980   0.558   7.710  12.976  0.0191 -0.1055  0.0066
 8847W        W24981  16.005  12.259   1.607 -0.0654 -0.0687  0.1066
 8848W        W24982  14.028   6.536   0.946 -0.0059  0.0466 -0.0125
 8849W        W24983   6.792   5.679  13.094 -0.0459 -0.0030 -0.2494
 8850W        W24984   2.638  11.093   5.078 -0.1651 -0.3109 -0.1515
 8851W        W24985  15.366  14.572   3.811 -0.0753  0.1144  0.1941
 8852W        W24986  17.831  13.724  10.916  0.0786  0.0136 -0.2625
 8853W        W24987   7.096   7.329   3.698 -0.0594  0.3825 -0.2248
 8854W        W24988   9.490  13.199   5.070  0.0767 -0.0316  0.0541
 8855W        W24989   9.764   9.991  10.556  0.1963  0.1681  0.2282
 8856W        W24990  12.390  15.564  11.033 -0.0559 -0.0733  0.0480
 8857W        W24991   2.137   9.141  11.178 -0.0216 -0.1035  0.3074
 8858W        W24992   5.018   7.575   9.815 -0.1472  0.0807 -0.0318
 8859W        W24993  15.692   6.607  11.230 -0.1970  0.3476  0.0556
 8860W        W24994  18.044  10.965  11.494  0.3267  0.1182 -0.1409
 8861W        W24995  11.537   1.627  11.477  0.0313  0.1401  0.1781
 8862W        W24996  16.966   7.629  10.369  0.4802  0.1187 -0.0630
 8863W        W24997  15.423   9.279  13.059  0.2868 -0.0743  0.0992
 8864W        W24998   9.840   1.539  10.601 -0.1186 -0.3927 -0.1138
 8865W        W24999   3.455   6.808  11.486  0.0879  0.1353 -0.2571
 8866W        W25000   1.386   7.155   0.766  0.1950  0.1383 -0.1000
 8867W        W25001  16.360   8.636   3.724  0.0372  0.1317  0.3421
 8868W        W25002  10.275  13.136  11.663  0.2090 -0.0994 -0.0253
 8869W        W25003  11.503  12.649   9.748  0.1779  0.4377 -0.4384
 8870W        W25004   9.289   6.507   5.230  0.1802  0.2225 -0.1782
 8871W        W25005   1.294  13.759  14.004 -0.2338  0.1619  0.1644
 8872W        W25006  13.184  15.222   5.095 -0.2659 -0.2121  0.0149
 8873W        W25007  12.149  18.888   5.171  0.0240  0.1510 -0.0092
 8874W        W25008  12.331  10.453   4.581 -0.1116 -0.2252 -0.1694
 8875W        W25009  18.765  16.680  14.935  0.1565  0.1093  0.0285
 8876W        W25010   2.004  15.936  10.459 -0.0406 -0.1303 -0.1609
 8877W        W25011   8.342  15.534  12.250  0.2021  0.1201 -0.0807
 8878W        W25012   2.515  14.383   3.713  0.0032 -0.0481  0.0101
 8879W        W25013  13.774  19.200   3.337 -0.0256  0.0481 -0.1031
 8880W        W25014   9.430  14.024   0.221 -0.1138 -0.0783  0.0199
 8881W        W25015  17.273  11.461  13.238 -0.1714 -0.3903  0.0661
 8882W        W25016   9.078   7.932   1.791 -0.0135  0.0759  0.2075
 8883W        W25017  18.409   4.268   4.238  0.0575 -0.0244 -0.2677
 8884W        W25018  14.840   6.330  10.725 -0.0799 -0.1118  0.0029
 8885W        W25019  13.288   9.229   4.077  0.0150  0.0562 -0.2989
 8886W        W25020  16.125   5.167  11.273 -0.5483  0.2672 -0.0630
 8887W        W25021  11.946   1.707   3.183  0.2292  0.2486 -0.0347
 8888W        W25022   0.006   9.635  13.244  0.1624 -0.2333 -0.3485
 8889W        W25023  10.048   7.820   1.324 -0.0330 -0.0809  0.3606
 8890W        W25024  18.018  13.636  10.445  0.0749  0.0415  0.1444
 8891W        W25025   4.116  10.520  14.448 -0.1960 -0.2127 -0.1076
 8892W        W25026   4.334  14.125   1.808  0.1912  0.4011  0.2036
 8893W        W25027   0.168   4.277   3.339 -0.1122  0.3930  0.1466
 8894W        W25028   3.239  17.937  12.627 -0.0613  0.2110  0.1851
 8895W        W25029   5.745  11.865   1.248 -0.4139 -0.5376  0.0900
 8896W        W25030   4.532  15.400  14.005  0.1049 -0.1183  0.2049
 8897W        W25031   2.445   9.966   5.389  0.4145  0.1196  0.2135
 8898W        W25032   6.324   6.109  10.846 -0.0009  0.0476  0.0425
 8899W        W25033  16.040   1.612   3.313 -0.1128  0.0911 -0.0411
 8900W        W25034  15.829  17.587   2.830 -0.2875  0.2356 -0.0320
 8901W        W25035  18.033   7.807  11.600  0.0246 -0.3882  0.1169
 8902W        W25036   4.243   2.257   3.105 -0.0108 -0.0392  0.0376
 8903W        W25037  19.316  11.851   4.292 -0.3680  0.1404 -0.0599
 8904W        W25038  15.432  16.279   4.127 -0.1555  0.2299 -0.1063
 8905W        W25039  16.721   8.480  12.942 -0.0173 -0.0804  0.1186
 8906W        W25040  13.407   0.050   0.287  0.0594  0.0491 -0.0893
 8907W        W25041   3.494   3.850  14.578 -0.3621  0.0770 -0.2757
 8908W        W25042  14.269   1.954  13.428  0.1999 -0.2985  0.0971
 8909W        W25043  18.696   4.975   4.260  0.0409  0.2831 -0.2058
 8910W        W25044  12.768  12.599  11.014  0.4566  0.1545 -0.0433
 8911W        W25045   6.443   0.629   1.194 -0.1245 -0.1568  0.1970
 8912W        W25046  13.419  14.798  12.359  0.1245 -0.1599  0.4309
 8913W        W25047   7.940   4.800   4.033 -0.3475 -0.1038 -0.1089
 8914W        W25048  16.522   7.494   3.365 -0.2087  0.1716  0.1121
 8915W        W25049   9.733  18.345  11.538 -0.3143  0.0861  0.2977
 8916W        W25050   1.834   7.339   3.365 -0.3189  0.1935 -0.0009
 8917W        W25051  17.791   4.501  13.359  0.0270 -0.0118  0.0530
 8918W        W25052   2.671  12.977   2.159  0.2196  0.0692 -0.2632
 8919W        W25053  13.098   7.758  12.038 -0.0341 -0.0010  0.0727
 8920W        W25054   7.406   8.648  10.335  0.1214  0.1314 -0.1029
 8921W        W25055   7.179  12.739  11.214 -0.1158  0.2784  0.0736
 8922W        W25056   6.986  18.405  11.457  0.0067  0.1232  0.0551
 8923W        W25057   1.501  15.937  10.248  0.0044  0.1724 -0.1395
 8924W        W25058   3.715   4.523   1.592  0.2488  0.3315 -0.3065
 8925W        W25059  13.030   2.696   4.593 -0.2317  0.1966  0.2401
 8926W        W25060  14.540  19.012   1.557 -0.1398 -0.0603  0.0774
 8927W        W25061   8.726   6.318   1.979  0.0540  0.1424  0.0337
 8928W        W25062  13.030  10.546  11.369 -0.2772  0.4055  0.1949
 8929W        W25063  11.359  10.145   0.805 -0.2213 -0.1441 -0.1250
 8930W        W25064  17.828  10.420   4.578  0.3923  0.0636  0.2268
 8931W        W25065   3.117   7.033  11.863  0.0951 -0.0260 -0.1580
 8932W        W25066   0.096  17.732  11.079 -0.0499  0.3887  0.0230
 8933W        W25067  10.700  14.822   4.587  0.1392 -0.2207 -0.2114
 8934W        W25068   5.530  18.429   2.529  0.0701 -0.0293 -0.3304
 8935W        W25069  14.642   0.630  12.226 -0.0839  0.1430 -0.0339
 8936W        W25070   6.800   4.006   3.044 -0.0518 -0.0773  0.2154
 8937W        W25071   7.613   7.156   3.740 -0.3247  0.1783 -0.2788
 8938W        W25072  13.577  15.308   4.832 -0.2912  0.0857 -0.0777
 8939W        W25073  11.685  10.448  12.488 -0.2990 -0.3220  0.0579
 8940W        W25074  13.061   7.557   2.500 -0.0335  0.4043 -0.3141
 8941W        W25075  18.128  14.127   3.039  0.3356  0.3646 -0.1832
 8942W        W25076  17.438   6.551  10.135 -0.3840 -0.1762 -0.6041
 8943W        W25077   6.232  15.462   1.103 -0.2025  0.0640  0.0422
 8944W        W25078   4.534   1.560   0.714 -0.1679  0.2101  0.3134
 8945W        W25079  10.385   6.323   5.999  0.2256  0.0956 -0.1689
 8946W        W25080  15.743  16.059  13.209 -0.2793 -0.3129  0.0124
 8947W        W25081  11.905  10.829  11.531 -0.3143 -0.1331  0.1994
 8948W        W25082  17.569  12.404   1.521  0.0637 -0.0136  0.2099
 8949W        W25083  11.072  18.984  10.227  0.0348  0.1691  0.1893
 8950W        W25084   0.787  11.640   5.717 -0.3554 -0.4273  0.2343
 8951W        W25085   6.198   9.788  13.269  0.2038 -0.2947 -0.1137
 8952W        W25086   4.691   6.252   3.883  0.1626  0.1927 -0.1941
 8953W        W25087   9.153   5.402   5.941  0.0071  0.0463  0.0385
 8954W        W25088  12.034   4.845  13.319 -0.0216  0.2869  0.1817
 8955W        W25089   9.897  16.254   5.062 -0.0733  0.3544  0.3320
 8956W        W25090  15.995  17.910   4.357 -0.0340 -0.3114 -0.0922
 8957W        W25091   0.944   4.320   4.558  0.0745 -0.1619  0.0975
 8958W        W25092  14.098  14.679   4.475  0.0669 -0.0323  0.0623
 8959W        W25093   2.147  13.598  14.933  0.1438 -0.5731  0.1571
 8960W        W25094  16.798  19.231  12.925 -0.1871  0.0717  0.1825
 8961W        W25095  13.716  16.204  12.587  0.1002  0.0603 -0.0930
 8962W        W25096   9.327   7.454   5.023  0.2573 -0.0993 -0.2522
 8963W        W25097  18.271  12.536  14.636  0.0855  0.1157  0.1760
 8964W        W25098  10.595   5.106   1.451  0.1700  0.2822  0.0223
 8965W        W25099   9.876  10.571   1.833 -0.0395 -0.0457  0.2275
 8966W        W25100   2.563  17.417  10.936  0.0426  0.2797 -0.1052
 8967W        W25101  10.089   0.065  12.477  0.0703 -0.1126  0.0031
 8968W        W25102  18.533  19.304  10.427 -0.1151 -0.1200  0.2448
 8969W        W25103  19.154   7.011   4.814  0.2747  0.1151  0.0798
 8970W        W25104  15.063   5.663  12.096 -0.0628 -0.1062  0.1024
 8971W        W25105   8.076   8.508   3.382 -0.0731 -0.1568 -0.1122
 8972W        W25106  10.231  18.064  13.960  0.0085  0.3500 -0.2492
 8973W        W25107   8.912   9.132  14.690  0.0845 -0.1871  0.0872
 8974W        W25108  12.387   7.152   3.255  0.0956  0.0366  0.0725
 8975W        W25109   9.348   2.891  12.266 -0.1879  0.0284 -0.0697
 8976W        W25110  10.627   8.170   3.001 -0.0172  0.0966  0.0011
 8977W        W25111  18.030  16.935   2.347 -0.0960  0.0273  0.0542
 8978W        W25112   7.820  10.259  10.381  0.3724 -0.0160 -0.1257
 8979W        W25113   6.990   7.867  10.975 -0.0757 -0.2688 -0.2523
 8980W        W25114  10.994   0.929   0.119 -0.0514  0.0492  0.0885
 8981W        W25115  12.099   7.894  13.699 -0.0149 -0.1686 -0.0442
 8982W        W25116   0.117   9.124  13.177  0.2104 -0.1158 -0.4606
 8983W        W25117   3.788   2.016   0.948 -0.2421  0.0689 -0.2034
 8984W        W25118   4.018  11.658  11.773  0.1366  0.1559  0.0164
 8985W        W25119  16.927  17.169  10.059 -0.0930  0.4921 -0.0553
 8986W        W25120   7.148  14.806  12.619  0.0831  0.0445  0.1083
 8987W        W25121  19.091   9.510  10.753 -0.1224 -0.0660 -0.1232
 8988W        W25122  17.367  11.138   0.307 -0.0251 -0.0406 -0.1182
 8989W        W25123   8.767  17.915  14.962  0.0868  0.2413  0.0095
 8990W        W25124   6.726  11.985  14.703  0.0465  0.2416  0.1743
 8991W        W25125  11.280  14.452  11.363 -0.1971  0.0922 -0.1205
 8992W        W25126   4.688   3.319   1.651 -0.0784  0.2189  0.0054
 8993W        W25127  12.748  13.792   0.434 -0.0293  0.0485  0.1215
 8994W        W25128   1.758   4.721   0.904  0.0215  0.1442 -0.1868
 8995W        W25129  12.522   3.235   2.567  0.0036 -0.0289  0.1801
 8996W        W25130   5.027  14.719  11.517 -0.2490 -0.0287  0.1781
 8997W        W25131   8.703   9.009   2.074 -0.0963  0.0545 -0.0704
 8998W        W25132   1.361   1.006  12.644 -0.1482 -0.1025  0.2118
 8999W        W25133   2.604  10.435   1.700 -0.2019  0.1130 -0.2187
 9000W        W25134  16.314   6.554  12.488  0.2386 -0.0460  0.2738
 9001W        W25135  11.230  12.073  11.169  0.1336 -0.2931  0.1283
 9002W        W25136   8.876  13.220  10.430 -0.0750 -0.2598 -0.2358
 9003W        W25137  14.452  10.534   1.432 -0.2425  0.1406 -0.0842
 9004W        W25138  12.451  15.570   4.995  0.0645  0.3234 -0.2301
 9005W        W25139  17.302  12.801   0.450  0.0832 -0.1883 -0.1812
 9006W        W25140   1.290  11.165   3.633 -0.3558  0.4453 -0.0417
 9007W        W25141  19.182  10.923   2.588 -0.0255  0.0944 -0.0281
 9008W        W25142  14.939  11.737  14.595  0.0865  0.2682 -0.0047
 9009W        W25143  10.147  15.760   4.609  0.3346 -0.0170  0.1307
 9010W        W25144   5.625   1.589  13.114 -0.0173 -0.0193  0.0560
 9011W        W25145  17.825  13.950   5.498 -0.0054 -0.1468  0.0608
 9012W        W25146   1.082   6.087   4.027 -0.0497  0.0678 -0.1375
 9013W        W25147   1.405   9.785   1.322  0.1180 -0.3009 -0.2231
 9014W        W25148  17.718  14.906  14.734  0.0125 -0.3456 -0.2549
 9015W        W25149   2.034  17.040   2.580  0.1061 -0.0631 -0.2566
 9016W        W25150  15.521   8.930  13.429 -0.2825  0.2115  0.1689
 9017W        W25151   7.578   5.338  14.720 -0.0504 -0.1435  0.1028
 9018W        W25152   2.790  12.480  11.839 -0.1315  0.0705 -0.2478
 9019W        W25153   1.531   2.545   1.361  0.0545  0.1635 -0.0445
 9020W        W25154  17.220   5.854   1.799 -0.0253 -0.0241  0.1278
 9021W        W25155  11.963   2.549   2.311 -0.0330  0.1723  0.0714
 9022W        W25156   5.645   2.895  12.063  0.0730 -0.1631 -0.1999
 9023W        W25157   2.490   4.647  10.049  0.1464  0.2816  0.0793
 9024W        W25158  14.916  17.865   9.631  0.0545  0.0862  0.3438
 9025W        W25159  12.757   5.665  12.926 -0.1923  0.0962  0.5219
 9026W        W25160  17.961   7.013  11.549  0.2143  0.0571 -0.3205
 9027W        W25161   6.317  14.698   1.487 -0.1620  0.3375 -0.3450
 9028W        W25162   9.077   9.685   2.454  0.1454 -0.2307  0.3003
 9029W        W25163   6.900  18.234  11.013  0.1747 -0.2114 -0.1072
 9030W        W25164  18.866   4.077   4.745  0.3571 -0.1891 -0.1009
 9031W        W25165   8.778   3.911   3.172 -0.1082 -0.0934  0.0917
 9032W        W25166   4.078  12.181   4.379  0.0491 -0.1647 -0.2981
 9033W        W25167   7.980   0.986   0.257 -0.1844 -0.4346 -0.2574
 9034W        W25168   6.482  12.851   4.488  0.0814  0.2648  0.1493
 9035W        W25169   9.169  15.510   1.217 -0.1888  0.0300 -0.5204
 9036W        W25170   6.736   8.455  14.467 -0.4638 -0.1403  0.1845
 9037W        W25171   8.948   2.429  12.706  0.2280  0.1144  0.2974
 9038W        W25172  12.789   7.154   2.240  0.4690 -0.0701  0.0950
 9039W        W25173   4.885   8.106   1.299 -0.2919  0.0601  0.1444
 9040W        W25174  11.486   6.932   0.569  0.1083 -0.0663  0.0732
 9041W        W25175  19.134  12.860   0.330  0.2219 -0.2860  0.2740
 9042W        W25176  10.174  14.251  11.720 -0.0722  0.2008  0.0459
 9043W        W25177   4.434   5.157   9.421 -0.0934  0.1557 -0.2108
 9044W        W25178   1.894  14.208  12.230  0.3326  0.1754 -0.4822
 9045W        W25179   7.992  13.098  12.391 -0.4501  0.2593 -0.1646
 9046W        W25180  10.494  15.943  12.041  0.1462  0.0540  0.1767
 9047W        W25181   7.437  15.977   4.046  0.0956 -0.3392 -0.0460
 9048W        W25182   7.562  16.089   6.129 -0.0469  0.1213 -0.3728
 9049W        W25183  14.114   0.012  12.227 -0.0519 -0.1293  0.0716
 9050W        W25184   5.159   6.806   4.576 -0.0407  0.3546 -0.3163
 9051W        W25185   2.991   9.143   2.495 -0.1097  0.5168 -0.1982
 9052W        W25186  10.525  13.530  13.389  0.0707  0.1506  0.1827
 9053W        W25187   7.915  14.080  13.981 -0.1768 -0.1957  0.1089
 9054W        W25188  15.952   3.028  13.514 -0.0251 -0.4001  0.3081
 9055W        W25189  12.715   5.458   0.986 -0.3526  0.1759  0.0444
 9056W        W25190   3.538   5.262  13.800  0.0568  0.2583  0.1049
 9057W        W25191  18.596  17.379   2.051 -0.0119 -0.0652 -0.2017
 9058W        W25192  12.333   5.453   4.273 -0.1722 -0.0227 -0.0802
 9059W        W25193  12.192   5.865   2.089 -0.1662 -0.3679  0.0174
 9060W        W25194  17.213   7.374   9.526 -0.0535  0.0890  0.1411
 9061W        W25195   5.026   5.543  11.080 -0.0213  0.2736 -0.0447
 9062W        W25196  17.139   5.959  11.660 -0.0942 -0.0063 -0.2023
 9063W        W25197  13.534   1.893  11.077  0.2827  0.0556 -0.0638
 9064W        W25198  11.484   4.991   3.588  0.2229  0.2848 -0.0462
 9065W        W25199   1.677   5.456  13.533 -0.4106  0.0407 -0.0236
 9066W        W25200   2.413   5.600   4.094 -0.1215  0.0346  0.1323
 9067W        W25201   8.710   8.610   3.953 -0.2271 -0.0143 -0.0790
 9068W        W25202  13.568  19.309   9.412 -0.3241 -0.1468  0.0154
 9069W        W25203   2.645   8.746   3.126 -0.2694 -0.0539  0.1249
 9070W        W25204   8.224  15.718  14.597  0.1012 -0.2536  0.0411
 9071W        W25205  11.816   1.360  12.787 -0.2228  0.1923 -0.2146
 9072W        W25206   2.842   5.431   4.433  0.1931  0.0377 -0.0480
 9073W        W25207  12.542   2.221   4.011  0.2373  0.0764  0.1123
 9074W        W25208  10.988  15.931  10.858  0.1815 -0.0551 -0.2555
 9075W        W25209  18.291   5.630   5.040  0.0885  0.0604 -0.2611
 9076W        W25210   0.066  11.014   3.008  0.0166  0.0809 -0.2814
 9077W        W25211  15.334   7.859  12.569  0.2085 -0.0830  0.1416
 9078W        W25212   5.165   9.364   5.224 -0.1834 -0.2180  0.1931
 9079W        W25213   4.950  17.733  11.695  0.3796 -0.0891  0.0021
 9080W        W25214   7.903  13.291   1.113 -0.1538  0.1524  0.0054
 9081W        W25215  18.374   7.318  11.871 -0.0307  0.1883 -0.1446
 9082W        W25216   8.001  14.298  14.548 -0.1446 -0.2933 -0.2233
 9083W        W25217  12.883   5.935   1.184 -0.4461  0.1385  0.0402
 9084W        W25218   2.545   1.743   0.640 -0.1474  0.0256 -0.1601
 9085W        W25219  11.396  11.184  13.138  0.0652 -0.3698 -0.1442
 9086W        W25220   0.877   7.525  14.765 -0.0884 -0.1666 -0.0923
 9087W        W25221  10.786  12.286   4.120  0.0053 -0.3946  0.0814
 9088W        W25222  18.527   0.343  12.535  0.1501  0.1816 -0.2985
 9089W        W25223  13.217   6.972   0.881 -0.1200  0.1505 -0.1129
 9090W        W25224  15.409  17.002  13.385 -0.0884 -0.1249  0.4590
 9091W        W25225   5.077   8.397   4.480  0.2763  0.0200  0.0332
 9092W        W25226   2.294  17.176   5.189  0.0864 -0.1701  0.2229
 9093W        W25227  10.898  12.752  10.997 -0.1091 -0.1319  0.0983
 9094W        W25228  18.053   8.103  13.451  0.1797  0.0120 -0.0356
 9095W        W25229  12.029   9.843   0.592  0.1425 -0.0335 -0.2238
 9096W        W25230   2.898  18.144  13.099  0.4309  0.1353 -0.2809
 9097W        W25231   4.441   4.467   2.389 -0.3814  0.2432  0.0394
 9098W        W25232   9.253  13.138   0.801  0.0476 -0.2540 -0.2934
 9099W        W25233   7.881  14.030  11.807 -0.0014  0.0650  0.3606
 9100W        W25234   1.804   6.955  12.459  0.2653 -0.2291 -0.1153
 9101W        W25235  16.335   0.932  12.477  0.1045 -0.0296  0.1442
 9102W        W25236  14.081  10.821   2.258  0.1177  0.1761 -0.0020
 9103W        W25237   5.116  18.632  11.273 -0.3688 -0.1749 -0.2469
 9104W        W25238   4.035  14.661   5.235  0.0186 -0.0207 -0.2218
 9105W        W25239   2.427   3.868  13.790  0.3082  0.0268 -0.0917
 9106W        W25240   7.479   4.165   2.133  0.1888 -0.1205  0.0912
 9107W        W25241   5.559   8.003  10.706 -0.0160  0.0196  0.2342
 9108W        W25242   5.799  17.574  13.756 -0.0505  0.1579 -0.2323
 9109W        W25243  12.817   7.696   2.953  0.4032  0.0109 -0.1246
 9110W        W25244   6.720  16.224   1.100  0.1343  0.0528  0.2288
 9111W        W25245   4.164   0.894   0.863 -0.0089 -0.1692  0.0733
 9112W        W25246  16.796  15.496  11.481 -0.0503  0.1310 -0.0968
 9113W        W25247  18.265   4.308   0.453 -0.0817  0.2868  0.3495
 9114W        W25248  17.598   3.333   3.840  0.2035  0.0179  0.0016
 9115W        W25249   7.159  16.328  13.650 -0.2623  0.0278  0.0149
 9116W        W25250   2.967   0.784  12.536 -0.2031 -0.0362 -0.1165
 9117W        W25251  15.896   1.065  11.018 -0.1931  0.1784  0.0150
 9118W        W25252   3.833   2.117   0.360  0.2967 -0.2517  0.0486
 9119W        W25253   3.439   2.331  11.972  0.0428 -0.2477  0.2380
 9120W        W25254  13.331  18.221  10.669  0.0471  0.0719  0.1366
 9121W        W25255   7.577   4.169  12.652  0.1006  0.3037 -0.2299
 9122W        W25256  10.249   0.380   1.549  0.1762 -0.1248 -0.2824
 9123W        W25257  18.642   1.060  14.980  0.2827  0.0646  0.1110
 9124W        W25258  11.515  15.215  14.749 -0.2154 -0.0323 -0.0825
 9125W        W25259   6.865   3.730  12.157 -0.1731  0.0761  0.0899
 9126W        W25260   8.435   3.667   4.006 -0.3331  0.0234  0.0007
 9127W        W25261  11.657   8.818   0.540  0.1255  0.1435 -0.1880
 9128W        W25262   7.292  16.195  10.294  0.1750 -0.2183 -0.0401
 9129W        W25263   4.106  15.228   2.817 -0.0790  0.1037  0.1292
 9130W        W25264   8.208  10.383  14.306 -0.0881 -0.1716 -0.3161
 9131W        W25265   7.991   7.143  14.633 -0.0061  0.1568  0.1474
 9132W        W25266  10.072   9.837  11.458 -0.2153  0.1303 -0.1667
 9133W        W25267   4.492  12.774  11.279  0.2155  0.2271  0.0102
 9134W        W25268  18.121  17.930  13.909 -0.0503  0.1639 -0.0716
 9135W        W25269  14.997  14.524  10.755 -0.0382  0.4604  0.1509
 9136W        W25270   8.996  16.120  14.272 -0.0477  0.3394 -0.0024
 9137W        W25271   9.301   8.386   4.032 -0.1400  0.0385 -0.0477
 9138W        W25272  12.731   4.727   3.469 -0.1884 -0.2168  0.0290
 9139W        W25273   1.357  17.066   3.283  0.0580  0.1192 -0.1131
 9140W        W25274   0.309   0.506  14.648 -0.2195  0.4383  0.2482
 9141W        W25275  11.938  16.155  10.696  0.1057 -0.3249  0.0447
 9142W        W25276  13.942   6.247  14.918 -0.2267  0.0948 -0.1811
 9143W        W25277  19.197  11.944  10.998  0.0585  0.2131  0.1394
 9144W        W25278  10.557   9.880   0.470  0.3069 -0.1520 -0.0657
 9145W        W25279  19.133   2.024  10.124 -0.1169 -0.2092 -0.4625
 9146W        W25280   6.846   8.436   5.672  0.1628  0.2286 -0.1762
 9147W        W25281  11.801   1.959  13.092  0.0874  0.2224 -0.0042
 9148W        W25282   3.889   6.886  14.184  0.6858 -0.0109 -0.0997
 9149W        W25283  12.586   4.832  11.573 -0.2840  0.0629 -0.1449
 9150W        W25284   1.177   5.417  13.761 -0.0173 -0.0350 -0.1279
 9151W        W25285   7.553   4.808  12.572  0.3330 -0.0525  0.2587
 9152W        W25286  10.745   1.963   2.952  0.1595 -0.0903  0.0110
 9153W        W25287   4.051   3.796  11.041  0.1030  0.1217  0.1293
 9154W        W25288   4.164  12.806  14.532  0.0403  0.3622  0.1666
 9155W        W25289   4.265   3.530   4.238  0.2859 -0.0425 -0.0043
 9156W        W25290   9.673   8.365   0.579 -0.1690  0.2392 -0.1132
 9157W        W25291  18.354  18.213  12.712  0.1002 -0.2874 -0.3403
 9158W        W25292  13.808  17.069   1.593  0.0638  0.1288 -0.0968
 9159W        W25293   5.999  16.230   2.896 -0.0255 -0.0011 -0.0193
 9160W        W25294  11.639  14.557   2.311  0.1819  0.1335 -0.3175
 9161W        W25295   4.999  12.892   3.925  0.0816 -0.1114  0.2873
 9162W        W25296  17.362   0.017  12.341  0.1189  0.1640  0.1504
 9163W        W25297   2.972   9.303   0.052 -0.3537 -0.3466 -0.0780
 9164W        W25298  10.774  14.021   0.893  0.1020 -0.0499  0.1205
 9165W        W25299   7.324   6.927  12.099 -0.1083 -0.2417  0.1010
 9166W        W25300  15.402   3.465  14.122  0.1557  0.2040 -0.1495
 9167W        W25301   3.279   3.424   3.501  0.1634  0.5863  0.1186
 9168W        W25302   9.171  15.285   4.402 -0.0153 -0.0882  0.0756
 9169W        W25303   2.246  12.621   3.452 -0.1479 -0.3748  0.0800
 9170W        W25304   0.317   9.886   1.019 -0.1203 -0.2841 -0.3291
 9171W        W25305   6.502   5.576  14.761  0.1429 -0.1021  0.3033
 9172W        W25306   1.215   2.540   0.501  0.2258 -0.2015  0.0765
 9173W        W25307   2.619   0.949   0.396  0.3461  0.0586 -0.1492
 9174W        W25308  13.873   9.897  12.993 -0.2090  0.0199 -0.1018
 9175W        W25309   4.677  11.643  13.854  0.0811 -0.2767 -0.1927
 9176W        W25310   2.731   1.760   1.977 -0.1042 -0.0138 -0.2672
 9177W        W25311  18.569   9.844  13.923 -0.0105 -0.0751  0.0084
 9178W        W25312   4.186   0.274   2.481 -0.5765  0.1391  0.2134
 9179W        W25313  14.099  10.713   3.807 -0.1334  0.2414 -0.0289
 9180W        W25314  16.946  14.130  10.982 -0.1204  0.2450 -0.2606
 9181W        W25315  17.929  12.672  12.383  0.2499  0.0707 -0.1158
 9182W        W25316   2.400   7.085   2.265  0.1570 -0.0452 -0.2590
 9183W        W25317  15.071   3.259   0.600 -0.0152 -0.1980  0.1557
 9184W        W25318   7.453   4.675   3.541  0.2326 -0.4811  0.0870
 9185W        W25319  15.930   8.573   0.118 -0.1154  0.2413 -0.1856
 9186W        W25320  17.059   5.291   4.240 -0.0561 -0.1435 -0.1730
 9187W        W25321  13.404   2.227  14.955 -0.1348  0.0822  0.3355
 9188W        W25322   2.629  11.171  12.026 -0.2655 -0.1503 -0.4207
 9189W        W25323  19.204  10.762  13.190  0.3445  0.0389  0.0388
 9190W        W25324  15.554  18.924  11.526 -0.1434 -0.0813 -0.0422
 9191W        W25325   2.444  12.143   4.885 -0.0529 -0.1034 -0.1746
 9192W        W25326  18.663  16.441  14.530 -0.1009  0.0298 -0.0757
 9193W        W25327   5.553   5.199   1.886  0.0519 -0.0677 -0.2158
 9194W        W25328   7.244  18.916  10.668  0.1386  0.1441  0.2692
 9195W        W25329  19.000   7.641  11.192 -0.1106 -0.1795 -0.1694
 9196W        W25330   9.916  12.508   3.635 -0.2482  0.2022  0.1248
 9197W        W25331   9.533  14.079   2.038  0.1348  0.2079 -0.1348
 9198W        W25332  18.701   3.432   2.466 -0.0650  0.1050 -0.2309
 9199W        W25333   5.520   8.912   3.169 -0.1165  0.3217 -0.0995
 9200W        W25334   6.653   0.372   4.436 -0.1944 -0.0144 -0.3615
 9201W        W25335  17.510  14.566   1.972 -0.1508  0.2935 -0.0092
 9202W        W25336   0.033   0.720   0.492  0.1861  0.2732 -0.0964
 9203W        W25337  11.040   3.428   0.257  0.0396 -0.0086  0.1187
 9204W        W25338   0.222   5.948  13.336  0.3162 -0.3531  0.3192
 9205W        W25339   0.582   9.672   0.566 -0.0239 -0.2174 -0.3861
 9206W        W25340  18.882   8.610   3.718 -0.2047  0.0449  0.0077
 9207W        W25341   1.610   2.619  14.516 -0.2386  0.2975 -0.0652
 9208W        W25342   5.426  11.335  11.731 -0.0014  0.2400 -0.0426
 9209W        W25343   9.765   0.321   4.375  0.4159 -0.0303  0.2562
 9210W        W25344   2.222  14.993  14.988  0.1792 -0.1171 -0.0829
 9211W        W25345  13.844   8.626   9.465  0.0187  0.0436 -0.1558
 9212W        W25346  10.067   2.868  13.919 -0.0285 -0.2761 -0.0705
 9213W        W25347  13.855  17.901   1.713  0.0111 -0.0264 -0.0219
 9214W        W25348  16.757  17.878  11.954  0.6457 -0.2165  0.0999
 9215W        W25349   9.166   3.085  13.373 -0.0457  0.1173  0.0159
 9216W        W25350   4.075  17.254   0.713  0.1678  0.0620  0.0793
 9217W        W25351   3.139  13.351  14.107  0.0288  0.1322  0.3697
 9218W        W25352   3.054  18.526   2.234  0.1869  0.4042 -0.2038
 9219W        W25353   2.517   9.666  10.493 -0.1401  0.1844 -0.0105
 9220W        W25354  12.342  15.143  13.071  0.2728 -0.2979  0.1071
 9221W        W25355  12.125   8.907  13.464  0.3136 -0.2862 -0.1153
 9222W        W25356   9.505  11.726  13.212 -0.0666  0.1422 -0.1902
 9223W        W25357  10.556  14.828  11.333 -0.0973  0.2847 -0.3355
 9224W        W25358  16.949   3.510  11.797 -0.1836  0.2421  0.2401
 9225W        W25359   2.604   7.787   0.546 -0.0107  0.0989  0.1113
 9226W        W25360   5.299   9.716   1.201  0.1549  0.0448 -0.1205
 9227W        W25361   1.131  16.580  14.537 -0.0228 -0.3000  0.3261
 9228W        W25362   4.721   3.676   0.868  0.1724  0.0809 -0.2358
 9229W        W25363  15.130   3.133   0.112  0.0126 -0.2280 -0.1143
 9230W        W25364   5.576  13.961  10.574 -0.1215  0.1141 -0.1148
 9231W        W25365  14.816   7.059   0.282 -0.1585 -0.1139  0.2256
 9232W        W25366  12.313   0.978   3.940  0.0132 -0.1082 -0.0440
 9233W        W25367  14.047  14.729   2.325  0.0915  0.2328 -0.1322
 9234W        W25368  16.194  12.125  10.372  0.4021 -0.2540  0.1338
 9235W        W25369   6.718   9.891  11.942 -0.2420 -0.1223 -0.0567
 9236W        W25370  16.927   7.582  13.875  0.2104 -0.2705 -0.2339
 9237W        W25371  10.414   0.807  10.828  0.0927  0.0584  0.3308
 9238W        W25372  10.563   0.841   1.904  0.2903 -0.0534 -0.2003
 9239W        W25373   1.477  10.979  14.855 -0.0858 -0.1485  0.0932
 9240W        W25374  18.378   4.600  10.639  0.1700  0.1921 -0.2144
 9241W        W25375   2.661  14.394   4.841 -0.2912  0.0701 -0.2358
 9242W        W25376  10.412  15.512  13.932 -0.1403  0.4263 -0.1239
 9243W        W25377   6.894  16.036   2.888 -0.1348  0.0255  0.2721
 9244W        W25378  15.204   5.095   0.837  0.1921 -0.1361  0.3859
 9245W        W25379   4.322   1.646  12.431 -0.1168  0.2169  0.4003
 9246W        W25380  12.067  14.713  13.534  0.0070 -0.0535 -0.0384
 9247W        W25381  12.002  19.196  14.883  0.0180  0.2997  0.0589
 9248W        W25382   3.733  18.289  10.505  0.0109 -0.1262  0.1222
 9249W        W25383  16.470   4.735   2.749  0.2062 -0.4251 -0.2567
 9250W        W25384   4.125  13.338   4.091 -0.1426 -0.0051  0.1517
 9251W        W25385  16.616  15.372  10.496  0.2602  0.0051 -0.2877
 9252W        W25386  11.088  15.502  14.967 -0.0597  0.1352  0.3627
 9253W        W25387  15.758  12.062   0.239  0.1736  0.1792 -0.0383
 9254W        W25388   6.835   0.190   5.689 -0.0528  0.1599  0.0089
 9255W        W25389  17.828  17.507  13.877  0.2226  0.0012 -0.2929
 9256W        W25390   0.768   2.337  12.890  0.0110  0.0919 -0.2510
 9257W        W25391   4.983  17.100  13.230  0.2811 -0.1776  0.4688
 9258W        W25392   4.921   0.723  13.513 -0.0805 -0.0216 -0.1307
 9259W        W25393   1.048   8.539   4.318 -0.1210 -0.0700 -0.0538
 9260W        W25394   9.107  11.841  12.252 -0.2332  0.1779 -0.1710
 9261W        W25395  11.959   3.132   2.978 -0.0092  0.2662 -0.1431
 9262W        W25396  18.563  18.428   1.006 -0.1973  0.1213 -0.1525
 9263W        W25397  12.341  11.358   1.785  0.0681 -0.0784  0.1930
 9264W        W25398  11.171  18.904  10.713  0.1558  0.1415  0.0389
 9265W        W25399  13.832  12.278   2.011  0.4196  0.2846  0.0335
 9266W        W25400  11.062   2.212   3.519 -0.3524  0.0101 -0.2465
 9267W        W25401   7.906  13.963  12.921  0.2192 -0.2678  0.0570
 9268W        W25402  12.914  19.230   0.285  0.0868 -0.0817  0.1137
 9269W        W25403   3.259   4.083  14.969 -0.0908  0.0232 -0.0360
 9270W        W25404   1.496  11.218  11.296 -0.1118 -0.3296  0.0631
 9271W        W25405   5.427   3.799   1.623 -0.1393 -0.1647  0.0527
 9272W        W25406  17.970  16.721  12.355 -0.2727  0.0749 -0.0220
 9273W        W25407   9.461   3.899   5.277  0.2633  0.1625 -0.0547
 9274W        W25408   0.619   6.466   5.132 -0.2632  0.0673  0.2269
 9275W        W25409  14.431   5.021   3.895  0.1743  0.2857 -0.1215
 9276W        W25410  14.144   4.554   0.351  0.1805  0.5047  0.1316
 9277W        W25411  16.040  16.982  10.932 -0.0176 -0.2454 -0.0581
 9278W        W25412   2.272   4.270   2.784 -0.1011 -0.0725  0.0572
 9279W        W25413  17.641   0.664   3.176 -0.0521 -0.1403  0.0727
 9280W        W25414  14.729  16.740   9.949 -0.0852 -0.3641  0.4395
 9281W        W25415   6.392  12.296  12.729 -0.1236  0.2711  0.0709
 9282W        W25416   6.567  13.228  11.838 -0.0460 -0.2150  0.0638
 9283W        W25417  11.472   5.266  14.732  0.0363 -0.0626 -0.1330
 9284W        W25418   7.866   3.647  12.306 -0.0085  0.0265  0.0350
 9285W        W25419   2.081   6.918   2.637 -0.1725 -0.1925 -0.0732
 9286W        W25420  10.692  18.056  14.118 -0.1168  0.1093  0.1419
 9287W        W25421  12.816  15.089  14.477  0.1234  0.0700  0.0106
 9288W        W25422   3.990  18.453  14.268  0.2999 -0.0383  0.0395
 9289W        W25423   2.492  10.242  12.018  0.0228 -0.0640 -0.6670
 9290W        W25424   3.224  11.652   1.875  0.0501 -0.0055 -0.0484
 9291W        W25425  11.119  13.442   2.302  0.1463  0.3213  0.2853
 9292W        W25426  17.544  14.849   4.754  0.3103  0.0228  0.4965
 9293W        W25427  16.193  15.066   0.109 -0.3247 -0.0323 -0.0463
 9294W        W25428   4.944  10.670  12.275  0.0188 -0.4896 -0.2473
 9295W        W25429   5.159   6.265   0.579  0.0889  0.1075 -0.1470
 9296W        W25430  15.555  17.499   3.727 -0.1618  0.0458 -0.2502
 9297W        W25431   6.749   2.361   1.324 -0.0092 -0.3118  0.1230
 9298W        W25432   6.346  16.707   3.594  0.2236  0.0395  0.1417
 9299W        W25433   5.786  14.813   4.233 -0.2231 -0.2056 -0.7161
 9300W        W25434  14.870  14.408  11.222  0.2512 -0.2637  0.1053
 9301W        W25435   3.218   5.938   2.101 -0.0916 -0.7672 -0.3661
 9302W        W25436  10.881  17.499  11.588 -0.1253 -0.2906 -0.3099
 9303W        W25437   0.656   5.595   0.315 -0.4626 -0.2369 -0.0466
 9304W        W25438   9.662  17.873   1.012  0.1398  0.0359  0.3173
 9305W        W25439  11.251  17.935  12.535  0.0382  0.0382 -0.1875
 9306W        W25440   4.083  17.544  13.294  0.1437 -0.1385 -0.2220
 9307W        W25441   9.182  13.157  13.683  0.0416  0.3740  0.1138
 9308W        W25442  16.889  16.628  13.490 -0.1058 -0.2317 -0.0056
 9309W        W25443   5.019   8.078  14.163 -0.0371 -0.2885  0.3178
 9310W        W25444   8.153  16.711  10.341 -0.1234  0.3095  0.1875
 9311W        W25445   3.234   8.855  13.039  0.1595  0.1945 -0.2637
 9312W        W25446  14.072  17.472  10.671  0.1328  0.1602 -0.2234
 9313W        W25447  12.533  11.141   0.788  0.3149  0.2533 -0.1459
 9314W        W25448  13.763   9.120   4.914  0.1510  0.0607 -0.1783
 9315W        W25449  15.836   4.125  10.806 -0.0060  0.0646  0.1088
 9316W        W25450   5.230  18.959  13.825 -0.1530 -0.2481  0.0567
 9317W        W25451  16.253   7.569   0.904 -0.2189 -0.3189 -0.1579
 9318W        W25452   7.577  16.277   2.158  0.2283  0.2974  0.1874
 9319W        W25453   0.194  15.288  12.530  0.1595  0.1460  0.2123
 9320W        W25454   7.127   1.594  12.211 -0.0149  0.2722 -0.0266
 9321W        W25455  19.200  12.857   2.375 -0.2170 -0.2294 -0.1536
 9322W        W25456  10.425   7.111   5.620 -0.1106  0.0786  0.1281
 9323W        W25457   4.936  19.167   1.378 -0.2361 -0.1484  0.0095
 9324W        W25458   9.418  15.847  13.849  0.0333  0.0255  0.2190
 9325W        W25459   3.008  14.746  14.826  0.1730  0.0947 -0.0016
 9326W        W25460  14.027  12.036  11.258 -0.4218  0.0276  0.0785
 9327W        W25461   3.461   3.644   4.796  0.1613  0.0290  0.0451
 9328W        W25462  14.560  16.542  14.320 -0.2237  0.0302  0.1084
 9329W        W25463  18.977  17.591   2.239  0.1074 -0.1253 -0.1721
 9330W        W25464  10.956   4.108   2.890  0.3932 -0.0654 -0.2145
 9331W        W25465  15.189   6.005   3.828 -0.1802 -0.0260 -0.0730
 9332W        W25466   6.885  14.272   3.963  0.1829 -0.1028  0.0177
 9333W        W25467   3.910   7.091   3.984 -0.4383  0.2883 -0.0419
 9334W        W25468  13.167   5.503  14.721 -0.1515 -0.1613 -0.4287
 9335W        W25469   8.388  14.167   2.613 -0.2761 -0.2532 -0.1550
 9336W        W25470   5.692   0.439  14.999 -0.1953 -0.0148  0.2413
 9337W        W25471  16.306  16.438   3.025 -0.3542 -0.2071  0.0692
 9338W        W25472  14.035  18.525  10.428 -0.0844 -0.0077  0.1687
 9339W        W25473   6.944  15.690  12.682 -0.3428 -0.2028 -0.0775
 9340W        W25474  10.457   0.521   0.557  0.1406 -0.5036 -0.2230
 9341W        W25475  16.784  17.028  14.325  0.0365 -0.1955 -0.0519
 9342W        W25476   4.497  14.417  14.822  0.0849  0.4256 -0.3834
 9343W        W25477   4.804  16.564   0.507 -0.0766  0.2031  0.3774
 9344W        W25478  15.150  11.606  11.744 -0.0559 -0.0194  0.0500
 9345W        W25479  11.520  19.071   0.860  0.0694 -0.1740  0.1284
 9346W        W25480   7.520  15.811  12.003 -0.1826 -0.1750 -0.1182
 9347W        W25481  14.929   0.460  10.819  0.1941 -0.0712  0.1842
 9348W        W25482   4.978  13.451   6.051 -0.2561  0.0662 -0.0690
 9349W        W25483  11.222  18.104   2.254 -0.3252  0.2805  0.0147
 9350W        W25484   2.940  17.011   9.738 -0.5154 -0.0306 -0.0322
 9351W        W25485   8.013   5.531   3.400  0.3627  0.1143  0.1745
 9352W        W25486   0.149  10.086  14.943  0.0068  0.2024  0.0479
 9353W        W25487  11.041   4.519   4.148  0.1683 -0.5021  0.0553
 9354W        W25488  19.144  17.789  12.059 -0.2381  0.0488  0.1481
 9355W        W25489   7.170  19.078   0.287  0.2205  0.1078 -0.0227
 9356W        W25490  11.662   2.865  10.817 -0.1711  0.1216 -0.0214
 9357W        W25491  15.849   6.667   3.327 -0.3180 -0.0694  0.1613
 9358W        W25492  12.430  16.975   0.853  0.2796 -0.1017 -0.1199
 9359W        W25493   0.980  16.156   1.260 -0.2979  0.0556 -0.2061
 9360W        W25494  18.360  17.959  12.268 -0.0570  0.0147  0.3080
 9361W        W25495  17.473   3.636  11.797  0.1572  0.1455  0.0575
 9362W        W25496   6.753  11.880   1.585 -0.0999 -0.0342 -0.0530
 9363W        W25497  17.825   5.114   0.502 -0.1482  0.0367  0.0461
 9364W        W25498  18.331  15.814  11.401 -0.0131  0.0328 -0.0144
 9365W        W25499  12.393   3.861  14.191  0.0663  0.0458  0.3860
 9366W        W25500   5.126  16.784  12.073  0.1108 -0.1163  0.0876
 9367W        W25501   7.166  18.220   3.360 -0.2280 -0.2816 -0.2357
 9368W        W25502   0.327   9.379  12.416  0.1342  0.0040  0.0812
 9369W        W25503  11.183   1.203  11.445 -0.2222  0.0744 -0.2049
 9370W        W25504   4.193  17.150   3.996  0.2642  0.1384 -0.0130
 9371W        W25505  12.269   3.361   4.661  0.0572 -0.0404  0.2980
 9372W        W25506   5.527   2.519  12.439 -0.1809  0.0297  0.2490
 9373W        W25507   3.371   1.653  11.424  0.2319 -0.3208 -0.0775
 9374W        W25508   9.798   4.651   0.927 -0.0124  0.0093  0.3000
 9375W        W25509   5.604  12.663  14.515  0.0423 -0.0416 -0.2321
 9376W        W25510   5.398   4.318   0.480  0.1670  0.1270  0.2846
 9377W        W25511   0.956  10.917   2.334  0.2561 -0.3704 -0.0447
 9378W        W25512   3.008  14.222  13.414 -0.3203  0.6178 -0.0638
 9379W        W25513   3.897   2.874  14.800 -0.0718  0.1033 -0.0323
 9380W        W25514  17.283  17.052  10.401 -0.3125  0.0816 -0.1090
 9381W        W25515   2.267  13.300  10.371  0.1572  0.1145 -0.0111
 9382W        W25516  17.205  17.974   2.882  0.0257  0.2280  0.0645
 9383W        W25517  10.832  10.343  12.278  0.0462 -0.0968  0.0418
 9384W        W25518   9.568  18.994  14.322 -0.1506 -0.2543 -0.1286
 9385W        W25519   9.329   5.112   3.719  0.0734  0.1093  0.1831
 9386W        W25520   7.513  12.739  12.577 -0.3171  0.0216 -0.1001
 9387W        W25521  15.336   7.885  11.728  0.2047 -0.0591  0.0206
 9388W        W25522   7.858  16.206  12.595 -0.0517  0.1989 -0.2023
 9389W        W25523  15.754   7.232   2.532 -0.2505  0.0487  0.1191
 9390W        W25524   6.317  17.815   0.217 -0.0993 -0.2709 -0.0457
 9391W        W25525  16.491  19.299   0.694  0.2939 -0.1887  0.0499
 9392W        W25526   0.411  12.187  12.242 -0.2677 -0.2025  0.1729
 9393W        W25527  17.526   8.264   2.536 -0.1596  0.1418 -0.0769
 9394W        W25528   8.949   3.438   4.785  0.2659  0.3514 -0.0445
 9395W        W25529   6.603   6.787   9.432 -0.1438 -0.0569 -0.2265
 9396W        W25530  15.874  11.277  13.557 -0.4342 -0.0509  0.0787
 9397W        W25531  18.018  10.011  13.880 -0.1475 -0.2305  0.0395
 9398W        W25532  18.171   2.023   2.981  0.1986  0.2552 -0.2204
 9399W        W25533  12.427  12.578   4.340  0.1440 -0.4594 -0.1232
 9400W        W25534  15.917   5.233   4.660 -0.0509  0.1755  0.1865
 9401W        W25535  10.357  14.413   3.313 -0.1800  0.2080 -0.1277
 9402W        W25536   5.973   4.911  13.728  0.1337 -0.0964 -0.3265
 9403W        W25537  10.059   9.645   9.991  0.2175 -0.3014  0.1917
 9404W        W25538   6.028  10.414   2.793  0.0024 -0.3083  0.0831
 9405W        W25539  13.692   8.152  11.089 -0.4453  0.0716 -0.0608
 9406W        W25540  18.602   5.800   3.900  0.0893 -0.1043 -0.0114
 9407W        W25541   8.605   6.196  13.159  0.1170  0.2562  0.3292
 9408W        W25542  18.753  12.132   3.620 -0.0435 -0.0472 -0.1013
 9409W        W25543  13.643   1.174  10.621  0.1510  0.0011 -0.3334
 9410W        W25544   1.128  15.579   3.680 -0.2232 -0.0674  0.1727
 9411W        W25545   4.071   2.472   0.725 -0.5410 -0.1151  0.0837
 9412W        W25546  18.130  17.288  14.855 -0.0557  0.1414 -0.0252
 9413W        W25547   8.806   1.027  11.932 -0.0148  0.1669 -0.1943
 9414W        W25548  10.028  18.896   1.053 -0.2389 -0.2987 -0.0651
 9415W        W25549   4.215  12.124  11.953 -0.0309 -0.0206  0.0637
 9416W        W25550  17.371   9.530   2.352  0.1508 -0.3726 -0.3179
 9417W        W25551   1.573   4.078   0.372  0.3141 -0.0319  0.1315
 9418W        W25552  16.415  18.748  10.116  0.0912 -0.0592  0.1282
 9419W        W25553   1.117   3.338   4.549 -0.1538  0.0426 -0.0403
 9420W        W25554   4.489   8.323  14.828  0.0030  0.2225 -0.1796
 9421W        W25555   3.865  18.175   2.696  0.4938 -0.2037 -0.2543
 9422W        W25556  13.543   6.558   0.908  0.1134  0.0451  0.1028
 9423W        W25557  17.431  10.857   4.528  0.0867  0.2423  0.1007
 9424W        W25558   6.600  16.124  11.914 -0.1442  0.1414  0.2929
 9425W        W25559  14.123   8.414  11.117 -0.1263  0.3247 -0.2207
 9426W        W25560  14.154   2.082  13.953 -0.2459 -0.0326 -0.3308
 9427W        W25561   2.914   0.592   2.567  0.0380 -0.2043 -0.2677
 9428W        W25562   0.495   3.260   9.431  0.0757 -0.0590  0.1568
 9429W        W25563  11.674  18.827  10.811  0.0789  0.2994  0.3073
 9430W        W25564   9.898  14.021   0.462 -0.1289 -0.0095 -0.1717
 9431W        W25565  14.730   0.501  13.891 -0.0476  0.1859  0.0148
 9432W        W25566   4.162   3.176   0.258  0.0428  0.3769 -0.4450
 9433W        W25567  10.927   8.988  10.604 -0.1873  0.1302  0.0477
 9434W        W25568   6.313  15.077   0.545 -0.0711  0.2176  0.2361
 9435W        W25569  17.414   9.449   1.504  0.0115  0.3338 -0.1718
 9436W        W25570   6.660   7.891   3.961 -0.0002  0.0132 -0.2574
 9437W        W25571  15.462  14.527  14.533  0.3592 -0.1137  0.0122
 9438W        W25572   9.130  18.839   0.088 -0.3670 -0.1805  0.0569
 9439W        W25573  15.757  17.097  11.392  0.0049 -0.0603  0.0352
 9440W        W25574   2.059   0.100   0.183 -0.0258  0.2276  0.2176
 9441W        W25575   3.613  12.210   3.608  0.0003  0.1465  0.0862
 9442W        W25576  14.363   6.321  12.710  0.0740 -0.1231 -0.1751
 9443W        W25577   9.298  15.888  13.011 -0.1847 -0.2576 -0.1905
 9444W        W25578   0.700  12.940  13.300  0.2418  0.1959  0.0887
 9445W        W25579  14.128   8.364   4.774  0.0520 -0.1352 -0.0131
 9446W        W25580  13.346  15.344  13.075 -0.2493 -0.6391 -0.2028
 9447W        W25581   0.085   7.795  13.823  0.0753  0.3048 -0.1007
 9448W        W25582  14.409   4.281   2.203  0.0485 -0.4124 -0.0544
 9449W        W25583  14.612   0.675   2.642 -0.1057  0.0993  0.3922
 9450W        W25584   7.208   4.953  11.693 -0.1892 -0.1314 -0.1765
 9451W        W25585   3.469  13.356   5.024 -0.2137 -0.0637 -0.1280
 9452W        W25586  12.800   9.119   3.613  0.0390 -0.1863 -0.3395
 9453W        W25587  19.202   1.303  13.218  0.1102  0.0076 -0.1183
 9454W        W25588  17.994   4.029   0.797 -0.2335  0.1055 -0.0584
 9455W        W25589   4.241  14.225   4.191  0.0907  0.2980 -0.0590
 9456W        W25590   5.463  14.617   4.726  0.2302  0.1447  0.2803
 9457W        W25591  16.719   4.895   0.186  0.1618 -0.0339  0.0270
 9458W        W25592  17.147  17.418   2.821  0.1169 -0.0059 -0.2675
 9459W        W25593   0.606  17.728  12.652 -0.0997  0.0224  0.2749
 9460W        W25594  18.088   6.094   2.343 -0.0806 -0.0798  0.0613
 9461W        W25595  17.282   2.232  12.082  0.2019  0.0841 -0.0190
 9462W        W25596   8.820  15.921  13.335 -0.0246 -0.0647  0.1544
 9463W        W25597  13.824   7.461   3.567  0.2323  0.0876  0.1919
 9464W        W25598   0.004  16.026   2.155 -0.1504  0.0067 -0.1775
 9465W        W25599  18.023   2.934  10.513 -0.0128 -0.0832  0.0279
 9466W        W25600   8.768  14.309   4.501  0.3805  0.0170 -0.1640
 9467W        W25601  11.325  16.011  11.871  0.4250  0.3056  0.0176
 9468W        W25602   4.104   8.207   3.124  0.0360  0.2535 -0.2299
 9469W        W25603  12.014  16.654  11.430  0.0121  0.0388  0.0859
 9470W        W25604   6.082   5.308   2.245  0.0244  0.4931  0.1758
 9471W        W25605  15.598   9.858  11.142  0.1995  0.3558  0.0072
 9472W        W25606  15.774  17.395  13.341 -0.0538 -0.1498 -0.0440
 9473W        W25607  16.578   6.708   3.203  0.3905  0.1274  0.1105
 9474W        W25608  16.551  11.458  11.113  0.1727 -0.0359 -0.4883
 9475W        W25609   5.277   6.273  14.684 -0.0097  0.0470  0.3089
 9476W        W25610   3.201  16.969  12.695 -0.1954 -0.0443  0.5285
 9477W        W25611  19.182  15.583   0.348 -0.2602 -0.1208 -0.6674
 9478W        W25612   3.193   4.218  10.705 -0.2862  0.0093 -0.0912
 9479W        W25613   3.552   1.546   0.767  0.1679  0.0308 -0.1910
 9480W        W25614   9.181   7.143   2.341 -0.5112 -0.0320 -0.3366
 9481W        W25615  15.739  18.399  10.607  0.0121 -0.0828  0.0472
 9482W        W25616   5.538  15.465  11.874 -0.3169 -0.1345 -0.1392
 9483W        W25617  18.893   0.668  13.575 -0.0765 -0.1725  0.1585
 9484W        W25618  14.529   7.969   2.569  0.2325  0.0423  0.2152
 9485W        W25619  16.242  18.344  10.492  0.0801 -0.2055 -0.1399
 9486W        W25620  14.009  18.839   0.771  0.1485  0.2729  0.1554
 9487W        W25621  13.976   0.542   3.502 -0.0301  0.2859 -0.0380
 9488W        W25622  16.977  14.955   1.228 -0.1527 -0.0374 -0.2554
 9489W        W25623  15.529   8.532  14.750 -0.2659  0.0813 -0.1719
 9490W        W25624   9.290  14.476   2.825  0.1155  0.0493  0.4428
 9491W        W25625  11.043  11.493  14.745 -0.3287  0.2547  0.1099
 9492W        W25626   2.115   4.475  12.200 -0.0909  0.2954 -0.2056
 9493W        W25627  10.193  14.336   1.233  0.0261 -0.0363  0.0927
 9494W        W25628  14.650   1.249  14.021  0.1481 -0.1511 -0.1385
 9495W        W25629  11.966  18.032   2.979  0.0876 -0.2163  0.2388
 9496W        W25630   6.647   3.851  15.009  0.2394 -0.2974 -0.2307
 9497W        W25631  10.287   9.352  12.832 -0.3996 -0.3031  0.0125
 9498W        W25632   7.501  17.596   5.035  0.0205  0.1148  0.0993
 9499W        W25633   6.157  14.834  10.931  0.1457 -0.0129 -0.0739
 9500W        W25634  12.107   4.118   0.996  0.2028 -0.2327 -0.1647
 9501W        W25635  14.480  18.392   2.555 -0.1307 -0.0479  0.0601
 9502W        W25636  18.066   2.140   2.464 -0.2892  0.0210  0.0464
 9503W        W25637  18.423  13.783   2.145 -0.1831 -0.0458  0.3283
 9504W        W25638   3.951  13.571   1.801 -0.0836  0.0247  0.4879
 9505W        W25639  13.893   7.661  12.485 -0.0391  0.1051 -0.0676
 9506W        W25640  17.768   0.341  13.246  0.0388 -0.0405  0.1633
 9507W        W25641   0.054   8.199   3.573 -0.1394  0.3321 -0.1255
 9508W        W25642  15.841   0.983   1.346  0.3828  0.1740 -0.3711
 9509W        W25643   9.579   4.086   3.703  0.1241 -0.3544 -0.0102
 9510W        W25644   0.953   9.443   3.790 -0.1321 -0.1731  0.1389
 9511W        W25645  16.247   0.882   2.321  0.0766 -0.3084 -0.2240
 9512W        W25646  14.761   0.307  13.268 -0.0198 -0.0739 -0.1593
 9513W        W25647   9.443   9.686  14.274  0.0052  0.1233  0.0749
 9514W        W25648   9.857   4.971  12.185 -0.1612 -0.4240  0.3112
 9515W        W25649  15.019   7.661  10.300  0.0078 -0.2244  0.0430
 9516W        W25650   1.377   8.891   1.779  0.0911 -0.2661 -0.0658
 9517W        W25651  14.871  14.460   1.353  0.1819 -0.0319 -0.0506
 9518W        W25652   0.816   7.075   0.879 -0.0083 -0.0356  0.0237
 9519W        W25653  13.201  19.229  14.358  0.1154  0.1467 -0.3697
 9520W        W25654  10.530  13.569  11.601  0.2438 -0.0414  0.3577
 9521W        W25655   3.680   3.432  10.968 -0.4491 -0.2042 -0.0703
 9522W        W25656  16.388   1.357  12.208  0.2481  0.2229 -0.1347
 9523W        W25657  12.705   0.119   1.698 -0.0517  0.0771 -0.2540
 9524W        W25658  15.178   9.293   1.311 -0.1860  0.0594 -0.0122
 9525W        W25659   4.193   9.242   1.929  0.2026 -0.2129  0.1731
 9526W        W25660   3.737   8.951   4.416  0.0493  0.3766 -0.1065
 9527W        W25661   5.000  18.926   0.918  0.3610 -0.1600  0.1133
 9528W        W25662  11.116  18.572   0.113  0.4207 -0.1713  0.3228
 9529W        W25663  11.869   0.137   2.393  0.0696 -0.0400 -0.1335
 9530W        W25664  16.617   0.789   4.626 -0.0862 -0.2717  0.3096
 9531W        W25665   3.938   7.280   3.459  0.2688 -0.0789 -0.0841
 9532W        W25666   8.032  13.741   1.501 -0.1265  0.1558  0.1535
 9533W        W25667  14.429  18.406  12.329 -0.1539  0.0385  0.0211
 9534W        W25668   5.635   4.086  11.242  0.0425  0.1206 -0.0175
 9535W        W25669   1.732   8.937  11.811 -0.1423  0.2330  0.0491
 9536W        W25670  12.088   9.872  14.704 -0.2471  0.5237 -0.0570
 9537W        W25671  15.390  17.982  10.350 -0.0950  0.1714 -0.2658
 9538W        W25672   3.580   8.350  10.388  0.1853 -0.0773  0.1066
 9539W        W25673  12.976   9.774  13.015 -0.1808  0.3776  0.1870
 9540W        W25674  12.075  16.370   5.238  0.1100  0.1108  0.2244
 9541W        W25675   1.600   5.884   3.624 -0.2055  0.2564  0.0270
 9542W        W25676   6.496  18.161   9.910 -0.2392 -0.0214 -0.3861
 9543W        W25677  10.249  14.933  12.098  0.0924 -0.0286  0.2611
 9544W        W25678   3.979  12.742  13.106 -0.1614  0.0552  0.1745
 9545W        W25679  17.480   8.970  11.864 -0.1326 -0.0481 -0.1753
 9546W        W25680  17.928  11.947   0.758 -0.0328 -0.2386  0.0095
 9547W        W25681   4.459   0.779   1.278  0.0060 -0.2468 -0.1857
 9548W        W25682   4.531  16.441  10.309 -0.5388  0.0663  0.0047
 9549W        W25683  11.539   7.122   0.123  0.0719  0.0535  0.0119
 9550W        W25684  17.666   8.410   9.884  0.1956  0.3926 -0.2253
 9551W        W25685   6.142   5.772  11.482  0.2797 -0.0988 -0.2952
 9552W        W25686  15.704   0.160   4.010 -0.0313  0.1237  0.1745
 9553W        W25687  13.048   5.007   4.828 -0.1080  0.0529  0.0666
 9554W        W25688  17.228  16.668  11.288  0.0302  0.3218 -0.1571
 9555W        W25689   8.757  15.493  13.145 -0.1156  0.3343  0.2381
 9556W        W25690  10.253  10.343  12.530 -0.0155 -0.3130 -0.2462
 9557W        W25691   9.778  16.692  11.121 -0.2475  0.2269  0.2760
 9558W        W25692   3.062   2.889   4.351  0.1712 -0.1233 -0.1315
 9559W        W25693  18.113  15.705  14.041 -0.1375  0.3644  0.0097
 9560W        W25694   7.581   3.523  12.768 -0.1267 -0.1948 -0.3416
 9561W        W25695   9.576   0.905  12.618  0.2154 -0.1635 -0.1129
 9562W        W25696  12.179   8.278   0.789  0.0474 -0.3115  0.0581
 9563W        W25697   9.881   1.152   4.882 -0.2217 -0.3465 -0.3885
 9564W        W25698   8.645  15.152  13.760  0.0163 -0.0406  0.2079
 9565W        W25699   0.902  14.027   4.365  0.0163 -0.0026 -0.0413
 9566W        W25700   7.422   2.517  11.523  0.0301 -0.2445  0.2208
 9567W        W25701   3.902   2.806  10.382 -0.0083  0.1401  0.3132
 9568W        W25702  13.878   0.207   0.106 -0.0667 -0.0327  0.0946
 9569W        W25703  14.987   5.656  11.508  0.2141  0.0088  0.1598
 9570W        W25704   9.645  18.581   4.580 -0.1987 -0.0921  0.0941
 9571W        W25705  10.724  17.960   2.190 -0.1250 -0.0350 -0.0071
 9572W        W25706  16.304   7.334  14.621 -0.0307  0.0366 -0.1968
 9573W        W25707   4.284  13.031   5.840 -0.1197  0.3285 -0.1122
 9574W        W25708   7.519  15.784   0.274 -0.0389 -0.0350  0.3591
 9575W        W25709   0.218  12.684  10.855 -0.0633 -0.1145 -0.2865
 9576W        W25710   6.032   3.626   4.996  0.0129  0.1151 -0.0174
 9577W        W25711  15.872  12.566   4.719 -0.1166  0.2080  0.0898
 9578W        W25712   3.651  14.230   0.071 -0.2148 -0.1747  0.1085
 9579W        W25713  17.772   4.688   0.147 -0.0149 -0.1939  0.2231
 9580W        W25714   5.952  16.387  10.347  0.2947  0.0732  0.2544
 9581W        W25715  14.862  13.173  12.685  0.0624 -0.1267  0.0252
 9582W        W25716  10.234   8.223  10.857  0.1451 -0.1471  0.0803
 9583W        W25717   8.898  16.321  13.084 -0.2356  0.0313 -0.0674
 9584W        W25718   9.315  13.976  11.146  0.1377 -0.2843 -0.0366
 9585W        W25719   8.721   8.603   0.425  0.1339 -0.2211 -0.0995
 9586W        W25720   9.183   3.865   2.834 -0.1237 -0.4073  0.0495
 9587W        W25721   5.622  16.546   2.626  0.0065 -0.1241 -0.0272
 9588W        W25722  17.119  16.211   0.139  0.0607 -0.0309 -0.0449
 9589W        W25723   5.964  18.715  11.100  0.4198 -0.0511 -0.1257
 9590W        W25724   5.067  10.625  13.987 -0.1972  0.0853 -0.5203
 9591W        W25725  18.826   5.676   3.094 -0.1147  0.0379 -0.4805
 9592W        W25726  11.816  15.783   2.869  0.2740  0.0356 -0.0517
 9593W        W25727  13.340  15.039  14.348 -0.1219 -0.0393 -0.0308
 9594W        W25728   6.091  12.745   0.998  0.0266 -0.0183  0.2491
 9595W        W25729   3.703  17.588  10.830  0.2174  0.2597 -0.0193
 9596W        W25730  12.327  15.087   5.472 -0.2149  0.0322 -0.0117
 9597W        W25731  15.488   0.323  10.382  0.1192 -0.1182  0.0717
 9598W        W25732  10.193  18.980  13.868 -0.0910  0.1106  0.0554
 9599W        W25733   3.945   9.542   4.373 -0.0493 -0.0263 -0.0810
 9600W        W25734  11.560   8.365  13.084  0.1415  0.0356  0.1553
 9601W        W25735   5.554  18.386  11.156 -0.0932  0.0317  0.4309
 9602W        W25736  18.962   8.851   4.675  0.1046 -0.1894  0.1182
 9603W        W25737   6.559   4.795   5.440 -0.2164 -0.0553 -0.0127
 9604W        W25738  11.434  18.569  13.420 -0.0667 -0.1889 -0.0021
 9605W        W25739  11.843   8.717  10.441 -0.0674  0.1175 -0.1803
 9606W        W25740  16.014  18.086   3.159  0.0996  0.1778 -0.2993
 9607W        W25741  11.016  15.799   1.325  0.1148  0.3707 -0.3051
 9608W        W25742  16.689  17.930   3.168 -0.0006  0.1411  0.1860
 9609W        W25743   3.964  15.683   4.155  0.0259  0.0457  0.0186
 9610W        W25744  12.725   8.715  14.711 -0.0370  0.0094 -0.2381
 9611W        W25745   6.355   8.877   3.130  0.0035  0.1049  0.0030
 9612W        W25746   6.323   2.226   1.614  0.2005  0.2297 -0.2020
 9613W        W25747  16.886  17.853   2.249 -0.0001  0.1570  0.0637
 9614W        W25748  16.599   3.569   1.687 -0.0757  0.1350  0.0574
 9615W        W25749   9.260   7.796   5.442  0.1505  0.1367 -0.1141
 9616W        W25750   8.912  17.022  11.970  0.0086 -0.2188  0.0716
 9617W        W25751   8.936   7.455   0.883  0.1766 -0.1840 -0.0049
 9618W        W25752   8.642   7.120   0.603 -0.1035 -0.2881 -0.2859
 9619W        W25753  16.274  17.633   3.153 -0.0639 -0.0488 -0.1436
 9620W        W25754   5.588   6.435  10.308  0.0795 -0.0502 -0.0316
 9621W        W25755   2.340  12.485  11.372 -0.0178 -0.0690  0.1540
 9622W        W25756  14.602  18.698   3.874 -0.2006 -0.1297  0.5715
 9623W        W25757   7.834   2.794   4.393 -0.1088  0.1770 -0.0326
 9624W        W25758   8.402   5.420   5.350  0.0722  0.0703  0.1421
 9625W        W25759   2.313   7.466   0.302  0.0015 -0.2569 -0.1459
 9626W        W25760  14.999  13.054  11.443 -0.0790 -0.1772  0.1990
 9627W        W25761  10.182  11.070  14.691  0.0837  0.0538  0.4756
 9628W        W25762  11.883  16.467  14.161  0.0983  0.0430 -0.2339
 9629W        W25763  15.790   6.224   1.195 -0.1090  0.3014  0.0702
 9630W        W25764   5.650   1.508  10.595  0.0017 -0.0759 -0.1598
 9631W        W25765   7.334   9.575  14.626 -0.0681  0.0369 -0.2143
 9632W        W25766   0.922   7.076   5.656  0.1289  0.1155  0.1118
 9633W        W25767  18.254  15.412  14.514 -0.1412 -0.1049  0.0194
 9634W        W25768  13.883  12.569   1.533 -0.0277 -0.2220 -0.2903
 9635W        W25769   3.849  13.190   0.961  0.0050  0.1652 -0.2199
 9636W        W25770   6.639   3.122  13.016  0.0173 -0.1257 -0.3556
 9637W        W25771   7.825  18.839   5.006  0.1675 -0.1934 -0.5776
 9638W        W25772   1.491  10.238  14.262  0.0248 -0.0231 -0.1515
 9639W        W25773   0.711   8.281   3.677 -0.0939 -0.1658  0.0353
 9640W        W25774   2.212   9.366  12.224 -0.0462  0.0756 -0.0145
 9641W        W25775  15.396   7.096  14.569 -0.2909  0.5109 -0.2637
 9642W        W25776  17.717  15.443   1.313 -0.3126 -0.4525 -0.1946
 9643W        W25777  13.256   8.397   1.696  0.3965  0.3893 -0.3521
 9644W        W25778  17.488  14.814  12.833 -0.2484  0.2813  0.0548
 9645W        W25779  18.067  16.135   2.468  0.1710  0.3616 -0.0608
 9646W        W25780  13.387  10.606   0.697  0.2666 -0.1670  0.0334
 9647W        W25781   7.557   1.145   4.770 -0.0769 -0.3045 -0.1054
 9648W        W25782  12.866  13.226   2.307 -0.2468 -0.0595 -0.2325
 9649W        W25783  14.158  12.512   4.900 -0.1546 -0.1285  0.1934
 9650W        W25784  11.482  16.769  11.158  0.1982  0.2247  0.3799
 9651W        W25785  16.176  13.831   3.614  0.4878  0.1246  0.0631
 9652W        W25786  17.584  18.704  10.243 -0.0340 -0.1836  0.0697
 9653W        W25787  16.581   7.615   1.494 -0.1210 -0.0635  0.1669
 9654W        W25788   1.171   0.913  14.750 -0.1317  0.0912 -0.1911
 9655W        W25789   9.437  10.210   1.134  0.1134 -0.1940  0.0282
 9656W        W25790   7.545   4.999   3.910  0.2828  0.3141 -0.0397
 9657W        W25791  10.448  17.543  12.347 -0.0747 -0.3298  0.1297
 9658W        W25792   5.561   5.667   3.433 -0.1613 -0.1453 -0.0095
 9659W        W25793   1.599   6.241  13.136  0.3073 -0.0846  0.0005
 9660W        W25794  13.809  12.656   2.420  0.0311 -0.0068  0.0302
 9661W        W25795   5.152   5.969   5.432 -0.1871 -0.0189 -0.2488
 9662W        W25796  15.980  12.662   2.589 -0.2670 -0.1111  0.0521
 9663W        W25797  17.095   4.301   3.390 -0.1903 -0.2032 -0.0478
 9664W        W25798  12.766  17.203  10.525  0.1228 -0.0843 -0.0052
 9665W        W25799  11.523  19.273   3.425  0.0054 -0.1891 -0.0509
 9666W        W25800   1.150  18.518  13.399  0.1203 -0.2876  0.1442
 9667W        W25801   1.222   5.941  13.540  0.2127  0.3560 -0.0379
 9668W        W25802   2.973   5.292  13.603 -0.1219  0.1541 -0.1320
 9669W        W25803  15.759   0.741   0.361 -0.4951 -0.2314  0.3308
 9670W        W25804   9.749  16.144  13.485 -0.1474  0.1854 -0.0639
 9671W        W25805  13.875   4.875   3.368 -0.0796  0.0737 -0.1453
 9672W        W25806   7.280  13.805   9.383 -0.1303  0.0761  0.2356
 9673W        W25807   7.098  18.954  14.413  0.2263 -0.0858  0.3133
 9674W        W25808  15.361   7.096  10.255  0.0279 -0.0084  0.1012
 9675W        W25809  17.111  17.985  11.006  0.0571 -0.2233 -0.0465
 9676W        W25810   0.058  14.124  11.747 -0.1497 -0.1059 -0.0808
 9677W        W25811  16.864  14.421   1.425 -0.2067 -0.1781 -0.1560
 9678W        W25812  14.827   0.783  11.774 -0.0931 -0.0244  0.0247
 9679W        W25813  18.159  16.364  14.287 -0.0841 -0.2973  0.0434
 9680W        W25814   9.761   3.746  14.443  0.2194  0.3005  0.0003
 9681W        W25815  13.538   1.060  15.009  0.1652  0.2018  0.0219
 9682W        W25816  10.386  16.567  14.872  0.1805 -0.1463  0.2051
 9683W        W25817  12.157   6.961   3.641 -0.0354 -0.0496 -0.1031
 9684W        W25818   5.599   5.410  13.989  0.0245 -0.1739 -0.2118
 9685W        W25819  17.749   8.736   2.158  0.2311 -0.1636 -0.4036
 9686W        W25820  18.676  12.653  14.860 -0.2024 -0.0485 -0.3775
 9687W        W25821   2.973   8.334   1.264 -0.0900  0.0660  0.0999
 9688W        W25822  15.477   4.859   4.422  0.0515  0.2478  0.0199
 9689W        W25823  13.558  14.455  12.890  0.0851 -0.0962  0.1217
 9690W        W25824  10.411  10.840   4.140  0.3020 -0.1090  0.1581
 9691W        W25825  19.208  15.912  10.760 -0.1048  0.2535 -0.2213
 9692W        W25826   8.772   5.288  14.247  0.3978  0.1507  0.4595
 9693W        W25827   0.904  11.685  10.535 -0.3553 -0.1310 -0.4535
 9694W        W25828   6.322  12.198   3.539 -0.0782 -0.0922  0.3595
 9695W        W25829  10.704   0.456   4.788  0.1869  0.1672  0.2084
 9696W        W25830   9.772   3.244   2.815 -0.1549  0.0918 -0.2823
 9697W        W25831   2.921  12.740  12.871  0.0384 -0.0998  0.1220
 9698W        W25832   7.167  10.154   0.099 -0.0535 -0.0605  0.2028
 9699W        W25833   8.336   8.151   3.084  0.0419 -0.0671 -0.0987
 9700W        W25834   4.709   1.370  11.606 -0.3480 -0.1501  0.0934
 9701W        W25835   5.399   3.978  14.851  0.1953 -0.0790 -0.1411
 9702W        W25836   5.129  14.043  11.469 -0.0672 -0.2052 -0.1576
 9703W        W25837   9.824  17.178  13.198 -0.1235 -0.2561 -0.4028
 9704W        W25838  13.130  12.187  14.688  0.2488 -0.0591 -0.2853
 9705W        W25839   6.471   9.360   3.033  0.0944  0.2616  0.1735
 9706W        W25840   7.710   8.375   5.288  0.1505 -0.2258 -0.1417
 9707W        W25841   8.147   5.099  11.641 -0.1228  0.0604  0.3187
 9708W        W25842   5.171  18.294   0.006  0.1183 -0.2095 -0.0858
 9709W        W25843  13.267   9.143   1.940 -0.0289 -0.0566  0.1045
 9710W        W25844  11.180   9.851   0.084 -0.0263 -0.0634  0.0638
 9711W        W25845   3.185  14.759  10.998  0.1509 -0.1430 -0.0703
 9712W        W25846   6.100   0.291  10.948 -0.0219 -0.0417 -0.0959
 9713W        W25847   4.175  17.412  10.658  0.1642  0.2946 -0.1554
 9714W        W25848  13.771  19.130  13.482  0.0056  0.2662 -0.3328
 9715W        W25849  18.633   8.832  14.085  0.0808 -0.0498  0.4750
 9716W        W25850   3.227   6.924   0.362  0.0772  0.2779  0.0180
 9717W        W25851   4.327  11.014   3.348 -0.2961  0.0790  0.0679
 9718W        W25852  17.797   5.677  11.536 -0.1119  0.0159  0.1248
 9719W        W25853   4.933   9.121  10.502  0.1523  0.0090  0.2265
 9720W        W25854  11.957  18.137   1.386 -0.1865  0.2399  0.1268
 9721W        W25855  14.504   0.808  14.245 -0.3913  0.4784  0.1858
 9722W        W25856   9.693   7.961  13.639  0.0968 -0.0546 -0.1496
 9723W        W25857   8.410   8.610   1.886 -0.3374  0.0348 -0.3376
 9724W        W25858  10.980   6.495   4.503 -0.0413 -0.2011  0.1451
 9725W        W25859  11.467   0.589   4.189 -0.1107  0.1029 -0.0890
 9726W        W25860   7.322   5.250  14.114 -0.1661 -0.2136  0.0287
 9727W        W25861   7.862   8.598   1.389  0.0866 -0.0397  0.0450
 9728W        W25862  13.459   8.062  14.791 -0.0862 -0.0853 -0.0282
 9729W        W25863  18.361   0.999   4.027  0.1073  0.0943 -0.1155
 9730W        W25864  16.498   6.637  11.279  0.3733 -0.1818  0.1936
 9731W        W25865  17.276  18.058   3.806 -0.0221  0.2117  0.0950
 9732W        W25866   4.956   0.875   2.169  0.2450  0.3452  0.1030
 9733W        W25867  18.799   0.353  11.279 -0.0615  0.0877  0.0020
 9734W        W25868  17.283   3.777  13.267 -0.1356  0.1145  0.1734
 9735W        W25869  16.333   3.976  11.553 -0.0248 -0.1059 -0.2247
 9736W        W25870   3.480   8.892   0.636  0.0606  0.3484 -0.0667
 9737W        W25871  10.862   5.831  14.662 -0.0293  0.0054  0.0899
 9738W        W25872   4.143   9.826  10.833 -0.2922  0.2280  0.0050
 9739W        W25873  16.345   7.391   3.848 -0.1928  0.0036 -0.0293
 9740W        W25874  17.169  14.724   4.107  0.1010 -0.2810  0.0180
 9741W        W25875  11.307   8.453  11.447 -0.1699 -0.0604  0.0929
 9742W        W25876   2.342  19.138   1.802  0.3892 -0.1019 -0.1238
 9743W        W25877   7.927  10.073   4.403  0.0127 -0.0418 -0.1767
 9744W        W25878  11.232  13.718   5.863  0.3300 -0.0158  0.0389
 9745W        W25879   2.209  17.634   1.892  0.3241  0.2142  0.0868
 9746W        W25880  16.444  12.254  13.861 -0.2562 -0.2433  0.3653
 9747W        W25881   4.123   9.623  14.272  0.1655  0.0285 -0.0609
 9748W        W25882   2.687   7.985   1.681 -0.1318  0.0663  0.0115
 9749W        W25883  11.711  16.932   3.696 -0.2855 -0.2256 -0.0628
 9750W        W25884  11.238   9.683  12.433  0.0228  0.0996  0.1113
 9751W        W25885  11.368  12.861   3.669  0.1129 -0.3219 -0.1136
 9752W        W25886   7.035   5.366  15.001 -0.3402  0.0378 -0.3725
 9753W        W25887  17.658  10.274  12.211  0.0709  0.0668  0.1814
 9754W        W25888   0.930   5.725   2.099  0.0893  0.0154 -0.3382
 9755W        W25889   9.562   4.192  13.348  0.0025  0.3023 -0.2339
 9756W        W25890  16.084   8.294   4.261 -0.1748 -0.0185 -0.0335
 9757W        W25891  14.339  13.079  11.236 -0.0432 -0.0141 -0.3276
 9758W        W25892   8.483   4.165  13.671 -0.0111  0.2204 -0.1446
 9759W        W25893  16.323  13.292   2.285  0.0008 -0.1817 -0.1495
 9760W        W25894   4.036   4.924  10.988  0.1156 -0.1152 -0.0904
 9761W        W25895   1.487  14.921   0.897  0.1723 -0.0137 -0.1082
 9762W        W25896  18.380   9.384   3.340  0.0448  0.4830  0.0009
 9763W        W25897  14.762  10.710   4.779 -0.1934  0.2778  0.4782
 9764W        W25898  14.289   5.510   4.062 -0.1032  0.1238 -0.1670
 9765W        W25899  15.042   0.222   1.385 -0.0138  0.0578 -0.0513
 9766W        W25900  17.838  12.521   3.325  0.3043  0.1929 -0.3110
 9767W        W25901   7.302  12.927  10.375 -0.0724 -0.0119 -0.1425
 9768W        W25902   0.822   2.685  13.229  0.0511  0.1738  0.0275
 9769W        W25903  17.462   5.682  11.205 -0.2288 -0.1551  0.0191
 9770W        W25904   8.596  13.087  14.134  0.1659 -0.1333  0.0724
 9771W        W25905   7.788  17.134   4.733 -0.1465  0.0438 -0.0826
 9772W        W25906   8.829   5.666  10.718  0.0139 -0.6041 -0.3936
 9773W        W25907  12.449  12.866  10.747  0.1750 -0.0009 -0.2903
 9774W        W25908   6.827   2.533   3.731 -0.0135 -0.1418  0.0509
 9775W        W25909   2.060  14.881  13.386  0.3339  0.1462  0.2633
 9776W        W25910  11.363   8.350   0.986 -0.1921  0.2048 -0.1155
 9777W        W25911   7.775   9.664  14.894 -0.0174 -0.1120 -0.2107
 9778W        W25912  18.387  19.309   4.484  0.1257  0.0994  0.1905
 9779W        W25913  14.838  14.134  14.043 -0.1168 -0.2843 -0.0328
 9780W        W25914   3.305   4.967   2.677  0.2320  0.0653  0.0001
 9781W        W25915  11.128   7.992   3.089  0.0946 -0.2103  0.1371
 9782W        W25916  13.230  15.758  10.599 -0.0828 -0.1092  0.2503
 9783W        W25917  18.240  17.826  13.164  0.2356  0.0943 -0.2023
 9784W        W25918   5.347   7.944  13.404  0.3077 -0.0648  0.1108
 9785W        W25919   6.176  15.726   1.798  0.1439  0.1244  0.1483
 9786W        W25920  14.305  18.280  10.857  0.2337  0.3470  0.3271
 9787W        W25921   2.761   7.262   0.488 -0.0548  0.4556 -0.1448
 9788W        W25922  17.885  12.841   0.405 -0.1103 -0.1137  0.2502
 9789W        W25923  14.357  15.591   2.066  0.0143 -0.3010 -0.0292
 9790W        W25924  11.305   3.754   1.507 -0.0292 -0.1500  0.4347
 9791W        W25925   9.155  18.769  11.939  0.1376  0.1626 -0.2253
 9792W        W25926  19.335  11.804   1.251 -0.0556 -0.3606  0.0198
 9793W        W25927   8.836   8.101   0.579  0.0824 -0.0928  0.1270
 9794W        W25928   3.099   0.898   3.325  0.0182 -0.1115  0.0398
 9795W        W25929  11.542   2.997  12.297  0.3486  0.0063 -0.4763
 9796W        W25930   3.805  12.405  12.201  0.0347 -0.0664 -0.0079
 9797W        W25931   5.926  17.489   2.228 -0.3089  0.1445 -0.0749
 9798W        W25932   5.451  15.138  12.313  0.0265  0.0091 -0.1988
 9799W        W25933  17.880   0.328   3.900 -0.0615 -0.1773  0.1719
 9800W        W25934   1.017  10.315  14.994  0.0007 -0.1105  0.1209
 9801W        W25935  15.040  12.758   4.342 -0.3512 -0.0440 -0.1216
 9802W        W25936  10.533  11.350   2.091  0.2866  0.0751 -0.0164
 9803W        W25937   2.288  19.112   0.617 -0.3022  0.2292 -0.3121
 9804W        W25938   2.181  17.876   0.927  0.2923 -0.1960  0.1273
 9805W        W25939  17.234   5.491   4.985  0.1732  0.1559  0.0346
 9806W        W25940   1.729  16.998   3.031 -0.0503  0.2569  0.1541
 9807W        W25941  16.553  18.826  10.625 -0.0264 -0.1853 -0.0010
 9808W        W25942  16.875  10.044  12.208  0.2033  0.0129 -0.0199
 9809W        W25943   0.296   4.913  10.701 -0.1359 -0.2837 -0.0527
 9810W        W25944  19.238   5.459   5.227 -0.2016 -0.0927 -0.1756
 9811W        W25945   8.979  10.756  11.307  0.0056  0.0937  0.2841
 9812W        W25946  16.105  10.859   1.461 -0.3184  0.2843 -0.1568
 9813W        W25947  12.365   9.768  14.304  0.0919 -0.2979 -0.0165
 9814W        W25948   5.274  14.711  12.044 -0.0430 -0.0578  0.0599
 9815W        W25949  19.127   6.162  10.976 -0.1641 -0.0427 -0.0703
 9816W        W25950  14.887  10.086  14.774 -0.1775  0.2977  0.1522
 9817W        W25951  10.914  12.717   0.639 -0.0874  0.1477 -0.2833
 9818W        W25952  15.968  17.008   2.005 -0.0292  0.1822  0.2950
 9819W        W25953   0.710   4.024   2.388  0.2926 -0.2446 -0.1901
 9820W        W25954  12.168   7.455   2.338  0.2470  0.0521 -0.2217
 9821W        W25955  14.696   0.931  13.632  0.2363  0.1167 -0.1340
 9822W        W25956  16.019   0.771  13.501  0.1087  0.2276  0.1114
 9823W        W25957   8.404  16.833  12.086  0.3570  0.0043 -0.2469
 9824W        W25958   3.684   0.240  14.079 -0.1158  0.1150  0.0307
 9825W        W25959  12.808   6.655   2.009  0.0358 -0.0043 -0.4521
 9826W        W25960   1.390   1.368   0.745 -0.0401  0.1180 -0.5313
 9827W        W25961  11.327   4.441   1.976  0.1424  0.0379  0.0268
 9828W        W25962   4.997   4.615  11.390 -0.1988  0.2763 -0.0368
 9829W        W25963   2.874  15.459   1.223  0.4585  0.0988  0.0319
 9830W        W25964   6.964  15.127  13.080 -0.1166 -0.2547 -0.2460
 9831W        W25965   7.121   9.709  10.803  0.0855  0.1835  0.2114
 9832W        W25966  12.993   4.092  13.721  0.1706  0.2706 -0.0673
 9833W        W25967  19.012  13.759  10.871  0.1555  0.1869  0.2471
 9834W        W25968   6.424  12.034   2.706 -0.2725 -0.0462 -0.2868
 9835W        W25969  12.606  17.186   1.347 -0.0746  0.1401 -0.3385
 9836W        W25970  17.371  11.308   4.374  0.0017  0.1133  0.0335
 9837W        W25971   4.936   3.977  11.333 -0.2523  0.1034 -0.0086
 9838W        W25972  10.705   4.617  12.063 -0.0904  0.3974  0.1964
 9839W        W25973  15.890  10.948   2.568  0.1953 -0.0958  0.1762
 9840W        W25974  17.755   7.443  11.417  0.0319 -0.1949 -0.2226
 9841W        W25975   9.925  14.067   1.574  0.1115  0.2584  0.1689
 9842W        W25976  11.906  13.430   1.845  0.2901 -0.2216 -0.1332
 9843W        W25977  10.077  18.335   4.552  0.1842 -0.1573  0.0259
 9844W        W25978  18.398  10.293   1.339 -0.0517 -0.0242  0.0346
 9845W        W25979   6.618   8.106  14.082 -0.1546 -0.1745 -0.0086
 9846W        W25980   6.887  17.291  13.940 -0.4588 -0.0668 -0.0616
 9847W        W25981  10.880   2.799  11.408  0.0283 -0.0546  0.0438
 9848W        W25982   2.647  13.919  13.589  0.0037 -0.0742 -0.1117
 9849W        W25983  10.488  12.436   4.504 -0.2640  0.1702  0.2480
 9850W        W25984   4.270   4.184  13.132  0.0694  0.1129  0.1403
 9851W        W25985   0.318   0.103   2.317  0.0967  0.1460 -0.0357
 9852W        W25986   5.220   2.249   1.418  0.0275 -0.0049  0.0231
 9853W        W25987   1.070   4.212  11.738  0.0375 -0.2320  0.0986
 9854W        W25988   2.325  18.844   1.207  0.1170  0.1349  0.3267
 9855W        W25989   7.284  16.295  14.619 -0.1180  0.0329  0.0977
 9856W        W25990  14.299  14.825  11.486  0.3330 -0.1800  0.2324
 9857W        W25991  11.520  18.669  10.392 -0.0846  0.0887 -0.2590
 9858W        W25992  13.254   0.854   4.337 -0.3461 -0.0814  0.1866
 9859W        W25993   7.177   1.576  11.150  0.0298  0.0480  0.0088
 9860W        W25994  10.987  15.265  11.599  0.2245 -0.2378 -0.0552
 9861W        W25995   9.802  10.608  12.263 -0.1149  0.1957 -0.0277
 9862W        W25996   7.368   5.234   1.311 -0.1211 -0.1305  0.0242
 9863W        W25997  14.509   5.169   2.347  0.2194 -0.0253 -0.2204
 9864W        W25998   7.628  14.789   4.402  0.1661 -0.3101  0.2576
 9865W        W25999  15.918  11.448  12.163 -0.0031  0.0428 -0.0354
 9866W        W26000   7.776  17.174  14.326  0.1700 -0.1106 -0.0081
 9867W        W26001   1.283   7.050  12.538 -0.0030 -0.0259 -0.2038
 9868W        W26002   8.030  12.556   9.693 -0.2658  0.2726 -0.0420
 9869W        W26003   9.944   0.321  10.506 -0.1428  0.4387 -0.0431
 9870W        W26004   0.857   1.459  13.196  0.0613 -0.2505  0.1349
 9871W        W26005   9.015   7.322  13.605 -0.0911  0.1561 -0.2505
 9872W        W26006  17.415  12.225   5.915 -0.1714 -0.1651 -0.1634
 9873W        W26007  15.259  11.812   0.317  0.2107  0.0141  0.0602
 9874W        W26008  12.892   9.322  11.186 -0.2709 -0.0506 -0.1700
 9875W        W26009   2.829  11.922  13.382  0.1152  0.1979 -0.2164
 9876W        W26010   5.393   0.987   1.873  0.0415  0.1228 -0.3541
 9877W        W26011  10.119   1.151   0.036  0.1024 -0.4590 -0.2620
 9878W        W26012  16.847  15.163   9.079  0.2137  0.0123  0.0675
 9879W        W26013   6.701  16.562  12.930 -0.0751 -0.2500 -0.0397
 9880W        W26014   0.048  10.216  10.964 -0.2599 -0.2469 -0.0894
 9881W        W26015  14.267   1.911   4.354  0.0146  0.2048 -0.1955
 9882W        W26016  11.918   8.713  12.113  0.1448 -0.2717 -0.0808
 9883W        W26017   1.976  11.333  11.406  0.2498 -0.0295  0.1507
 9884W        W26018   3.691   4.490   9.957  0.2162 -0.0803  0.0448
 9885W        W26019   3.216   7.331  11.480  0.0547  0.0323 -0.0189
 9886W        W26020  17.699   3.586  14.333  0.1208  0.1095 -0.0607
 9887W        W26021   8.040   1.865  13.205 -0.0805 -0.0689  0.0237
 9888W        W26022   1.977   4.474   4.657 -0.2209 -0.1508 -0.3145
 9889W        W26023   1.550   1.440   3.086  0.0781 -0.2233  0.2896
 9890W        W26024  18.977   9.404   0.557 -0.2394  0.2846  0.1979
 9891W        W26025  14.607  12.936  13.191 -0.3070 -0.2793  0.2679
 9892W        W26026   2.346  17.814  10.372 -0.2285  0.3143  0.0175
 9893W        W26027  15.328   6.296  10.946 -0.3876  0.2371 -0.0056
 9894W        W26028   4.513   0.102  10.360  0.2105 -0.0370 -0.4327
 9895W        W26029  12.650  17.723  10.443  0.0374 -0.0111  0.1540
 9896W        W26030  11.780  17.155   2.795 -0.1346  0.0636  0.0889
 9897W        W26031   9.282   3.623  14.323  0.1502  0.1120  0.5155
 9898W        W26032   1.611  13.371   0.239  0.1758 -0.1470  0.1419
 9899W        W26033   9.017  11.879   1.279 -0.2727  0.0596 -0.4266
 9900W        W26034  16.853  10.081   4.636  0.2289 -0.1632 -0.1146
 9901W        W26035  17.668  14.034  14.649 -0.1718  0.3951 -0.3535
 9902W        W26036   8.099  12.563   2.023  0.0214  0.0939 -0.1836
 9903W        W26037   2.340  10.366   2.098  0.0119  0.0391 -0.1124
 9904W        W26038   2.003  11.042  14.011 -0.2171 -0.2950 -0.3256
 9905W        W26039  13.030   1.638   1.131 -0.0336  0.4264  0.3084
 9906W        W26040  13.460   7.369   4.021  0.1457  0.0594 -0.0524
 9907W        W26041   1.577   3.313   1.648 -0.2460 -0.0558  0.0530
 9908W        W26042   2.681  12.563   0.819 -0.2180 -0.0294  0.0609
 9909W        W26043   4.569  18.735   4.291 -0.3410  0.1144  0.0874
 9910W        W26044  11.379   7.861  10.034 -0.1201  0.0288  0.0224
 9911W        W26045   4.862  15.480   1.700  0.2083  0.2176  0.1069
 9912W        W26046   2.812  10.821   3.785  0.3558 -0.0119 -0.1689
 9913W        W26047  15.944   9.296  11.707 -0.1263 -0.1658 -0.0945
 9914W        W26048  15.897  19.002  14.933 -0.1223 -0.1668  0.0664
 9915W        W26049  10.349   4.744  14.785 -0.1559  0.1102 -0.0273
 9916W        W26050  11.912  12.425   4.371 -0.2997  0.0253  0.1210
 9917W        W26051   0.669  12.212  12.706 -0.0643 -0.1403  0.1179
 9918W        W26052  10.733  13.147  12.462  0.0190 -0.0341 -0.1565
 9919W        W26053  10.784  12.083  10.887  0.1598  0.1556 -0.0416
 9920W        W26054   5.734  12.797   3.362  0.1728 -0.1190  0.0535
 9921W        W26055   1.139   4.109   0.012 -0.2978  0.4217 -0.0029
 9922W        W26056   4.117   2.606   2.785 -0.1269 -0.1022  0.0507
 9923W        W26057  17.879  17.345   3.651 -0.1461  0.1387 -0.2235
 9924W        W26058   8.871   2.706   5.332 -0.0845  0.1813 -0.1721
 9925W        W26059  17.030  12.092   1.686  0.2945  0.1587  0.1466
 9926W        W26060  14.409   8.770   3.805 -0.2162  0.4293  0.1851
 9927W        W26061   1.560   2.807  12.634 -0.1575 -0.1058  0.1219
 9928W        W26062  18.431  11.436   2.834 -0.2406 -0.1061 -0.1297
 9929W        W26063  10.777  18.053   3.829 -0.0521 -0.2812  0.2315
 9930W        W26064   4.143  18.822   3.381 -0.2409  0.0748 -0.1508
 9931W        W26065   5.042  17.223  14.836 -0.0601  0.0336  0.2023
 9932W        W26066  12.541  18.293   4.708 -0.2128 -0.1155 -0.0610
 9933W        W26067  13.685  15.525   2.900  0.3159  0.1513 -0.0116
 9934W        W26068  14.413   6.882   2.446 -0.0277 -0.0786 -0.3808
 9935W        W26069   6.879  13.398  10.962 -0.0620 -0.2727 -0.0958
 9936W        W26070  11.594   4.191   1.074  0.1144 -0.1685 -0.2323
 9937W        W26071  17.292   5.107  14.633 -0.0564  0.1652  0.1189
 9938W        W26072  13.259   6.577  13.985  0.1652  0.3369 -0.2816
 9939W        W26073  19.159   0.195   0.223 -0.5587  0.0379 -0.1264
 9940W        W26074   5.081   6.060  13.162 -0.0539  0.0533  0.1092
 9941W        W26075  15.240   0.103  13.556 -0.0149 -0.0831  0.0188
 9942W        W26076  15.927   8.208  10.854  0.1574 -0.0069 -0.3881
 9943W        W26077  16.233  15.643  10.679 -0.0657  0.0455 -0.0790
 9944W        W26078   0.726   6.601  13.820 -0.2073 -0.1007  0.1631
 9945W        W26079   0.878  15.171  12.555 -0.0412 -0.1027  0.1003
 9946W        W26080  18.272  15.944  14.520 -0.3560 -0.0477  0.1049
 9947W        W26081   9.937   3.534  12.074  0.0344  0.1483  0.0294
 9948W        W26082  18.359  15.977  10.451 -0.0985 -0.1031 -0.2295
 9949W        W26083  15.188   7.314  13.165  0.0863  0.2116  0.1085
 9950W        W26084   3.546  17.029   0.511 -0.2478  0.0639 -0.2116
 9951W        W26085  13.593   5.011   4.079 -0.0719  0.1374  0.3956
 9952W        W26086  10.270  11.849  10.725 -0.1718 -0.0093 -0.3070
 9953W        W26087   4.219  13.847  11.126 -0.3687 -0.1303  0.1194
 9954W        W26088   6.916   1.050   4.099  0.1849  0.2061 -0.1148
 9955W        W26089  12.122  13.033   9.723  0.0491  0.0697  0.0848
 9956W        W26090  11.555   1.331  10.614 -0.2024 -0.0667 -0.1639
 9957W        W26091   7.952   6.698   1.649 -0.1623 -0.4392  0.0299
 9958W        W26092   5.901  15.552   3.596 -0.2288  0.1444  0.0154
 9959W        W26093   6.749   4.141   0.941  0.0703 -0.1568 -0.0027
 9960W        W26094   9.760  15.433   4.489  0.3008 -0.0564 -0.1303
 9961W        W26095  11.076  14.350  11.896  0.0187  0.0553  0.3396
 9962W        W26096  10.408   8.786  12.975  0.2090 -0.0721 -0.0814
 9963W        W26097   8.786   9.413   3.363  0.3266  0.1416 -0.1031
 9964W        W26098   9.739   4.962  13.825  0.0264  0.1875  0.1462
 9965W        W26099   7.844  13.275   4.804 -0.1778 -0.2044 -0.1697
 9966W        W26100  15.907  13.321  12.694  0.3297 -0.1149 -0.4242
 9967W        W26101  17.729  13.703  12.752 -0.0463  0.6121  0.0331
 9968W        W26102   7.660  16.895  13.342  0.1313  0.0892  0.0722
 9969W        W26103   4.957   9.872   0.343  0.2198 -0.4031 -0.1864
 9970W        W26104   3.546  11.919   1.622  0.0375  0.2672 -0.3613
 9971W        W26105   9.898   3.165  13.076 -0.0644 -0.0244 -0.0711
 9972W        W26106  15.144  17.237   4.709  0.1399 -0.1240  0.1291
 9973W        W26107  10.694  18.843   1.730  0.1831  0.3145 -0.0170
 9974W        W26108   9.142   4.308   3.430  0.0285  0.0365  0.0231
 9975W        W26109  16.100   5.055   2.727 -0.1858 -0.1616 -0.0044
 9976W        W26110   4.270   7.395  14.329  0.1378 -0.0318  0.0447
 9977W        W26111  17.438   8.463  13.506  0.0994 -0.2399  0.0820
 9978W        W26112  13.680   1.850   3.102  0.1334  0.1977 -0.1479
 9979W        W26113   1.567  15.174  11.987 -0.3917  0.2106 -0.1446
 9980W        W26114   4.073  13.999  11.593 -0.0302  0.3138  0.0302
 9981W        W26115  18.844   0.973  13.113  0.0432 -0.0361  0.3013
 9982W        W26116   4.745   7.155   3.956  0.0782 -0.1937 -0.0596
 9983W        W26117   8.476  11.283   0.160 -0.0675  0.0941 -0.0370
 9984W        W26118  10.975  16.796   0.337  0.0854  0.0942 -0.0578
 9985W        W26119   6.866   1.325  13.439  0.1091  0.3624  0.1033
 9986W        W26120   5.990  12.693   0.442 -0.1632  0.0880 -0.1689
 9987W        W26121  11.423   7.273  14.669 -0.2028 -0.0148  0.2655
 9988W        W26122   2.212   2.858  14.360 -0.1818  0.0892  0.0295
 9989W        W26123  19.034  16.895   0.299 -0.0772 -0.0985  0.0993
 9990W        W26124  15.029   0.799  12.573  0.1516 -0.0616  0.5180
 9991W        W26125  17.587   8.426   0.705 -0.0386 -0.0615 -0.0985
 9992W        W26126   0.426   0.461   3.361  0.2010  0.3919  0.0172
 9993W        W26127  11.420   5.341   4.079  0.0681 -0.0027 -0.2750
 9994W        W26128   5.000  13.246   1.901  0.1258  0.2510  0.3431
 9995W        W26129  13.504  16.599  14.531 -0.0648 -0.3232  0.0295
 9996W        W26130   5.173  18.014  11.155 -0.0631  0.0076 -0.2284
 9997W        W26131  16.227   1.228   0.615 -0.1276 -0.1375 -0.2205
 9998W        W26132   0.679   7.119   1.380  0.1283 -0.3806  0.3989
 9999W        W26133  15.770   2.516   0.016  0.0591 -0.0500  0.0107
10000W        W26134  15.211  19.173   4.078  0.5283 -0.1779 -0.0793
10001W        W26135   3.909   1.741   1.877  0.0293 -0.4307 -0.0141
10002W        W26136  13.676   9.546   2.267  0.2350  0.1522  0.1148
10003W        W26137   9.394   7.533  12.512  0.1470  0.0355  0.2251
10004W        W26138   8.655   5.527  13.291  0.0162 -0.1581 -0.2285
10005W        W26139   9.957   2.642  12.913  0.1140 -0.0246  0.0498
10006W        W26140  12.215   7.492   2.884 -0.2133 -0.0168 -0.1027
10007W        W26141  13.687   6.376   3.234  0.3322  0.1976  0.2025
10008W        W26142  15.816  13.018   4.459 -0.2015 -0.1375 -0.3370
10009W        W26143   4.839   3.161   1.090 -0.1670 -0.3422  0.1163
10010W        W26144   0.929  12.421   4.442 -0.1944  0.1046 -0.0249
10011W        W26145  18.033  12.384   1.749  0.0200 -0.0784 -0.0730
10012W        W26146   0.533  11.155   2.286  0.0537  0.5231  0.0331
10013W        W26147   4.497   5.046   4.210 -0.3263  0.1070  0.1591
10014W        W26148   4.102   6.843  12.723  0.0621 -0.1400 -0.0844
10015W        W26149  17.698  12.183  14.188 -0.0262 -0.2669  0.1009
10016W        W26150   4.571  16.218   3.710 -0.0058  0.2581  0.0295
10017W        W26151   7.442   6.811   3.408  0.1441 -0.0014  0.2393
10018W        W26152   3.448  18.558   0.106  0.0037  0.1400  0.2511
10019W        W26153   1.080  14.563   9.396 -0.1432  0.0196  0.0350
10020W        W26154  15.800  16.477  11.851 -0.2480  0.0103  0.0821
10021W        W26155   6.009   0.834  11.726  0.2625  0.3227  0.0944
10022W        W26156   7.023  12.003  10.848 -0.1541  0.0388  0.1584
10023W        W26157  13.618  18.125   0.428  0.3045  0.1600 -0.0186
10024W        W26158  10.476  14.767   5.145  0.2181 -0.1636  0.1453
10025W        W26159   8.721  16.954   1.415 -0.1913 -0.1054  0.3468
10026W        W26160  12.763  14.518   4.002  0.1238  0.2270 -0.0160
10027W        W26161   7.970  12.582  12.877  0.0085 -0.2222 -0.0782
10028W        W26162   1.675  11.875  14.732 -0.3805 -0.0739  0.1718
10029W        W26163   0.051  18.253  13.718  0.0686 -0.0557 -0.0363
10030W        W26164  10.426   0.911   4.957  0.1070  0.0749  0.0202
10031W        W26165   8.071   6.350   3.294 -0.0957  0.0233 -0.2127
10032W        W26166  16.723   0.927   2.359 -0.0017  0.1521 -0.1953
10033W        W26167  10.463   4.775   5.324 -0.1585 -0.0611 -0.2395
10034W        W26168   3.432   7.253   2.662 -0.0863  0.0713  0.0934
10035W        W26169  11.499  15.866  11.373  0.1316 -0.0709  0.2517
10036W        W26170   5.423  12.234  12.478 -0.0590  0.2454  0.0340
10037W        W26171  11.467  17.839  12.065  0.4931 -0.1534  0.1215
10038W        W26172   0.414  11.591   1.074  0.0589 -0.2255 -0.0214
10039W        W26173   3.509  13.604  14.412 -0.1209  0.1073 -0.2349
10040W        W26174   6.182  17.743   0.962  0.0527  0.0535 -0.2035
10041W        W26175   2.258   8.734   0.016  0.1547 -0.2905 -0.1313
10042W        W26176   1.073   9.481  13.811 -0.1592 -0.2547 -0.1100
10043W        W26177  11.548  15.270   5.590 -0.0421  0.0192  0.1000
10044W        W26178  10.532  12.415   3.705  0.0641 -0.1684  0.4576
10045W        W26179  13.268   4.138   3.530  0.1873 -0.1436  0.2147
10046W        W26180   0.855  17.949  11.758 -0.1174  0.0291 -0.0188
10047W        W26181   0.714   3.279   4.159  0.2246 -0.3727  0.3736
10048W        W26182  16.125   5.402   1.095 -0.0197  0.1036  0.1923
10049W        W26183   2.036   6.224   0.795 -0.1197 -0.0096  0.1256
10050W        W26184  18.289   7.977   4.480 -0.1678 -0.1227 -0.0281
10051W        W26185  12.140  17.020   3.548 -0.0591 -0.1102  0.0062
10052W        W26186  11.566   4.654  12.466 -0.1775  0.1202  0.1237
10053W        W26187  10.812  10.286  11.385 -0.1932 -0.3469  0.0550
10054W        W26188  11.238  17.579   2.266 -0.1077  0.0300  0.2554
10055W        W26189  11.063  15.686  12.969  0.1561 -0.0875  0.4957
10056W        W26190  18.582   3.424  10.091 -0.0262 -0.2443 -0.0887
10057W        W26191  10.397  16.052   4.187  0.2213  0.1688  0.0129
10058W        W26192  17.662   0.675  12.066  0.0652  0.1476  0.1282
10059W        W26193  11.615   3.339   1.324 -0.0031  0.0757  0.0178
10060W        W26194   6.389  14.572   4.012  0.0020  0.1981  0.1492
10061W        W26195  18.875   5.114   5.601  0.1264 -0.3976  0.0961
10062W        W26196   9.268   3.120  11.576 -0.1647  0.0543  0.4649
10063W        W26197  17.268  15.909  13.931  0.1254  0.2197  0.4954
10064W        W26198   7.042  17.475   1.966  0.2365  0.0745  0.1907
10065W        W26199   2.939  19.202   3.003  0.3382 -0.2075  0.4943
10066W        W26200   1.150   8.657   3.636  0.0386  0.1729  0.0804
10067W        W26201  18.358  16.588   3.252  0.0049  0.1326 -0.0088
10068W        W26202  12.739   5.526  13.663  0.0359  0.0042  0.2758
10069W        W26203   1.167   9.835   4.570  0.0898  0.1996 -0.1530
10070W        W26204   4.510  17.481   1.843  0.1965  0.1798  0.1154
10071W        W26205   8.018  10.105   3.765 -0.1649 -0.0407 -0.1866
10072W        W26206   0.148  10.555  14.724 -0.4989  0.2435 -0.1504
10073W        W26207   7.928   8.072  14.878 -0.0807  0.0633 -0.0738
10074W        W26208   2.708  10.008   1.434  0.0590  0.0545 -0.0668
10075W        W26209  13.594  12.775  11.900  0.0464 -0.2670  0.0803
10076W        W26210   1.646  11.686   0.744 -0.2521 -0.1064 -0.2416
10077W        W26211  13.374  18.885   2.214  0.1695  0.0511  0.0424
10078W        W26212   3.658   4.389   5.391 -0.2439 -0.3601 -0.0792
10079W        W26213  18.586  15.500   4.415 -0.4419 -0.0821 -0.0037
10080W        W26214   6.350   0.927   4.010 -0.1811  0.3161  0.1561
10081W        W26215   4.324   9.756   3.149 -0.3075  0.0318 -0.1246
10082W        W26216   5.082  10.267  13.624  0.0315 -0.4101 -0.1674
10083W        W26217   7.222  17.482  13.014 -0.1591  0.3528  0.3157
10084W        W26218   3.730  12.434  10.277  0.0138 -0.3066  0.0971
10085W        W26219  19.258  14.333  10.149 -0.0283  0.1603 -0.0869
10086W        W26220   3.811   9.799   2.704 -0.0390 -0.1680  0.1920
10087W        W26221  16.993  14.095  13.454 -0.1430 -0.1794 -0.2109
10088W        W26222   3.031  11.991  14.621 -0.0392 -0.0805 -0.2901
10089W        W26223  10.907  15.603  13.975 -0.5052  0.1233 -0.2070
10090W        W26224   3.521   4.300   3.835  0.1500 -0.1458 -0.2596
10091W        W26225   2.019   0.963   2.904  0.3404  0.1619  0.0541
10092W        W26226   5.533   2.510   0.930  0.2259 -0.3719 -0.0531
10093W        W26227  12.811  19.256   4.678  0.1982  0.1648 -0.1078
10094W        W26228   8.208   2.801  10.231  0.0363  0.0741  0.0650
10095W        W26229  15.491   3.784   9.352 -0.1831  0.2130 -0.1271
10096W        W26230   0.525   9.541   2.626  0.1209  0.1888  0.0858
10097W        W26231  17.737  17.409  11.515 -0.3847 -0.1053 -0.1297
10098W        W26232   4.622   3.317   0.111 -0.1130 -0.0720 -0.2046
10099W        W26233  13.729   5.396   1.980 -0.1528 -0.1457 -0.4365
10100W        W26234   4.485  10.018  13.098 -0.1080  0.2126  0.3207
10101W        W26235  13.450   9.189  11.457  0.3574  0.0699 -0.0557
10102W        W26236  10.759  17.248  12.023  0.0124  0.1787 -0.0229
10103W        W26237   4.287  18.770  13.247 -0.1572  0.1296  0.1015
10104W        W26238  14.110   6.957  13.356  0.3417 -0.2745  0.1863
10105W        W26239  16.395  14.641  10.771 -0.1020  0.0962 -0.0491
10106W        W26240   5.705   2.555   2.757 -0.0170  0.3028  0.2968
10107W        W26241   6.272  16.168   4.713 -0.0010  0.2636 -0.0346
10108W        W26242  11.095  17.827   1.813 -0.3066 -0.0816 -0.0011
10109W        W26243  15.841  13.759   0.579 -0.2737 -0.3561  0.1609
10110W        W26244  13.193  18.798  11.872  0.2438  0.2771 -0.0869
10111W        W26245   4.622   7.558   4.291 -0.1958 -0.1021  0.1731
10112W        W26246  17.986  14.670   1.324  0.0087 -0.0514 -0.4454
10113W        W26247   3.890   5.321   1.273  0.1510 -0.3183  0.0369
10114W        W26248   0.373  13.586   5.031  0.0962 -0.0593 -0.1091
10115W        W26249   4.540  10.973   0.565  0.0873  0.2608 -0.0430
10116W        W26250  12.012  17.599   4.278 -0.0478  0.0272  0.1199
10117W        W26251   8.623   4.510  11.718  0.1422 -0.0937 -0.0242
10118W        W26252   9.268   6.884   3.921  0.1378  0.0840 -0.3523
10119W        W26253  13.722   0.134   5.553 -0.0710  0.1139 -0.0205
10120W        W26254   4.918   7.912  14.782 -0.0019  0.0212 -0.3439
10121W        W26255   0.749  14.527  13.779  0.2603 -0.0174 -0.1726
10122W        W26256   8.031   9.331   4.628  0.1636 -0.1239  0.2132
10123W        W26257  11.709   3.543   2.344 -0.0311 -0.1482  0.1862
10124W        W26258   3.079   5.464  10.209 -0.1003 -0.0912 -0.0509
10125W        W26259  10.786   5.342  14.398  0.1614  0.0705 -0.0857
10126W        W26260   4.777  12.836  13.307  0.2394  0.0601  0.0140
10127W        W26261   9.633  18.603   4.065  0.1244 -0.3013  0.0341
10128W        W26262   0.357  18.090  10.835  0.1952  0.2227  0.2245
10129W        W26263   0.299   7.151  14.614  0.2836 -0.1557  0.1412
10130W        W26264   5.559  12.184   4.823 -0.2463  0.2870  0.0821
10131W        W26265  10.319  10.040  10.589 -0.0206 -0.1351 -0.3167
10132W        W26266   8.740  12.282   0.579 -0.2259 -0.2063 -0.3090
10133W        W26267   9.210  11.680  11.475 -0.2073 -0.1335  0.1295
10134W        W26268   5.858  14.474   0.975 -0.0535  0.1688 -0.1276
10135W        W26269  15.371   2.730   1.000 -0.0699  0.1238 -0.4657
10136W        W26270  15.038   6.918  11.586 -0.0864  0.1390 -0.0834
10137W        W26271  10.201  16.012   3.142  0.2373  0.1229 -0.0763
10138W        W26272   1.288   6.800   2.636  0.1167  0.1828  0.0303
10139W        W26273  18.819   4.729   2.928  0.1023  0.0030 -0.1234
10140W        W26274  17.314   2.773  14.458  0.1736 -0.0729  0.2584
10141W        W26275  16.234   5.539  10.563  0.0750  0.0810 -0.1900
10142W        W26276   2.776   7.711  12.183  0.0002 -0.3672 -0.2058
10143W        W26277   8.180   6.835  13.769  0.1701 -0.2109  0.1888
10144W        W26278   3.003  11.678  12.911 -0.0341 -0.2548  0.0871
10145W        W26279  17.863  12.583  11.529  0.0341 -0.4350 -0.0015
10146W        W26280  15.533  12.275  12.284 -0.3573  0.1354  0.0245
10147W        W26281   4.287   9.300   3.426 -0.0496 -0.1214  0.2274
10148W        W26282   1.463  18.291  10.996 -0.0248 -0.1240 -0.0355
10149W        W26283  11.237   7.827  14.035 -0.0387  0.1189 -0.1298
10150W        W26284  14.192  10.035   0.831  0.2680  0.0781 -0.0344
10151W        W26285  18.846   0.273  14.385  0.0692 -0.1838 -0.2740
10152W        W26286  12.371  14.091  14.460  0.2815  0.2006 -0.4103
10153W        W26287   9.666   2.239  12.137 -0.2572 -0.3524  0.0885
10154W        W26288   6.954   0.027   1.862  0.1992 -0.1569  0.1541
10155W        W26289   1.295   4.190  12.230  0.0910  0.1799 -0.1424
10156W        W26290  16.919  16.297  10.498  0.2017  0.0471  0.3844
10157W        W26291  11.288   4.157   4.496  0.1967  0.0525 -0.0173
10158W        W26292   3.629   2.950  14.348 -0.1692 -0.0106 -0.0792
10159W        W26293   5.116   7.117  13.003 -0.2479  0.1439 -0.2755
10160W        W26294   6.743   4.537   5.824  0.0962 -0.0845 -0.0702
10161W        W26295  19.111   3.228  14.599 -0.3134  0.0134  0.6580
10162W        W26296   5.804   0.515  11.309  0.2074 -0.0995 -0.1549
10163W        W26297   5.176  18.520   1.278 -0.3394  0.1075  0.3086
10164W        W26298  15.466  18.372   2.448 -0.0224 -0.2486  0.0567
10165W        W26299  10.877   4.996   2.943  0.0393 -0.0288  0.1547
10166W        W26300  12.572   1.117   3.473  0.1649 -0.1125 -0.2172
10167W        W26301  13.619   7.288  14.288 -0.0029  0.1566  0.0667
10168W        W26302  11.704  18.052   2.504 -0.4957  0.0967 -0.0031
10169W        W26303  11.934   0.842  11.393  0.1563  0.1747  0.0476
10170W        W26304   3.662   4.370  14.876  0.0231  0.3460 -0.1450
10171W        W26305   1.819   3.097  13.604 -0.0777 -0.4642 -0.3094
10172W        W26306   1.711   3.446  10.792 -0.1384 -0.0263  0.0115
10173W        W26307  16.535  15.350  14.055 -0.4889  0.1176  0.0958
10174W        W26308   7.720  17.032   1.760 -0.1838 -0.0229 -0.0857
10175W        W26309  12.397   5.439  14.161 -0.1113 -0.3119  0.5216
10176W        W26310   4.077   0.076   3.510 -0.0099  0.0929  0.0206
10177W        W26311   0.853   0.676   2.233 -0.0483  0.5625  0.0473
10178W        W26312  12.188  10.011   1.765 -0.1270  0.1387  0.1850
10179W        W26313  16.535   4.428  10.566  0.1428 -0.1650 -0.1019
10180W        W26314  12.641   8.289   2.004 -0.0275  0.1867  0.0003
10181W        W26315   8.852   0.686  14.507 -0.2742 -0.2819  0.2237
10182W        W26316   3.104   1.565   3.012 -0.0925 -0.1357  0.0726
10183W        W26317   1.400  15.114   0.373  0.0526 -0.1794  0.1283
10184W        W26318   4.458  13.722  13.343  0.0334  0.2053  0.1415
10185W        W26319  18.448   6.798  12.997  0.2768 -0.1064  0.0794
10186W        W26320   0.959   6.777  10.484 -0.0220 -0.1353  0.0356
10187W        W26321  17.189  13.831  12.274  0.0070  0.2058 -0.2787
10188W        W26322   9.845  15.061   1.793  0.0336 -0.3367  0.1859
10189W        W26323  13.838  18.202  10.743 -0.0798  0.0238  0.0542
10190W        W26324   7.477  12.219  14.276 -0.1642  0.0289  0.1378
10191W        W26325  10.497   3.892  13.182 -0.1056 -0.1646  0.2153
10192W        W26326  11.771  11.377  10.574 -0.1537  0.0867  0.1073
10193W        W26327   8.848  15.690   3.243 -0.1259 -0.4415  0.1025
10194W        W26328   4.823  12.335  12.629 -0.2723 -0.0007 -0.3064
10195W        W26329  12.924  11.768  13.874  0.1475 -0.0263  0.0775
10196W        W26330   3.783   0.484  13.580  0.0400  0.1379  0.2598
10197W        W26331   5.830  16.875  11.155  0.1770  0.0077  0.1000
10198W        W26332  14.246  10.823   3.283 -0.1331 -0.2360 -0.1392
10199W        W26333   2.248   4.231  14.888  0.2249  0.2456  0.3453
10200W        W26334   8.919   6.230   4.965  0.0776 -0.2376 -0.1462
10201W        W26335  11.416  16.201   4.476  0.0549  0.1255  0.3159
10202W        W26336  15.244   9.870  14.293 -0.1041  0.3606 -0.1538
10203W        W26337  14.983  14.897  11.979  0.0574 -0.0936 -0.2612
10204W        W26338  10.582  19.219   4.707  0.0039 -0.0658  0.0463
10205W        W26339  12.693  18.674  12.995 -0.1728  0.0279  0.0582
10206W        W26340  14.009   5.994  12.416 -0.0665 -0.0445  0.0125
10207W        W26341   4.117  11.736   1.674 -0.4566  0.2000 -0.0789
10208W        W26342   6.324  13.990   4.039  0.0079 -0.0401 -0.1082
10209W        W26343  10.272  16.882   5.182 -0.1342  0.1837 -0.2095
10210W        W26344  18.253   1.411  10.059  0.1567  0.0801 -0.1584
10211W        W26345   0.112   3.473   0.821  0.0097  0.4019 -0.1929
10212W        W26346  13.904  14.116   3.659  0.0645  0.2506  0.0176
10213W        W26347   7.893  11.867  10.420 -0.1185 -0.0820 -0.4444
10214W        W26348   4.591  13.213   3.975  0.3557 -0.1375 -0.0085
10215W        W26349  17.154  14.182  14.788  0.1437 -0.1160  0.1591
10216W        W26350  12.203  17.433   1.150  0.0128 -0.2490  0.0994
10217W        W26351   8.039   8.790  13.080  0.0416 -0.1270  0.1182
10218W        W26352  14.859   5.712  13.174 -0.1073  0.0664  0.1229
10219W        W26353  13.836   6.095  14.388  0.0984 -0.1833  0.1405
10220W        W26354   5.803   3.406   4.099 -0.0950  0.2226  0.0044
10221W        W26355  18.476   2.143   4.934  0.2910 -0.1433  0.1212
10222W        W26356   2.253   8.420  13.830 -0.0538  0.2309  0.0121
10223W        W26357   5.708   1.131  12.849 -0.5817 -0.2328 -0.0820
10224W        W26358   1.043   7.805  14.345  0.1928  0.0950 -0.1676
10225W        W26359   2.204  16.186  11.463 -0.0563 -0.1785  0.0702
10226W        W26360   3.080  13.402   0.049 -0.0439 -0.1316 -0.3776
10227W        W26361   1.389   0.574   4.461  0.1315  0.1554  0.1915
10228W        W26362  18.169  16.470  10.969 -0.1599 -0.2393  0.0389
10229W        W26363   7.300   0.625  12.285  0.0410 -0.2181  0.3032
10230W        W26364  14.322  11.723   2.436 -0.0268 -0.3416 -0.0200
10231W        W26365   4.851   0.888  10.375 -0.1956 -0.2305 -0.0033
10232W        W26366  18.466  13.486   1.571  0.3326  0.0152  0.0662
10233W        W26367   0.808  17.308   0.088 -0.1209 -0.0902  0.0933
10234W        W26368  14.910  11.419  12.145  0.2913  0.4678  0.1527
10235W        W26369  13.085   8.748  11.356 -0.1464 -0.2889  0.3506
10236W        W26370   2.821  16.243   3.997 -0.0757  0.2714  0.0221
10237W        W26371  13.085   9.828  11.411  0.0110  0.1141 -0.3469
10238W        W26372   1.167  10.376   3.061  0.0281  0.2202  0.0712
10239W        W26373   6.525   7.783  12.820 -0.1976 -0.0754  0.1914
10240W        W26374  17.239  16.559   0.471  0.1961 -0.0698 -0.0045
10241W        W26375  16.373   4.444   0.978  0.2939 -0.2495  0.1066
10242W        W26376  12.963  13.543  13.880  0.0983  0.0151  0.0627
10243W        W26377  11.121   8.437  11.923  0.1441 -0.2218  0.0669
10244W        W26378   3.360   3.477  13.308  0.2135 -0.0181 -0.1756
10245W        W26379   0.319   5.651  11.576  0.0097  0.0773  0.1374
10246W        W26380  16.426  14.121  10.963  0.1137 -0.2164  0.1053
10247W        W26381  17.529  10.898  13.494  0.1894 -0.1692  0.2146
10248W        W26382   6.483  11.128   1.778 -0.0732  0.4774 -0.1048
10249W        W26383  18.138   2.967   1.353  0.3862 -0.0547 -0.1291
10250W        W26384  16.108   5.763  12.991 -0.2783  0.0458  0.0204
10251W        W26385   1.220  10.114   2.604 -0.1283  0.0017  0.0211
10252W        W26386   0.550   3.909  14.262 -0.0567 -0.2979  0.3022
10253W        W26387   3.617   7.778   4.327 -0.2309  0.0848  0.3259
10254W        W26388   8.950   6.271  11.949 -0.2827 -0.1026  0.2318
10255W        W26389   5.380  14.056   5.040  0.1192 -0.0541  0.0117
10256W        W26390   9.165   6.536   9.759 -0.2118  0.0541  0.0715
10257W        W26391  14.761   9.133   4.852 -0.4818  0.1815  0.2814
10258W        W26392   0.444  10.421   0.143  0.1093 -0.0194  0.2118
10259W        W26393  10.155  17.366  12.772 -0.2743 -0.2859 -0.0814
10260W        W26394  11.273   6.147  14.389 -0.0145 -0.0530 -0.2300
10261W        W26395   2.005   2.997  12.752 -0.0370  0.1891 -0.0312
10262W        W26396   0.899  13.898   3.415  0.0869 -0.0097 -0.1089
10263W        W26397   3.227   5.012  14.105 -0.0302  0.0425  0.1602
10264W        W26398   6.246   9.082   2.607 -0.0161 -0.0015 -0.0260
10265W        W26399  14.051  15.797  11.829 -0.0482  0.3371  0.0925
10266W        W26400  13.367  11.909  12.582 -0.0879 -0.0869 -0.1103
10267W        W26401  11.428   1.923   3.288 -0.0498  0.2081 -0.0040
10268W        W26402   6.311   9.177  13.876  0.2512 -0.2470 -0.1370
10269W        W26403   1.183  17.941  14.441  0.0695 -0.1544  0.0070
10270W        W26404  11.672  12.097  13.103  0.1050 -0.1617  0.1393
10271W        W26405  12.353   8.797  10.487 -0.0338  0.1266  0.0624
10272W        W26406  10.131  14.461  12.668  0.1363  0.0205  0.1636
10273W        W26407   0.842  19.241  13.996 -0.0298 -0.0384 -0.0282
10274W        W26408   0.055  14.325   4.400  0.0284 -0.0983 -0.1480
10275W        W26409  18.839   6.387   2.381 -0.0219  0.5164  0.1989
10276W        W26410   5.013   1.588   3.420  0.3675 -0.0177  0.0797
10277W        W26411   1.391   9.088   3.467  0.1655  0.0400  0.3913
10278W        W26412  14.188   5.935   0.316 -0.0861  0.1045 -0.1909
10279W        W26413  13.449  12.597  14.699  0.2085 -0.0437 -0.2235
10280W        W26414   1.368   4.945   0.661 -0.0697  0.1243 -0.3417
10281W        W26415  15.653   7.027   4.387 -0.1445  0.0295  0.1027
10282W        W26416  12.299  14.189  12.400 -0.0206 -0.2229 -0.0692
10283W        W26417  15.934   1.883   3.783  0.0531 -0.3210  0.1724
10284W        W26418   7.715   5.556   1.058  0.1872  0.2572 -0.1603
10285W        W26419   9.014  13.942  13.411 -0.0278  0.2197 -0.0485
10286W        W26420  16.879  16.253   0.611 -0.1539 -0.1616 -0.1561
10287W        W26421  17.418  12.556   3.999  0.1169 -0.0109  0.2605
10288W        W26422   5.563   0.258   2.305 -0.0698 -0.0634 -0.0942
10289W        W26423  15.183  11.731   3.483 -0.2254  0.0208  0.1720
10290W        W26424   1.743  11.008   9.666  0.0651  0.2840 -0.1220
10291W        W26425   6.333   7.492   0.421 -0.2771  0.2469 -0.2197
10292W        W26426   0.465  12.357  13.197 -0.2179 -0.1288  0.1826
10293W        W26427  13.600   4.703   0.304  0.3426 -0.2032 -0.0007
10294W        W26428  15.413  12.491  11.109  0.5321 -0.1086  0.3427
10295W        W26429   2.641  16.028  11.294 -0.2048  0.1696 -0.2686
10296W        W26430   6.225   3.853   1.163  0.1399  0.1337 -0.1662
10297W        W26431   9.412  16.760   2.977  0.0592 -0.1085 -0.0435
10298W        W26432   2.171  17.670  12.714 -0.1850 -0.0702 -0.0090
10299W        W26433   3.192   6.736  13.167  0.0277  0.0041  0.2037
10300W        W26434  12.983   2.593   1.279 -0.1373  0.0088 -0.1977
10301W        W26435   3.968   0.984  13.624  0.1775 -0.0974  0.0057
10302W        W26436   4.487   5.911   1.801 -0.0845  0.3436  0.0279
10303W        W26437   3.105  17.621   1.770  0.1960  0.0028 -0.4629
10304W        W26438   1.734  16.994   5.200 -0.0474  0.2340  0.1443
10305W        W26439  16.593  16.005   0.120  0.1281 -0.2674 -0.1777
10306W        W26440   8.063  18.620   2.806 -0.1240  0.0344  0.1201
10307W        W26441   5.286  13.640   4.732 -0.0552 -0.1182  0.1777
10308W        W26442  16.911   5.327  14.383  0.0924  0.1284 -0.0391
10309W        W26443  11.539   8.124   2.690  0.1701 -0.0853 -0.0335
10310W        W26444   6.992   2.349   4.866 -0.1642 -0.1923  0.6044
10311W        W26445   2.518   8.626  11.901 -0.2963  0.0899  0.1658
10312W        W26446   5.055   0.428   3.892 -0.4447 -0.2585 -0.1678
10313W        W26447  11.980  14.033  12.688  0.0651 -0.3519  0.4760
10314W        W26448   4.753   6.601   3.585  0.0897  0.0661 -0.4014
10315W        W26449   3.503  15.420   3.493  0.0175 -0.3454 -0.3113
10316W        W26450   9.985   2.256   3.218 -0.0657  0.2369  0.0124
10317W        W26451   0.209  18.560  11.007  0.0097  0.1427 -0.0130
10318W        W26452   6.429  18.643  10.839  0.1806  0.3269 -0.4598
10319W        W26453  14.053  15.184   2.055 -0.1075 -0.0077 -0.1249
10320W        W26454   3.120   8.076  10.635  0.2594  0.2971  0.1685
10321W        W26455  16.246  14.096   2.306  0.0552 -0.3294 -0.0599
10322W        W26456   7.110   4.906  12.876 -0.1372 -0.2066  0.0031
10323W        W26457  18.485  18.034  13.501  0.2481  0.0970  0.1063
10324W        W26458   1.865   9.796   4.095 -0.2504 -0.1785 -0.1112
10325W        W26459   5.124   3.540   9.698  0.0412  0.0731 -0.1801
10326W        W26460   6.259  17.053  12.311  0.3773  0.0494 -0.0949
10327W        W26461   5.368  14.402   4.242  0.2988  0.2274 -0.0381
10328W        W26462  14.175   3.159   1.037 -0.1599  0.1805  0.0060
10329W        W26463   7.936   8.071  12.552  0.0339 -0.0180 -0.2049
10330W        W26464  16.429  17.409  10.932  0.0918  0.2719 -0.1956
10331W        W26465   4.108   7.610   4.302 -0.1241 -0.4418 -0.1092
10332W        W26466   3.981  18.802  11.929 -0.2229 -0.1530  0.1788
10333W        W26467   3.924   4.043  10.187 -0.0043 -0.1241 -0.1327
10334W        W26468   8.428  12.291  12.652 -0.5475 -0.1074 -0.1197
10335W        W26469   1.479   5.489   0.676 -0.1208 -0.0412  0.0085
10336W        W26470  14.766   4.198   0.852  0.0180 -0.1207 -0.1567
10337W        W26471  18.738  18.167  10.530  0.1383 -0.0549 -0.1182
10338W        W26472  10.552   8.341   1.858 -0.3201  0.1390 -0.4183
10339W        W26473  12.350   7.849  12.209 -0.2460  0.0007  0.2078
10340W        W26474   9.000   5.248   5.308  0.4443  0.1486  0.1761
10341W        W26475   8.228  16.175   4.272  0.1805 -0.0294  0.0251
10342W        W26476  11.100  15.834  13.517 -0.1566 -0.2512 -0.2514
10343W        W26477  13.767   4.369  10.184 -0.0192  0.0645 -0.2150
10344W        W26478  15.524   2.895   3.561 -0.3176 -0.0315 -0.0670
10345W        W26479   3.204   4.833  13.526 -0.1629  0.0227  0.2490
10346W        W26480   0.479  10.491   4.232  0.1536  0.0394  0.1411
10347W        W26481  11.413   9.919  10.071 -0.0614 -0.1161 -0.1045
10348W        W26482  16.130   6.052  10.728 -0.1805  0.0649 -0.1724
10349W        W26483   2.244   8.605   2.976 -0.1112 -0.0883  0.2272
10350W        W26484   9.482  15.534   1.652  0.2121  0.0737  0.3263
10351W        W26485  14.084   0.514   4.079 -0.2321 -0.1930 -0.0313
10352W        W26486  12.548  19.281   5.105  0.3257 -0.1486 -0.0160
10353W        W26487   7.106   5.265   2.288 -0.3201 -0.0343  0.1925
10354W        W26488  11.446   2.074  11.256  0.1000 -0.3807 -0.0879
10355W        W26489  10.564  15.577  11.706  0.0440  0.3332 -0.1124
10356W        W26490  14.914  14.300   3.969  0.3157 -0.1781 -0.0237
10357W        W26491   7.339   6.739  12.581  0.3372 -0.0778  0.0667
10358W        W26492  18.186   9.097   1.110  0.2385 -0.1360  0.1993
10359W        W26493  17.721   4.507   0.601  0.0226  0.1881 -0.0741
10360W        W26494  11.749  10.341   4.624  0.1369 -0.0113  0.1357
10361W        W26495  13.658  19.070  10.808  0.1114  0.2204  0.1160
10362W        W26496  16.593   6.374   0.947  0.1645  0.0174 -0.0026
10363W        W26497  13.058   6.486   4.804  0.0589 -0.0748  0.1565
10364W        W26498  15.077   6.714  14.356  0.0479 -0.0728  0.0795
10365W        W26499   2.789   2.112  10.836  0.3851  0.1158  0.2341
10366W        W26500  16.582   2.629   1.690  0.1277 -0.2280  0.0774
10367W        W26501   0.776  12.004  14.426 -0.2115  0.2096  0.0136
10368W        W26502   4.993   7.660   4.635 -0.2951 -0.2198 -0.4357
10369W        W26503  12.961  18.442   4.998 -0.1562  0.0381  0.1639
10370W        W26504   9.382  10.087   2.507  0.1703  0.0726  0.0995
10371W        W26505   9.167  13.369  14.106  0.0482 -0.2196  0.0218
10372W        W26506   7.281  10.425  10.931 -0.1128 -0.1456  0.1002
10373W        W26507  11.097   2.352   0.590  0.3164  0.2201  0.0868
10374W        W26508   8.121  10.253  10.866  0.1109  0.0311  0.0031
10375W        W26509   3.465   8.499  14.688  0.0313  0.2326 -0.1014
10376W        W26510  10.858  12.003   3.584  0.0978  0.3402  0.1450
10377W        W26511  10.831   8.147  14.667 -0.1868 -0.0069  0.2509
10378W        W26512   8.496   1.187   3.022 -0.0211  0.2687 -0.0007
10379W        W26513  10.695   0.404   2.405 -0.0223 -0.0272 -0.1159
10380W        W26514  11.784   4.052   5.377  0.3073  0.2301 -0.1864
10381W        W26515  18.031  17.721   4.530 -0.1720 -0.1191  0.0858
10382W        W26516  17.929   7.061   1.852 -0.1618  0.1009  0.0367
10383W        W26517   2.825   8.876   2.081 -0.0117  0.0590  0.0567
10384W        W26518   9.990  12.543   0.310  0.0220  0.3770 -0.3015
10385W        W26519  16.592  13.567  14.148 -0.1217  0.1992 -0.1963
10386W        W26520   1.451  12.498  13.306  0.1052  0.2647 -0.2936
10387W        W26521   1.494   0.506   4.964  0.3787  0.3830  0.0730
10388W        W26522   1.694   3.681   0.610 -0.1213  0.2131  0.1018
10389W        W26523  15.786  15.393   1.908  0.2009 -0.0304 -0.0719
10390W        W26524   8.399   8.551  13.395 -0.4606  0.4288 -0.3071
10391W        W26525  12.873  11.399  14.168  0.0590  0.0257 -0.3166
10392W        W26526  10.715   4.522   3.656  0.1209  0.1366 -0.0676
10393W        W26527  10.504   9.970   1.807 -0.1517  0.2374 -0.1345
10394W        W26528  19.314   9.609  12.087  0.1289 -0.0931 -0.3975
10395W        W26529  14.115   3.081  14.068  0.1750 -0.1424  0.0710
10396W        W26530   1.700  17.435   3.257 -0.0317 -0.1643 -0.1693
10397W        W26531   9.402   0.249   5.583 -0.3563 -0.0526  0.0747
10398W        W26532  17.474   3.834  11.063 -0.0183  0.0423  0.0570
10399W        W26533  14.428  17.524  12.425 -0.1815 -0.0845  0.3400
10400W        W26534  14.117  12.831   1.884  0.0305 -0.2753  0.2176
10401W        W26535   2.712  14.965   1.307  0.0542  0.3360 -0.1351
10402W        W26536   2.577  14.614   0.598  0.2444  0.0261  0.0196
10403W        W26537  13.195   7.229  12.911  0.0870 -0.1795  0.1380
10404W        W26538  14.609   1.359   4.366 -0.1820  0.1963  0.1438
10405W        W26539   0.554   4.206  12.938 -0.0179  0.3278  0.1802
10406W        W26540   8.818  17.909  14.248 -0.1677 -0.0453 -0.1363
10407W        W26541   3.022  14.383   0.566  0.2428  0.0701  0.1096
10408W        W26542  10.403  15.951   3.679  0.1795 -0.2677 -0.2059
10409W        W26543  14.034   5.610   2.853 -0.1363 -0.2695 -0.1325
10410W        W26544  15.443  17.603   2.001 -0.2025 -0.0841  0.0754
10411W        W26545  18.982  15.871  13.835  0.3136  0.0473 -0.1849
10412W        W26546   1.749  18.342   0.910 -0.0810 -0.0802 -0.0899
10413W        W26547   2.219   1.048  10.669  0.3956 -0.0357 -0.2509
10414W        W26548   2.523  14.034  12.554  0.1506 -0.3655  0.3012
10415W        W26549  17.355  15.353  14.046  0.1071  0.1561  0.3154
10416W        W26550  16.932   6.621  14.486 -0.1978  0.0491 -0.1399
10417W        W26551   0.094  13.059  12.409 -0.1273 -0.0635 -0.0448
10418W        W26552  16.508   6.216   2.939 -0.2275 -0.0004 -0.0911
10419W        W26553  12.735   3.583   4.705 -0.1114 -0.1318  0.1162
10420W        W26554   1.701   6.130  14.431  0.2177 -0.0649 -0.0820
10421W        W26555   3.092   0.588   3.898 -0.0777 -0.0359  0.4914
10422W        W26556   4.698   6.972   1.646  0.2350  0.1806 -0.1383
10423W        W26557  13.569   3.025   0.398  0.0598 -0.0931 -0.0944
10424W        W26558  13.995   0.112   3.736 -0.0191  0.0807  0.4292
10425W        W26559   6.301   1.813   4.082  0.0893 -0.1858 -0.1692
10426W        W26560   2.636   1.089   3.199 -0.0202 -0.3390  0.0456
10427W        W26561  19.225  18.515   5.427 -0.0078 -0.2340 -0.3513
10428W        W26562   1.203   6.981  13.513 -0.0835 -0.0819 -0.0314
10429W        W26563   3.437  16.880  11.290 -0.1160 -0.4018  0.2861
10430W        W26564  11.669   6.400   1.297  0.2880  0.0493 -0.0725
10431W        W26565  14.800   3.760   2.072  0.2227  0.1055  0.1423
10432W        W26566  18.316  12.323   5.395  0.3904  0.1387 -0.0871
10433W        W26567  11.851   1.113   2.017  0.0797 -0.0950 -0.1774
10434W        W26568   6.261  10.966  11.696  0.0238  0.1880 -0.0539
10435W        W26569  10.606  18.813   0.145 -0.1436  0.0707 -0.1083
10436W        W26570   6.665   5.746   0.609 -0.0006 -0.1798  0.0626
10437W        W26571   3.409   3.676   1.637  0.0052 -0.1390  0.1368
10438W        W26572   8.200  12.722  13.955 -0.1351  0.2541 -0.0810
10439W        W26573   7.970   2.165   3.081  0.2541  0.1814  0.2448
10440W        W26574  14.259   1.101   4.747  0.0386 -0.1032 -0.0273
10441W        W26575   4.891  13.054  10.999 -0.1294  0.1862  0.1225
10442W        W26576   2.491  13.490   0.309 -0.1178  0.2732  0.0637
10443W        W26577  16.763  11.463  13.293 -0.4110 -0.5883  0.1013
10444W        W26578   4.557   6.798  13.636  0.1025 -0.1044  0.3785
10445W        W26579  14.814   4.880  11.315 -0.1973 -0.1551  0.2801
10446W        W26580   7.805   2.113  12.831 -0.1247 -0.2633 -0.1308
10447W        W26581  16.247  10.330   0.562  0.0487  0.0142  0.2264
10448W        W26582   8.318   8.071  13.748 -0.1043 -0.2427 -0.2657
10449W        W26583   5.223   5.127  10.173 -0.2325  0.0315  0.3034
10450W        W26584   7.150  10.689   0.593  0.1921  0.3089 -0.1039
10451W        W26585  17.093   6.276   2.167 -0.4543  0.2099  0.2103
10452W        W26586   5.730  10.015   2.037  0.1097  0.2053 -0.2072
10453W        W26587  19.016  13.108   1.947  0.1418  0.1778  0.1978
10454W        W26588   9.464  14.295   1.436 -0.0252 -0.1969 -0.0268
10455W        W26589   9.596  17.238   4.831  0.0851  0.1714 -0.2626
10456W        W26590  11.607  15.243   0.580  0.3104  0.1027 -0.1628
10457W        W26591   4.242   6.589   1.620  0.1862  0.2992  0.0630
10458W        W26592   1.884  16.093   2.501 -0.5084 -0.2637 -0.1721
10459W        W26593  12.345  13.605   3.381 -0.0879  0.0545  0.1488
10460W        W26594   4.458  14.794  13.044  0.1222 -0.2091 -0.1919
10461W        W26595   2.644  13.879   1.317  0.3430  0.0161  0.2703
10462W        W26596   2.092   1.349  12.708 -0.3001 -0.1513 -0.1657
10463W        W26597   8.401   8.895   4.677 -0.2253 -0.2616 -0.0758
10464W        W26598  15.186  14.909   1.258  0.2411 -0.0574 -0.1517
10465W        W26599   6.945   1.308   4.568  0.2501 -0.0076 -0.1704
10466W        W26600  18.587   8.865  13.228 -0.1666  0.0368  0.1460
10467W        W26601  11.161   7.695   3.829 -0.3484  0.2120  0.0633
10468W        W26602   8.148  19.274   0.588  0.0276 -0.0462  0.0426
10469W        W26603  12.812   7.588   1.139 -0.1470  0.1239 -0.2177
10470W        W26604  18.558   5.957   2.534  0.0637 -0.3021 -0.1572
10471W        W26605  12.749   4.174   3.594 -0.0842 -0.1585 -0.0677
10472W        W26606   0.685   0.536   4.130  0.0198 -0.3042  0.0885
10473W        W26607  11.961  16.333   0.596  0.0063 -0.1464  0.1428
10474W        W26608  14.464   1.054  12.064 -0.3722  0.1993  0.2089
10475W        W26609   4.589   2.916  10.942  0.0455  0.1953  0.0923
10476W        W26610  11.631   5.122  12.358 -0.3077  0.1344 -0.1382
10477W        W26611  10.744   1.624   5.358  0.2352  0.0915  0.1015
10478W        W26612  14.549  14.362  13.783 -0.2066 -0.0355  0.5816
10479W        W26613  15.599  14.769  13.180  0.1932  0.2023 -0.1306
10480W        W26614  17.197  18.729   0.738 -0.1199 -0.5198 -0.2791
10481W        W26615   2.129   7.452   3.775 -0.0359 -0.2414 -0.0168
10482W        W26616  10.214  11.631   0.485  0.1922 -0.1393 -0.1623
10483W        W26617   3.146   4.868   9.547 -0.0273 -0.0339 -0.0403
10484W        W26618   3.752   7.240   1.995 -0.1010 -0.0309 -0.2661
10485W        W26619  16.484   7.817  13.758 -0.0903 -0.2764 -0.0845
10486W        W26620   1.471   0.959   3.775  0.1765  0.3469  0.1168
10487W        W26621  14.911   7.372  13.585 -0.0535  0.1507 -0.3226
10488W        W26622   2.461  14.436  10.565  0.2434  0.1393  0.3365
10489W        W26623  14.261  10.383   2.513 -0.0249 -0.0157 -0.2416
10490W        W26624  12.630  10.492  13.541  0.4072 -0.0911 -0.0861
10491W        W26625   5.603  14.589   0.567  0.1926  0.0974  0.0144
10492W        W26626   2.784   7.982  14.678  0.1643 -0.0496  0.1240
10493W        W26627   9.899  13.565  10.553 -0.0924  0.0399 -0.1438
10494W        W26628   7.228   5.794   2.993 -0.2824  0.2051  0.0879
10495W        W26629  16.558   6.418   2.172 -0.0645  0.0505 -0.0500
10496W        W26630  18.711   3.001  13.332 -0.0171  0.2672  0.0715
10497W        W26631  15.272   1.891   3.588 -0.0751  0.1451 -0.0185
10498W        W26632  10.763  16.324  14.527 -0.2364 -0.1401  0.0227
10499W        W26633  13.639   6.834  12.258  0.2069  0.0214  0.0382
10500W        W26634  16.500  12.920  12.960 -0.0621 -0.3050 -0.2050
10501W        W26635   2.596   9.224   0.887  0.0114  0.2383 -0.1367
10502W        W26636   6.255   8.310  10.048  0.3368 -0.2842 -0.0467
10503W        W26637  10.079  14.234  10.206 -0.1687 -0.2554 -0.1843
10504W        W26638  11.481   4.782   4.116  0.0878 -0.0077 -0.2149
10505W        W26639   4.087   8.649   1.400  0.2176 -0.3468 -0.0144
10506W        W26640   8.675  10.613   5.079 -0.2591 -0.1461 -0.0457
10507W        W26641   3.165   4.457   2.756  0.0021 -0.1375  0.1074
10508W        W26642   4.412  15.933   4.138 -0.0364  0.2917 -0.1502
10509W        W26643  11.094  11.869   4.384 -0.1797  0.1717  0.1150
10510W        W26644   7.678  11.976   0.360  0.1015  0.1022  0.2592
10511W        W26645  15.669   7.668  13.986 -0.2427  0.0059 -0.1022
10512W        W26646   5.597  17.912   2.376 -0.1428  0.3534 -0.0376
10513W        W26647  10.383   1.068  12.755  0.2112 -0.0146  0.1365
10514W        W26648  15.528   9.589   1.907  0.0404 -0.3084 -0.1420
10515W        W26649  14.652   8.722  14.145  0.1895  0.0517 -0.1403
10516W        W26650   7.040  14.283  12.464  0.1912  0.0798  0.0813
10517W        W26651  10.275  18.259  11.613  0.0287 -0.2832 -0.0673
10518W        W26652  18.781  16.260   3.867  0.2548 -0.2344  0.1259
10519W        W26653   8.347  18.166   1.984 -0.1783 -0.1727 -0.0060
10520W        W26654   8.320  17.315  12.247 -0.1087 -0.0007  0.0526
10521W        W26655  12.962   8.612  13.112 -0.1782  0.2638 -0.1019
10522W        W26656   3.857   1.312  13.252  0.0214 -0.3288 -0.0130
10523W        W26657   3.497   7.845   1.814  0.4061 -0.2683  0.0774
10524W        W26658   9.380  12.602  13.374 -0.0098  0.0004  0.0353
10525W        W26659   9.529   3.686   1.624 -0.2432 -0.2406 -0.1570
10526W        W26660   8.475   9.849   2.665 -0.0982 -0.3156  0.1356
10527W        W26661  11.761  14.424   0.847  0.0316 -0.0855  0.2072
10528W        W26662   1.298  13.408  11.419  0.1428 -0.1126 -0.1175
10529W        W26663  13.463   7.953   1.566  0.0510 -0.0481  0.3009
10530W        W26664  14.909   4.393  14.100  0.3432 -0.0822  0.0029
10531W        W26665   8.450   0.438   1.863 -0.3534  0.0638  0.0526
10532W        W26666  17.708   3.603  12.294 -0.0717 -0.0348 -0.0068
10533W        W26667   3.284  16.972   0.100  0.0593 -0.2511 -0.1910
10534W        W26668  17.507  11.228   1.279 -0.1832  0.2136  0.0927
10535W        W26669   5.462  18.675  12.341 -0.4990  0.3963 -0.1502
10536W        W26670  18.945   1.403   1.975 -0.0536  0.1238  0.0434
10537W        W26671   3.485  17.359   1.894 -0.1412  0.4339  0.0792
10538W        W26672   9.356  18.293   1.815  0.2633 -0.1704  0.1806
10539W        W26673  18.464   8.066  10.413  0.0864  0.2117 -0.0816
10540W        W26674  13.451  16.789   0.975  0.3202  0.2654  0.0440
10541W        W26675   3.785   7.812   9.843 -0.0324 -0.1030 -0.1940
10542W        W26676   5.587  11.991  10.330 -0.0253 -0.0362 -0.1948
10543W        W26677  19.197   2.378   1.415 -0.0243  0.2215 -0.1013
10544W        W26678  17.808   4.150   3.492 -0.2325 -0.2067  0.0476
10545W        W26679  12.468  13.894   2.914 -0.0468  0.2568 -0.0695
10546W        W26680  13.968   3.619   0.735 -0.0461  0.2083 -0.4001
10547W        W26681  14.998   8.605  10.821  0.0169  0.0141  0.0589
10548W        W26682  10.381  13.335   1.530 -0.2125  0.2714  0.1244
10549W        W26683  18.684   0.898   4.421  0.0472 -0.0331 -0.1574
10550W        W26684   7.351   3.171  11.485 -0.2332  0.0176 -0.0650
10551W        W26685  10.008  16.900   2.194  0.2027 -0.1940 -0.4542
10552W        W26686   8.027  14.116   0.078  0.1711  0.1410 -0.0101
10553W        W26687   6.019   4.536  11.340 -0.0116 -0.1906 -0.0038
10554W        W26688   0.059  18.002   1.050 -0.0838  0.2476  0.0686
10555W        W26689  10.392   5.016  14.384  0.0796 -0.1869 -0.2246
10556W        W26690   6.546   0.073   1.072 -0.2060  0.3306  0.0375
10557W        W26691   0.461  14.528   0.805  0.0808 -0.1759  0.0112
10558W        W26692  18.272  16.260   3.727 -0.3223  0.1202 -0.0681
10559W        W26693  19.211   8.446  10.965 -0.0413 -0.1750  0.1489
10560W        W26694   9.234  14.679  11.838 -0.2378 -0.2584 -0.1911
10561W        W26695   2.407   4.326  13.959  0.1468 -0.0535  0.0875
10562W        W26696  12.953  17.108   0.923  0.2470 -0.0478  0.5263
10563W        W26697  14.303  13.171  12.093 -0.0718 -0.0767  0.2016
10564W        W26698  14.714  18.165   3.648 -0.1047 -0.1616  0.2013
10565W        W26699   3.820  14.945  14.152 -0.0344  0.2089 -0.0257
10566W        W26700  12.248   9.278   2.598 -0.2183 -0.2455  0.0345
10567W        W26701  18.796   4.571   3.892  0.2561 -0.2279 -0.3416
10568W        W26702   7.579   2.142  14.214  0.1583  0.0295 -0.1736
10569W        W26703   2.991  11.274   4.823  0.6270 -0.4858  0.1111
10570W        W26704   3.830   8.778   3.926  0.4944 -0.1225  0.0941
10571W        W26705  18.782   0.015  12.165 -0.3140 -0.1988 -0.2446
10572W        W26706   7.072   1.988   1.145  0.0356  0.3649  0.0590
10573W        W26707  18.818  16.248   2.971  0.0429  0.0856 -0.0998
10574W        W26708   4.295   7.382   3.882 -0.0887  0.0918 -0.0361
10575W        W26709   2.937   8.886  13.404 -0.0880 -0.0818  0.0242
10576W        W26710  10.596   8.279  13.349  0.0614  0.0423  0.0347
10577W        W26711  15.762   2.173  13.225 -0.2960  0.0480 -0.1127
10578W        W26712  18.558  13.016   1.083  0.4119  0.3413  0.0909
10579W        W26713  14.465  15.498   3.508  0.1266 -0.0467 -0.2870
10580W        W26714   6.529   9.595  13.644  0.2552 -0.0999  0.3792
10581W        W26715   1.804   7.509  11.671  0.1523 -0.2757  0.1697
10582W        W26716   8.247  16.227   3.725 -0.1781  0.0831  0.0207
10583W        W26717  13.023  11.988  11.333 -0.0535 -0.5063  0.0627
10584W        W26718   3.662  18.870   1.536  0.0646 -0.0473 -0.0244
10585W        W26719  10.776   6.495   1.549  0.3666 -0.0104  0.1179
10586W        W26720  12.829   2.575   5.593  0.0329 -0.2090  0.1792
10587W        W26721  11.084  13.669  13.019  0.0167  0.1159  0.1060
10588W        W26722   1.253  15.786   3.252 -0.4181  0.0845  0.2278
10589W        W26723   6.070   4.807   4.462 -0.1908  0.0559  0.0819
10590W        W26724   5.941   7.467  13.949  0.2390  0.3877  0.3131
10591W        W26725   2.182  17.481   0.277 -0.3440  0.0396 -0.0068
10592W        W26726   5.404   5.899   0.052 -0.0845 -0.0117  0.0927
10593W        W26727   4.721   9.113   4.312  0.0461 -0.0966  0.0534
10594W        W26728  11.978   6.984   0.761 -0.3008 -0.1992 -0.0959
10595W        W26729   4.222   1.110  11.677  0.0031  0.0851  0.2091
10596W        W26730   1.376  14.740   2.183  0.2656  0.4753  0.0201
10597W        W26731   5.195  17.663   1.834 -0.2137 -0.2044 -0.1401
10598W        W26732   1.897   6.084  12.599 -0.0351 -0.0750 -0.3335
10599W        W26733  16.296   9.592   3.827 -0.0831  0.4567  0.1201
10600W        W26734   4.967  14.259   5.488  0.1728 -0.1835  0.1841
10601W        W26735  13.024   2.844   0.375  0.0301  0.0559 -0.0901
10602W        W26736   2.624   8.110   0.166  0.0242 -0.2140  0.2844
10603W        W26737   8.595   6.317   1.181  0.1669 -0.0797 -0.0919
10604W        W26738  18.407  18.454  10.203  0.1038 -0.1247 -0.1452
10605W        W26739   7.578   5.052   2.564 -0.0489 -0.1317  0.2248
10606W        W26740   2.308  11.978   1.338 -0.0621  0.4739 -0.0523
10607W        W26741   6.078   7.728  12.694 -0.0766  0.1500 -0.0180
10608W        W26742  18.207   8.020   2.371 -0.1697  0.1833 -0.0994
10609W        W26743   4.397   6.775   0.771 -0.4189 -0.0715  0.4142
10610W        W26744   5.461  14.009  13.409  0.2546  0.2173 -0.0337
10611W        W26745  19.116   0.216  13.418 -0.0340  0.2182 -0.1347
10612W        W26746   0.119  11.727  14.854 -0.0722 -0.1199 -0.1875
10613W        W26747  18.755  15.354  14.573 -0.2079 -0.0434 -0.0040
10614W        W26748   0.672  13.859  10.512 -0.0818 -0.0029  0.0517
10615W        W26749  15.036   4.440   4.425  0.0576  0.1243  0.0747
10616W        W26750  13.777   4.454  12.214  0.0840  0.0002 -0.0162
10617W        W26751   3.196  16.937   5.458 -0.1797  0.1118  0.2876
10618W        W26752  15.570   8.584   9.412 -0.1488 -0.0085  0.1263
10619W        W26753  14.512   3.125  11.357  0.0611 -0.2899  0.1975
10620W        W26754  13.727   0.723   3.019 -0.0247  0.0934  0.0974
10621W        W26755  15.380  16.864  10.418  0.2530 -0.0147 -0.0930
10622W        W26756   6.834  14.044  13.884  0.2185 -0.0399  0.1401
10623W        W26757  15.749   5.069   3.676 -0.1355 -0.1041 -0.0078
10624W        W26758   1.074   1.920   2.489  0.2050 -0.0187  0.1967
10625W        W26759  19.136  17.967  10.332 -0.0945 -0.0933  0.1340
10626W        W26760   3.504  17.185  10.349 -0.0379 -0.2446  0.0996
10627W        W26761  12.880   4.417  14.753  0.3616 -0.2397  0.0808
10628W        W26762   6.801   2.736  13.920  0.2824 -0.1848 -0.0406
10629W        W26763   0.041  16.513   1.947  0.0750 -0.1404 -0.2583
10630W        W26764  11.329  18.172   5.791  0.0071  0.0223 -0.1163
10631W        W26765   0.682   3.826  13.778 -0.1153  0.2867 -0.2095
10632W        W26766   3.400   2.793   1.037  0.0811  0.1142  0.1739
10633W        W26767   4.523  10.674  11.479  0.1085  0.1498 -0.3343
10634W        W26768   0.667  18.997  13.562  0.0035  0.2139  0.0660
10635W        W26769   9.480   3.668   3.932  0.1680  0.1858 -0.0528
10636W        W26770  15.213  10.833  12.347  0.0720 -0.0952  0.2294
10637W        W26771   5.657   7.521  10.493  0.3659  0.0673  0.0720
10638W        W26772   8.917  12.072  12.706  0.0993 -0.0744  0.2772
10639W        W26773  14.139  13.351   1.863  0.0236  0.2198  0.1577
10640W        W26774  16.266   9.858  13.311  0.0996  0.2384 -0.1131
10641W        W26775   8.182   8.753   0.922 -0.1964 -0.0396  0.1034
10642W        W26776  15.080  11.190  14.173  0.0345  0.0495 -0.4735
10643W        W26777  13.621   4.345   3.210  0.1468  0.0957 -0.1999
10644W        W26778   4.076   3.006  11.800  0.0530 -0.2467 -0.0148
10645W        W26779   0.525   0.869  13.414 -0.1130  0.0444 -0.0071
10646W        W26780   6.750   9.420  10.572 -0.1593  0.1051  0.2142
10647W        W26781  13.475   8.827  12.199 -0.0395 -0.1870 -0.0910
10648W        W26782   9.871   1.296  14.065  0.0432 -0.3073 -0.1450
10649W        W26783   3.301   5.897  14.370 -0.2080  0.0562 -0.1245
10650W        W26784   9.298   6.446   1.810  0.1102  0.1748 -0.1592
10651W        W26785  10.349   0.638   5.767  0.0136 -0.4517  0.1019
10652W        W26786  12.481   4.240   2.176  0.0614  0.1607  0.2572
10653W        W26787  17.273  10.579  12.837  0.2412  0.3021  0.0872
10654W        W26788  10.201  12.348   4.081  0.0671 -0.0578 -0.1065
10655W        W26789  16.578  11.103   0.067  0.0864 -0.2919 -0.0202
10656W        W26790  15.818   5.404  12.079  0.1187  0.0961  0.0268
10657W        W26791  12.858  11.357  14.735  0.1406 -0.1424 -0.2676
10658W        W26792  12.615   5.870   1.712 -0.1857  0.1288  0.2654
10659W        W26793   0.811   8.484  11.495  0.1474  0.1022 -0.0637
10660W        W26794  13.396   5.348   2.328  0.0461 -0.1024  0.1366
10661W        W26795   3.878  13.376   0.453  0.1243  0.0892 -0.1298
10662W        W26796   9.329   0.549   4.647  0.2535 -0.0545 -0.0115
10663W        W26797  11.214  15.391  14.380  0.1971  0.1147  0.2895
10664W        W26798   4.085  18.250   3.640  0.0598 -0.3812  0.0717
10665W        W26799   1.157   5.431   3.408  0.1717 -0.0762 -0.0419
10666W        W26800  16.738  14.432   4.676 -0.2690  0.0738  0.1206
10667W        W26801  16.452   3.237   1.335 -0.0168  0.1065 -0.0422
10668W        W26802   5.212   4.904   1.812  0.0752  0.0532  0.0921
10669W        W26803   5.559  11.795  10.810  0.1143  0.0558  0.0305
10670W        W26804   8.526   0.757   3.297 -0.2283 -0.1962  0.0968
10671W        W26805   0.587  15.802   1.455  0.2448 -0.2936  0.0762
10672W        W26806   9.258   7.254  11.678 -0.0519  0.1922  0.1116
10673W        W26807  17.662  14.009   4.435  0.4558  0.0505  0.0219
10674W        W26808   2.735  19.304  12.591 -0.0507 -0.1062 -0.0107
10675W        W26809  10.360   2.354   5.124 -0.2888  0.0505  0.4180
10676W        W26810   2.518   6.812  11.325 -0.0483  0.0262 -0.2571
10677W        W26811  10.710  13.335  14.201 -0.0726  0.1342  0.1309
10678W        W26812  18.341  17.136  10.839  0.2143  0.0191  0.2417
10679W        W26813  12.266  17.015   3.035 -0.1694  0.2629 -0.0049
10680W        W26814   1.229   2.280  14.567 -0.4183  0.0345 -0.4178
10681W        W26815   3.909   4.230   1.069  0.0820 -0.1550 -0.1178
10682W        W26816   9.875   7.179  10.894  0.1026  0.3023  0.0654
10683W        W26817   9.930  16.375   1.635  0.0798 -0.2062  0.2146
10684W        W26818   3.096  13.281   4.396 -0.0085 -0.0225 -0.0856
10685W        W26819   7.774   6.690   5.646 -0.0125  0.3944 -0.2685
10686W        W26820   2.845  14.804  13.185  0.1623  0.3776  0.2290
10687W        W26821   2.238  14.533   4.561 -0.2008  0.0229 -0.1725
10688W        W26822  15.644   3.755  13.036  0.1492  0.2062 -0.0913
10689W        W26823   9.238  11.581   2.146  0.0623  0.2071  0.3060
10690W        W26824  17.539  11.376  13.729  0.2058  0.0890  0.1076
10691W        W26825  12.255  11.611   0.868  0.2742 -0.0626 -0.0223
10692W        W26826  10.019  16.997  11.899  0.0802  0.1416  0.4160
10693W        W26827  14.566   9.207  14.426  0.0457 -0.2334  0.1299
10694W        W26828  19.142   5.583   0.162  0.1765 -0.1814 -0.4544
10695W        W26829  19.184  18.401  11.785 -0.2967  0.1975 -0.1582
10696W        W26830   7.145   5.343  13.374  0.0821  0.1402  0.5437
10697W        W26831   6.919  11.636   0.857  0.2269 -0.1393 -0.0920
10698W        W26832   5.248  17.850   3.089 -0.3894 -0.2471  0.0755
10699W        W26833  13.895   2.735  10.375 -0.0353  0.0409  0.2042
10700W        W26834   7.198  13.526  11.326  0.0369  0.0214 -0.3554
10701W        W26835   1.561  11.771   4.741 -0.1280  0.0251  0.1450
10702W        W26836  18.166  18.377   3.736  0.1848  0.0324 -0.1233
10703W        W26837   8.089   7.427   4.267  0.1775 -0.0749 -0.1493
10704W        W26838   2.135   9.514  10.826 -0.1953  0.3115  0.0104
10705W        W26839  19.006   2.820   5.063 -0.1505 -0.2669  0.1181
10706W        W26840  10.636  19.071  14.307  0.2047 -0.0858  0.0922
10707W        W26841  16.016   7.657   3.615  0.1472 -0.2730 -0.1447
10708W        W26842  12.704   6.760  13.469  0.0882 -0.2798  0.1931
10709W        W26843   3.974  14.507   1.708 -0.0787 -0.0922 -0.0193
10710W        W26844  12.655   0.452   0.316 -0.0021 -0.1035 -0.2211
10711W        W26845   5.214  11.880   5.072  0.1278  0.2701  0.4052
10712W        W26846  12.903   9.544  13.494  0.4420 -0.1247  0.1184
10713W        W26847   1.885  18.917   1.612 -0.2686 -0.2757 -0.0182
10714W        W26848   7.330   2.019  12.110 -0.3226 -0.2034  0.2251
10715W        W26849  11.342   2.927   1.217  0.2131  0.2198  0.0097
10716W        W26850  15.589   7.479   3.797 -0.0407  0.1004  0.2299
10717W        W26851  16.113   5.726   4.115  0.2534  0.0127 -0.0672
10718W        W26852   4.493  17.845  13.079 -0.0523 -0.2207  0.1234
10719W        W26853   5.805  13.817  12.179  0.1187  0.1525 -0.0308
10720W        W26854  18.110  14.892  14.401  0.1492 -0.2836 -0.0532
10721W        W26855   7.937   3.661   2.552 -0.2069 -0.1762 -0.2320
10722W        W26856  17.184   9.665   3.739 -0.3579 -0.0301 -0.3336
10723W        W26857   7.387   5.298   0.750 -0.0618  0.1441 -0.1302
10724W        W26858  18.782   8.062   0.870  0.0490  0.3303 -0.2159
10725W        W26859  12.250   0.333   3.858  0.2064 -0.0434  0.1092
10726W        W26860   8.502  19.270   2.206  0.2670  0.0297 -0.2588
10727W        W26861  12.899   8.879  10.919 -0.1687  0.3119 -0.4026
10728W        W26862   8.021   4.300  12.872 -0.2186  0.1563  0.0307
10729W        W26863   8.099  12.056   3.760 -0.5067  0.1188 -0.1493
10730W        W26864   0.630  10.954  13.139 -0.1566  0.0497 -0.0927
10731W        W26865   0.591   4.075   1.853 -0.1698 -0.0616  0.1745
10732W        W26866   4.697  17.248   9.687 -0.2366 -0.1724  0.1947
10733W        W26867   2.047   5.186  14.831 -0.1600  0.1916 -0.2814
10734W        W26868  12.627   1.638   0.202 -0.1015  0.1643 -0.3650
10735W        W26869   6.987  14.010   2.588 -0.1329 -0.2680 -0.3705
10736W        W26870  13.930   7.957  12.999 -0.1886 -0.1044 -0.3381
10737W        W26871   5.783   2.526  10.740  0.0057 -0.0035  0.0406
10738W        W26872  12.015   3.485   5.193 -0.1370  0.2665 -0.1141
10739W        W26873   3.041   1.382  14.444  0.0867 -0.1267  0.0765
10740W        W26874  17.225  15.349   1.093  0.1109 -0.1424  0.0954
10741W        W26875  11.461  17.534   9.518  0.1264  0.0075 -0.0715
10742W        W26876  10.504   0.564   1.154 -0.1621  0.2692  0.2172
10743W        W26877   5.427   3.074  13.046  0.0005 -0.0027 -0.0041
10744W        W26878  11.265  11.429   1.023 -0.1355  0.3899  0.1930
10745W        W26879   5.880  16.598  13.622 -0.1663  0.0821  0.1678
10746W        W26880  15.008  14.089   3.116  0.1021 -0.1744 -0.0181
10747W        W26881  14.771  18.905  11.407  0.0295 -0.2063 -0.3065
10748W        W26882  12.548  13.139  12.359  0.0504 -0.3676  0.1460
10749W        W26883  16.440   8.684  12.048 -0.0780 -0.4194  0.1152
10750W        W26884   1.502   3.718   2.062 -0.2436  0.2266 -0.2419
10751W        W26885   8.872   5.664  12.836 -0.0804 -0.2961  0.1365
10752W        W26886  16.965  10.012  10.959  0.1509 -0.1119  0.2493
10753W        W26887   9.120   8.799   3.052 -0.2278  0.1802  0.5983
10754W        W26888   0.928  17.018   4.963 -0.2026  0.2896 -0.2241
10755W        W26889  15.347  18.235  10.885 -0.0564 -0.3048  0.2419
10756W        W26890   7.954   6.380  13.555 -0.2479 -0.0894 -0.0976
10757W        W26891  17.545   6.873  10.525 -0.0400 -0.0323  0.3452
10758W        W26892  18.340  15.503   2.587 -0.5922 -0.2197  0.2026
10759W        W26893   9.445  14.165  10.087 -0.1112  0.0666  0.0556
10760W        W26894   8.489  18.996   0.275  0.0834 -0.0117 -0.0472
10761W        W26895  16.931   1.077  11.508  0.0204  0.1083 -0.0013
10762W        W26896  11.505  19.221   0.100 -0.0689  0.1721  0.1328
10763W        W26897  18.909   6.245   3.404 -0.1628  0.0836  0.4259
10764W        W26898  11.289   5.278  12.745  0.1267  0.2124  0.1103
10765W        W26899   7.302   1.684   1.621  0.0296  0.1279  0.2772
10766W        W26900  11.011   1.937  11.486  0.0985 -0.0566 -0.1998
10767W        W26901  13.877  13.286  14.289  0.1626  0.1777  0.0408
10768W        W26902  17.133   4.475  11.689  0.1487 -0.1885 -0.1440
10769W        W26903  10.669   0.646  13.116 -0.0700 -0.1007 -0.0325
10770W        W26904   3.009   2.196  12.220  0.1572  0.0745 -0.1977
10771W        W26905  14.540  14.437  10.558 -0.1072 -0.2260 -0.0083
10772W        W26906   4.547   7.796  12.885 -0.1033  0.0992 -0.3448
10773W        W26907  14.707   2.301   1.922  0.0979 -0.1835 -0.1365
10774W        W26908  11.134  17.285  11.204  0.2083 -0.3603  0.1385
10775W        W26909  17.740   8.378  13.108 -0.0166 -0.1433  0.1361
10776W        W26910   1.128   2.131  13.824 -0.5113 -0.0316 -0.1422
10777W        W26911  10.743   1.173  13.735 -0.1115  0.0029 -0.0288
10778W        W26912   8.293   9.547   3.156 -0.3693 -0.0343 -0.1110
10779W        W26913  11.579  11.041   0.897  0.0123  0.1825 -0.5256
10780W        W26914   9.509   2.279   2.379 -0.2405  0.0918 -0.1680
10781W        W26915   6.881   0.349   1.405  0.3913  0.2039  0.1485
10782W        W26916   4.001  12.492   0.484  0.1120  0.2139  0.1679
10783W        W26917   0.672   1.595  10.230  0.4166  0.0134  0.1728
10784W        W26918   1.558  18.779  10.801 -0.0727  0.3446 -0.0037
10785W        W26919   4.308  16.617  12.572 -0.1098  0.1722  0.2945
10786W        W26920   1.616  16.098   2.004 -0.0853 -0.1798 -0.0440
10787W        W26921   8.831   7.824  11.045 -0.1459 -0.4652 -0.2091
10788W        W26922  11.276   3.588   4.660  0.0775 -0.1869 -0.3388
10789W        W26923   8.086   8.359  10.780  0.2285 -0.0242  0.1189
10790W        W26924  12.688   0.587   3.820  0.1713 -0.1324 -0.2944
10791W        W26925   0.396  11.541  14.479 -0.1198 -0.2075  0.0432
10792W        W26926   0.709  10.739   0.468  0.1932 -0.0662 -0.0085
10793W        W26927  13.781   4.046  11.941 -0.0766  0.1363  0.1536
10794W        W26928   1.670  14.585  12.542 -0.0190 -0.0069 -0.2497
10795W        W26929   2.595   5.633  12.113 -0.0022  0.1488 -0.1824
10796W        W26930  13.178   6.031   2.500 -0.0396  0.1498 -0.3495
10797W        W26931  12.400  16.288  12.283  0.1819  0.1401  0.0165
10798W        W26932   1.974  16.790   0.886  0.0168  0.0338  0.1602
10799W        W26933  17.952  14.823   0.143  0.0065  0.1140  0.4563
10800W        W26934  13.044  16.237  14.739 -0.1033 -0.0478  0.0698
10801W        W26935   5.114   6.427  13.648 -0.0821  0.2389 -0.0103
10802W        W26936   5.307  11.224   2.521 -0.0787  0.0039 -0.0496
10803W        W26937   7.341  10.759   3.907  0.0535  0.2983  0.2495
10804W        W26938  13.303  12.383  12.613  0.1486  0.1483  0.1677
10805W        W26939   4.991   0.876   1.637  0.0287 -0.2938  0.2726
10806W        W26940   0.621  14.000  11.402  0.3148  0.1165 -0.2352
10807W        W26941  15.556  14.981   0.833 -0.1816  0.0238 -0.3805
10808W        W26942  15.669   5.197  13.344  0.1604 -0.1118  0.1185
10809W        W26943  12.668   5.355  14.612 -0.0499  0.3062  0.0389
10810W        W26944  13.983   8.407   2.062 -0.2702 -0.1151  0.0795
10811W        W26945   5.438   3.339  12.156  0.0313 -0.2149  0.2492
10812W        W26946  13.451  18.040  13.695 -0.0636  0.3378 -0.1778
10813W        W26947  18.728   4.479   5.422 -0.1002 -0.0312  0.2416
10814W        W26948  15.906   4.125   4.055  0.1235  0.1979  0.1013
10815W        W26949   0.876   3.534  10.385 -0.3400  0.1018  0.0451
10816W        W26950  16.345   3.306  10.748  0.3131  0.3159  0.1437
10817W        W26951   1.616  10.276   3.398 -0.1342 -0.1980  0.1746
10818W        W26952   5.934   5.892  10.509  0.1182  0.5154 -0.0033
10819W        W26953  13.638  15.470   1.315 -0.3863 -0.0615  0.0799
10820W        W26954  12.521   5.826  14.419 -0.1800 -0.0044 -0.0930
10821W        W26955  10.513  17.117   0.134  0.1991 -0.3013 -0.5179
10822W        W26956   3.349  11.947  13.223  0.2799 -0.1315  0.0484
10823W        W26957  19.032  18.358   1.082 -0.1692  0.0408  0.0977
10824W        W26958   5.918   8.608  12.023  0.2913 -0.1583  0.1532
10825W        W26959  17.566  14.999   4.039 -0.0826  0.2376 -0.0639
10826W        W26960  11.414  12.933   2.227 -0.1622 -0.0117  0.2500
10827W        W26961   7.466  15.183   4.970  0.1312  0.0864 -0.0930
10828W        W26962   5.709  16.111  14.613 -0.2428  0.2230  0.0477
10829W        W26963  16.101   6.232   3.245  0.1586 -0.3871  0.1796
10830W        W26964  12.887  15.066   4.166 -0.1510 -0.0596 -0.1292
10831W        W26965  18.103   8.812  13.982 -0.0012 -0.1187  0.2243
10832W        W26966  14.650  14.472   0.734 -0.0556 -0.0498  0.0121
10833W        W26967   0.231   0.923   0.101  0.0383  0.2576  0.1332
10834W        W26968   1.337  12.897   0.320 -0.0679 -0.0473  0.1876
10835W        W26969  13.838   5.555  12.690  0.1200  0.0696  0.0941
10836W        W26970   4.038   5.321   2.311 -0.0620 -0.0051 -0.0861
10837W        W26971   1.437  10.276  11.136 -0.1978  0.2230  0.1176
10838W        W26972   5.044   5.650   4.223  0.0237 -0.0650 -0.2233
10839W        W26973   5.667   2.139   1.202 -0.4352  0.2768 -0.0009
10840W        W26974  10.852  11.693   3.978 -0.1599 -0.3832 -0.1387
10841W        W26975  11.703  18.091  12.478 -0.0756 -0.1005 -0.1657
10842W        W26976   9.685  12.146  10.557 -0.3467 -0.3327 -0.0185
10843W        W26977   8.112  14.577   0.842  0.1584  0.3162 -0.0878
10844W        W26978  10.524  16.481  11.576  0.0131  0.0599 -0.2799
10845W        W26979  10.295  18.979   3.794  0.3424 -0.0666  0.1658
10846W        W26980   9.609   1.699  11.237 -0.1119 -0.0870 -0.3364
10847W        W26981  16.772  18.831   2.903  0.2084 -0.2619 -0.3162
10848W        W26982   2.262  13.219  12.474 -0.0710 -0.1216  0.0834
10849W        W26983  14.626  12.962   1.727  0.0586  0.1543 -0.1643
10850W        W26984  13.295  14.244   2.399 -0.0599  0.0029 -0.0834
10851W        W26985   6.291  14.999  12.409  0.2500 -0.1486 -0.1037
10852W        W26986  14.172   9.697  14.044 -0.1163  0.0055 -0.3207
10853W        W26987  14.279   2.895  12.088 -0.3894 -0.0812 -0.0112
10854W        W26988  13.238  14.769   4.090  0.2512 -0.0578  0.0487
10855W        W26989   8.841   4.289   1.615  0.0557  0.1821 -0.6215
10856W        W26990  14.984   6.965   4.270 -0.1503 -0.0025 -0.4478
10857W        W26991   8.743   7.095  11.643 -0.1847  0.1478  0.0106
10858W        W26992  13.032  10.217   1.322  0.1968  0.0037 -0.0207
10859W        W26993  12.174  11.524  14.940  0.0622 -0.0360  0.0127
10860W        W26994   5.512  10.332  10.743  0.3716 -0.3889 -0.0414
10861W        W26995   6.380  13.393  14.857 -0.3173  0.1091 -0.1694
10862W        W26996   1.988   4.643  13.949 -0.0360  0.0377 -0.2767
10863W        W26997  12.403   0.455   5.547 -0.1016 -0.1488  0.0924
10864W        W26998   7.099   0.518   0.120 -0.1323 -0.2422  0.0061
10865W        W26999  14.130   5.179  14.588 -0.1537 -0.1545  0.3269
10866W        W27000  15.644  15.977  11.136 -0.1578 -0.0097 -0.1651
10867W        W27001   5.584   3.250   0.456 -0.1452  0.1732 -0.1443
10868W        W27002   7.492   5.916  11.443 -0.3969  0.1045 -0.1625
10869W        W27003   0.845   8.982   3.811  0.0864  0.0758  0.0815
10870W        W27004  15.769   9.030  10.214  0.3549  0.1241  0.1015
10871W        W27005  18.184  12.131  13.993  0.1881 -0.1089 -0.2145
10872W        W27006   5.431  16.362   4.283 -0.1253 -0.1122 -0.1473
10873W        W27007  18.446   7.074   1.241 -0.0276  0.1010  0.1958
10874W        W27008  13.078   5.814   5.334  0.2403  0.2118  0.0149
10875W        W27009   7.951  18.860   1.447  0.0456  0.3861 -0.2714
10876W        W27010  13.853  15.224   0.716  0.1160 -0.1161 -0.0735
10877W        W27011  16.327   9.382   2.634  0.0261  0.0608 -0.3128
10878W        W27012   6.656  13.598  13.127  0.2094  0.2313  0.0016
10879W        W27013  11.414   0.205   1.020  0.0541 -0.1280  0.0011
10880W        W27014  10.502  15.079   2.569  0.1306 -0.1303  0.1763
10881W        W27015  17.339  13.692   1.558  0.1778  0.0593 -0.0415
10882W        W27016  12.818  18.916   3.346  0.1406 -0.0502  0.0887
10883W        W27017   2.817   3.621  12.348  0.0821 -0.1186 -0.0100
10884W        W27018   4.756   7.889  10.112 -0.0016  0.1293  0.0498
10885W        W27019   0.687  18.204  13.243  0.1055  0.2560  0.1877
10886W        W27020   2.077   1.450   0.340 -0.2820  0.0708 -0.0457
10887W        W27021   5.752  19.121   4.263 -0.2047  0.0478 -0.0260
10888W        W27022   6.838  17.908  11.342  0.0098  0.3036  0.2281
10889W        W27023  15.125  11.088   2.122  0.0680  0.0688 -0.1025
10890W        W27024   8.497  17.442   1.467 -0.2748 -0.1010 -0.0039
10891W        W27025  12.069  14.973   2.099 -0.1302 -0.0800 -0.5695
10892W        W27026   5.314  14.241   0.709  0.1195  0.2872  0.0086
10893W        W27027   2.603  15.749  14.709 -0.0236 -0.4419  0.2562
10894W        W27028   6.122  13.498   2.518  0.0590  0.1555  0.3543
10895W        W27029   8.684   5.575   0.037  0.2894 -0.1892 -0.2568
10896W        W27030   4.236   7.321  10.098  0.0039  0.1882 -0.1634
10897W        W27031   2.728  18.093   0.005 -0.1221  0.0346  0.1258
10898W        W27032   3.372   3.177  13.881 -0.0159 -0.1337  0.1663
10899W        W27033  18.290  11.736  10.269 -0.0177  0.3687  0.0986
10900W        W27034   3.922  12.550  11.210 -0.3196  0.0049  0.0457
10901W        W27035  18.589   1.762  10.163 -0.1851 -0.3575 -0.1279
10902W        W27036   1.577   4.943   5.303 -0.1616 -0.0334  0.0415
10903W        W27037  19.092   1.419  11.302  0.1401  0.2051  0.0083
10904W        W27038   6.004   2.934   3.047 -0.0852 -0.2943 -0.1216
10905W        W27039   2.483   1.807  10.524  0.3504  0.2576 -0.0324
10906W        W27040   1.896   9.646   1.342 -0.4603 -0.0790 -0.2517
10907W        W27041  10.484  10.525  13.491 -0.0698  0.0265  0.2581
10908W        W27042   2.930  14.386  14.451  0.0755 -0.1441 -0.0635
10909W        W27043   0.333  14.090  10.946 -0.1717  0.0567 -0.0995
10910W        W27044   9.556  17.975  12.916 -0.5301 -0.1136  0.1116
10911W        W27045   8.652  12.223   5.300  0.1052  0.3066  0.1044
10912W        W27046  12.703   8.459   4.659  0.1880  0.0179 -0.0425
10913W        W27047   2.727  12.009   3.165 -0.1267 -0.1593 -0.3219
10914W        W27048  16.869   1.928  13.967 -0.3177 -0.0659  0.0407
10915W        W27049  17.212  12.124  14.273  0.3505  0.0149  0.1752
10916W        W27050  10.394  18.991  12.346 -0.1742  0.0659 -0.1806
10917W        W27051  14.282   2.175   3.791 -0.0467 -0.0288  0.0982
10918W        W27052  15.342   0.929  11.268  0.0425  0.2423 -0.6189
10919W        W27053  10.824  17.682  10.908  0.1573  0.0161  0.0516
10920W        W27054  13.521  18.985   4.306 -0.2573  0.2090 -0.1931
10921W        W27055   5.674  14.060   1.206  0.0344  0.1440  0.1012
10922W        W27056  12.948  13.897   4.633  0.0937 -0.0939  0.0330
10923W        W27057   8.736  15.268   4.181  0.0931  0.1281  0.1141
10924W        W27058  16.954   2.879  14.096  0.1010  0.1588 -0.3054
10925W        W27059   6.254  12.303  11.345  0.1059  0.0079  0.0209
10926W        W27060  15.962  12.605   4.076  0.3197  0.0800 -0.3935
10927W        W27061   5.812   3.335   0.983 -0.1702 -0.0869  0.1486
10928W        W27062  11.220   5.566  14.384 -0.1917  0.1530  0.3954
10929W        W27063   6.494   7.873   4.950  0.1148  0.2164  0.2150
10930W        W27064  10.512  19.329   3.364  0.0462  0.0164 -0.0403
10931W        W27065   5.751   9.481  11.290 -0.1289  0.2935  0.1977
10932W        W27066   0.618  17.363  14.244 -0.4079  0.0316  0.1954
10933W        W27067   8.754  13.593  11.839 -0.3045  0.4413 -0.3541
10934W        W27068   4.432   4.939   0.801  0.0976 -0.0264 -0.1009
10935W        W27069  11.700  11.920   2.752 -0.1862 -0.1130 -0.2944
10936W        W27070   6.720   5.126  13.510  0.3307 -0.2190 -0.0065
10937W        W27071   3.963   7.128   0.939 -0.1870 -0.0461 -0.2575
10938W        W27072   3.739   3.354   2.313 -0.2072  0.0879  0.1974
10939W        W27073   6.638   4.323  13.385  0.1383  0.4257 -0.0012
10940W        W27074  10.570  15.047   4.121 -0.2630  0.0424 -0.3441
10941W        W27075  11.879   7.400  13.323 -0.2725 -0.1228  0.1048
10942W        W27076   9.620   1.506   1.128 -0.1012  0.0626  0.4261
10943W        W27077   4.048  16.574  13.536  0.1372  0.1550 -0.1694
10944W        W27078  13.538  17.646  13.024 -0.1158 -0.1924 -0.0302
10945W        W27079  14.945   9.784   1.167  0.2933 -0.1235 -0.1730
10946W        W27080   6.165  14.701   4.630  0.6536 -0.0327 -0.1961
10947W        W27081  12.809   6.879   3.477  0.1214 -0.2412 -0.2099
10948W        W27082   4.435  11.844   4.423  0.1116  0.1287 -0.0979
10949W        W27083  12.868  10.535  12.477  0.1694 -0.1415  0.0817
10950W        W27084  11.757  18.915   2.454 -0.2073  0.0366 -0.0781
10951W        W27085  10.710  12.513  11.537 -0.1886  0.2305 -0.0232
10952W        W27086   1.515  18.796   2.355 -0.0256 -0.0944  0.1852
10953W        W27087  10.461  17.316  14.286 -0.0860  0.3756 -0.1946
10954W        W27088  14.567   7.244  11.632 -0.0622  0.0042  0.2061
10955W        W27089   7.578  15.500   3.068  0.2647 -0.0943 -0.0281
10956W        W27090   7.469   5.680   5.633 -0.0637 -0.2233  0.0747
10957W        W27091  18.738  17.571  13.461  0.0447 -0.1491  0.2505
10958W        W27092  10.795  10.065   2.451 -0.0246 -0.0174 -0.1854
10959W        W27093  10.989  18.487  13.022 -0.0133  0.0507  0.1065
10960W        W27094   2.987  12.630   1.219  0.2727  0.3128  0.0455
10961W        W27095   3.525  16.019   4.765 -0.0740  0.0440  0.1211
10962W        W27096   8.312  12.154  13.127  0.1168 -0.0236 -0.0932
10963W        W27097   3.967   8.086  10.505 -0.2752 -0.1354  0.0920
10964W        W27098  18.533   3.822  14.124  0.1610 -0.4206 -0.0197
10965W        W27099   4.643  12.322   4.503  0.1417 -0.1222 -0.1453
10966W        W27100  17.868   8.687  13.568 -0.2137  0.0471 -0.2738
10967W        W27101   8.919  19.194   0.472 -0.1722 -0.4561 -0.0750
10968W        W27102  16.075   9.879  11.054 -0.0716 -0.4209 -0.0748
10969W        W27103   0.231   1.885  14.693  0.2953  0.0953  0.2914
10970W        W27104   5.101  17.147  10.803  0.0255 -0.0149  0.1476
10971W        W27105  14.888   1.968   2.738  0.0551 -0.4360 -0.4229
10972W        W27106   5.641   1.494   2.654  0.0218 -0.0968  0.0898
10973W        W27107   2.715   2.103  10.160 -0.3716 -0.0561  0.0286
10974W        W27108   1.397  14.410  14.059 -0.2278 -0.0018 -0.0871
10975W        W27109  18.753   8.998   0.364  0.0068  0.2687 -0.1835
10976W        W27110   9.132   0.540   1.035  0.3839 -0.0757 -0.1341
10977W        W27111   9.567  11.363   2.516 -0.1303 -0.1739 -0.0672
10978W        W27112   2.262  15.890  12.725 -0.3515  0.2262  0.1675
10979W        W27113   6.744  13.057  11.320  0.0302 -0.1584 -0.5845
10980W        W27114  17.885  17.050   1.068 -0.1598  0.0316  0.0297
10981W        W27115   0.082  19.025   4.000 -0.0276  0.1941 -0.0960
10982W        W27116  13.546   1.265   3.172  0.1005 -0.0223 -0.2680
10983W        W27117  11.954   6.496   3.524  0.1567 -0.1656 -0.2593
10984W        W27118  13.415  13.180   1.303  0.0110  0.1019  0.2157
10985W        W27119  18.942   5.976  12.719 -0.1532 -0.0213 -0.3332
10986W        W27120   2.836  12.844  10.622 -0.0701  0.2176 -0.0509
10987W        W27121  15.181  11.917  11.040 -0.1175  0.1446  0.3362
10988W        W27122  14.075  13.192   0.120  0.1361 -0.2047  0.0781
10989W        W27123   0.278  18.899  11.863 -0.2450 -0.0405 -0.0791
10990W        W27124   4.189   2.157   1.175  0.0579  0.0851  0.0330
10991W        W27125   6.092  13.937   5.147  0.2448  0.1041 -0.0088
10992W        W27126  18.142   3.675  12.715  0.2083 -0.0021  0.2321
10993W        W27127  19.080  16.770  10.872 -0.3342 -0.0391  0.0705
10994W        W27128   9.296   1.631   0.661  0.0809 -0.1412  0.0209
10995W        W27129   2.952   9.319  10.431  0.0743 -0.1746 -0.0875
10996W        W27130   9.272   9.411   4.741  0.5613  0.3812 -0.6408
10997W        W27131  11.972   1.083  10.764 -0.0423  0.1521 -0.0553
10998W        W27132  16.554   7.265   0.581  0.1013 -0.0282  0.2433
10999W        W27133  14.359   3.453  12.663  0.1230  0.0099 -0.2006
11000W        W27134  13.550   0.969  11.535  0.0908 -0.0674  0.2692
11001W        W27135   5.909  14.629  14.558 -0.0812  0.0744  0.3535
11002W        W27136  12.560  11.820  14.278  0.0171  0.0472 -0.0200
11003W        W27137   5.813   3.812   5.567  0.2847  0.1764 -0.1615
11004W        W27138  11.213   1.662   5.169  0.1328 -0.0204  0.3237
11005W        W27139   9.229  15.006   2.503  0.1522 -0.0168 -0.3018
11006W        W27140   5.563   5.918   5.106  0.0242  0.2009  0.0719
11007W        W27141   3.501   1.132  12.845 -0.3351  0.1029  0.4696
11008W        W27142   7.583   8.798  14.557 -0.0149 -0.1639 -0.1101
11009W        W27143  18.069  12.080  14.588 -0.4924 -0.0853 -0.3121
11010W        W27144   2.536   3.008  13.534  0.1716  0.0519 -0.5254
11011W        W27145   6.733  16.209  14.741  0.3158 -0.1800 -0.1719
11012W        W27146   8.716  17.893   9.291 -0.2039  0.1356 -0.0691
11013W        W27147   8.759   6.729   4.103  0.3600  0.0714  0.2226
11014W        W27148   9.539  18.521   0.215 -0.2496  0.2261 -0.0019
11015W        W27149   6.394   7.361  14.540  0.2929  0.3217  0.1588
11016W        W27150   9.391  15.365   5.061  0.2992 -0.0980 -0.1542
11017W        W27151   0.949   3.842  12.923  0.0030 -0.0341 -0.1969
11018W        W27152   8.612   8.246   1.553 -0.1530 -0.0686  0.1671
11019W        W27153  12.508   6.516   2.693  0.0778 -0.1760  0.4486
11020W        W27154   9.875   7.397   0.542 -0.2936 -0.0596  0.1374
11021W        W27155   8.857   6.582  14.002  0.3336 -0.0357  0.2667
11022W        W27156  14.993  16.154   4.077 -0.1237 -0.2106  0.1469
11023W        W27157   4.298   5.647   1.365 -0.0455 -0.0229 -0.1250
11024W        W27158  14.821  16.713   5.070  0.0472 -0.3808  0.1448
11025W        W27159   1.364  16.086  10.733 -0.2626 -0.1405  0.1914
11026W        W27160   4.438  14.081   0.588  0.0218  0.0196 -0.0292
11027W        W27161  17.469  15.066   0.218 -0.0614  0.0555 -0.2079
11028W        W27162   7.935   3.989   3.042  0.0035  0.2740  0.3763
11029W        W27163  10.786   8.699  13.719 -0.1748 -0.0741  0.1576
11030W        W27164   5.076   4.894  11.822  0.0102 -0.2666 -0.0182
11031W        W27165   9.375  17.700   0.469  0.1654  0.0301 -0.0084
11032W        W27166  18.989  15.738   2.848 -0.1115 -0.2990  0.1424
11033W        W27167   5.832   8.955  14.980  0.1366 -0.5384 -0.0939
11034W        W27168   0.541  11.628   3.125 -0.2692  0.4144 -0.0464
11035W        W27169  17.865  17.844   9.972  0.2979 -0.0403  0.1977
11036W        W27170   0.646  16.930  13.534  0.0590  0.4300 -0.3364
11037W        W27171  12.247   9.452   9.384 -0.1242  0.2879 -0.1002
11038W        W27172  12.217   3.519  12.756  0.3747  0.0683 -0.0522
11039W        W27173  12.114   6.318   1.485 -0.0721  0.1569  0.0005
11040W        W27174  12.596   0.727  14.595  0.2581 -0.0533  0.1692
11041W        W27175   4.434   3.917  10.158  0.3487  0.0749 -0.1030
11042W        W27176  14.234  16.213  13.236  0.0098 -0.2305 -0.2333
11043W        W27177   8.928  18.194   4.364  0.1391  0.1152  0.1126
11044W        W27178   1.920   3.377   0.280  0.1408  0.0238  0.0115
11045W        W27179  16.697  12.521   4.772 -0.0965  0.0166 -0.0610
11046W        W27180  13.077   2.511   2.183 -0.0475 -0.0771 -0.0551
11047W        W27181  17.315   1.425  14.689 -0.3085  0.1234 -0.1588
11048W        W27182   5.079  15.589   3.142 -0.1720  0.0747 -0.3620
11049W        W27183   3.014  14.950   0.817  0.0697  0.0406  0.1433
11050W        W27184   0.853   7.242   4.855 -0.2063 -0.5016  0.1641
11051W        W27185  13.310  12.797   2.349  0.1071  0.0816  0.1829
11052W        W27186   0.272   8.675  11.331  0.0864 -0.0637  0.0600
11053W        W27187   2.609   1.246  14.602 -0.0067  0.0445 -0.0226
11054W        W27188  10.714  14.157   3.055  0.0715 -0.0597 -0.0306
11055W        W27189   6.562   2.286  12.880 -0.2273  0.0962  0.3768
11056W        W27190   0.505   5.171   3.920 -0.1138  0.4558 -0.1677
11057W        W27191   1.078  17.980   0.802  0.0952  0.1480 -0.2043
11058W        W27192   6.440   8.483  11.951 -0.0525 -0.0359 -0.0919
11059W        W27193   2.755  14.426  11.806  0.0435  0.2943  0.3891
11060W        W27194  12.516  17.881  10.928 -0.0345 -0.2659 -0.3518
11061W        W27195   3.802   0.349   4.539  0.4494 -0.0279 -0.3990
11062W        W27196  17.910   4.721   1.857  0.1220 -0.0512 -0.0617
11063W        W27197  13.637  12.710   1.949  0.1504 -0.1302 -0.1509
11064W        W27198  12.410   4.229  10.818 -0.1073 -0.3830 -0.0871
11065W        W27199  13.876  15.398  11.101 -0.2748 -0.1235 -0.1202
11066W        W27200   6.092   7.833   2.841  0.0847  0.0890 -0.0382
11067W        W27201   1.181   6.352   2.631 -0.2059  0.0933  0.3314
11068W        W27202   1.236  19.068   0.573 -0.0760  0.2781  0.1948
11069W        W27203   1.709   2.226  14.795  0.4105 -0.2526  0.2487
11070W        W27204  13.767   5.253   4.912  0.1786 -0.0457 -0.2201
11071W        W27205   0.675  10.809   1.836  0.0069  0.0944  0.1196
11072W        W27206   9.816   6.173  13.375 -0.3474 -0.2397  0.0424
11073W        W27207   2.909   9.162  13.887  0.3503 -0.3063 -0.0337
11074W        W27208  16.916   7.454   3.021 -0.1896  0.1706  0.1069
11075W        W27209  17.047  12.165  10.124  0.0086  0.2834  0.1793
11076W        W27210   1.093   2.747  12.757 -0.0536  0.0339 -0.2884
11077W        W27211   1.397  14.599   1.712  0.4245 -0.1643  0.0823
11078W        W27212   3.343  18.003  10.084  0.1161 -0.1926  0.1912
11079W        W27213  15.642   4.883  12.410  0.0609 -0.0443 -0.0635
11080W        W27214   6.640   8.835  13.686  0.0410  0.2411  0.4635
11081W        W27215   0.678  12.775  11.932 -0.0154  0.0704  0.2837
11082W        W27216  14.385  18.526   5.706  0.5078 -0.1449 -0.0162
11083W        W27217   7.187  18.846  14.877 -0.2105  0.0170  0.0294
11084W        W27218  13.696  16.430   4.265 -0.4451  0.3166  0.0694
11085W        W27219   8.509  16.769  14.632 -0.0681  0.0347  0.2338
11086W        W27220  17.509   9.168  12.376  0.1564  0.0622  0.2341
11087W        W27221   0.127   2.524   4.615  0.1831  0.2678  0.0324
11088W        W27222  15.178  18.196  11.911  0.0327 -0.0273  0.1032
11089W        W27223  14.922  13.677   2.806 -0.2497 -0.0186 -0.2363
11090W        W27224   9.022   6.830  11.992 -0.1191 -0.2948  0.1660
11091W        W27225  12.364  11.078   2.394  0.2906  0.0402  0.0338
11092W        W27226  16.586   0.169   0.195 -0.1162  0.3960 -0.0288
11093W        W27227  15.730   3.510   3.004  0.3476  0.0494  0.2075
11094W        W27228   7.958  10.437  12.144 -0.1299 -0.4063  0.0125
11095W        W27229   5.596  17.197   4.793  0.1370  0.2162 -0.4006
11096W        W27230  12.525   1.847  11.252 -0.1684 -0.2150 -0.1246
11097W        W27231   6.528   1.854  10.474  0.0456  0.3481  0.1724
11098W        W27232   9.770   1.644  11.784 -0.0130 -0.0178  0.0151
11099W        W27233  14.998  18.938  14.431  0.2630 -0.3202 -0.1291
11100W        W27234  11.971   0.479   4.595 -0.1291  0.4109 -0.3590
11101W        W27235  14.455   3.473  10.221 -0.1523  0.0988 -0.1559
11102W        W27236   6.400  16.684   1.998  0.1815  0.1734  0.0648
11103W        W27237   3.075  18.354   4.546  0.2165  0.1784  0.0847
11104W        W27238  11.355   6.012  13.910  0.0234 -0.0864  0.0954
11105W        W27239  12.189   8.369  11.837  0.0668 -0.1501 -0.2416
11106W        W27240  13.950  17.721   2.176 -0.0121 -0.0622  0.3801
11107W        W27241  10.778  15.455   1.010 -0.0436  0.0189  0.2338
11108W        W27242  12.796  15.321  13.810  0.0943  0.1974  0.0221
11109W        W27243   2.477   1.968  13.685  0.2263  0.2898  0.1123
11110W        W27244   9.396   7.017  10.841  0.0495 -0.0245  0.0349
11111W        W27245   4.370  11.160  13.900 -0.2937  0.0369 -0.2093
11112W        W27246   7.253  11.672   1.642  0.0139  0.1282  0.1437
11113W        W27247   5.613   1.762   0.013  0.1084 -0.0631  0.0623
11114W        W27248  10.936   7.038   0.583  0.2248  0.1055  0.2382
11115W        W27249  15.003  14.261   4.498 -0.1115 -0.0173  0.2801
11116W        W27250   4.328   4.579  10.672  0.1214 -0.1684  0.2851
11117W        W27251  18.713   1.956   4.517  0.2704 -0.2301  0.0626
11118W        W27252  10.388   2.497  11.914  0.2880  0.4296  0.1066
11119W        W27253  14.453  14.253   1.182  0.2689 -0.2618 -0.0214
11120W        W27254  18.034   5.228   3.137 -0.0520  0.1820  0.2903
11121W        W27255  18.388  14.411   2.100  0.1507 -0.1422  0.0839
11122W        W27256   3.231  18.424  11.004 -0.1132 -0.0370 -0.0545
11123W        W27257   4.131  12.425  13.518 -0.1060  0.1228 -0.1439
11124W        W27258  12.856   1.165  12.990  0.0770  0.0273 -0.1828
11125W        W27259  14.248  16.174  14.358 -0.2080 -0.0403 -0.1176
11126W        W27260   4.771   3.391  14.508  0.0325 -0.1325  0.1740
11127W        W27261  15.380  18.858   3.655 -0.0523 -0.0344 -0.0517
11128W        W27262   7.567  13.761  12.165  0.3177 -0.0645 -0.1131
11129W        W27263  16.351  15.336  14.541 -0.2232 -0.1858  0.0058
11130W        W27264  18.232  12.598  13.580 -0.1019 -0.1279 -0.0495
11131W        W27265   4.780  12.868  11.931 -0.2547 -0.2894  0.0497
11132W        W27266  16.996   9.818  11.791 -0.0323  0.2509 -0.0865
11133W        W27267  15.975   7.919   2.668 -0.1661  0.1085 -0.0500
11134W        W27268  18.315  14.050  14.629 -0.2078 -0.0914 -0.2684
11135W        W27269   2.832  12.020   0.476 -0.2290 -0.0507 -0.0139
11136W        W27270   0.254   2.544  13.916 -0.3221 -0.1782  0.1172
11137W        W27271  19.207   6.685   1.425 -0.1218 -0.1552 -0.0956
11138W        W27272  17.389   2.281   1.299 -0.1114 -0.0014  0.2927
11139W        W27273   9.653  15.831   4.843  0.1048 -0.0772 -0.0144
11140W        W27274  10.587  11.992  13.619 -0.4041  0.1410 -0.2678
11141W        W27275  18.744  14.783   1.931 -0.0104  0.2009 -0.1922
11142W        W27276   1.124   2.297  11.777 -0.1294  0.1048 -0.1317
11143W        W27277  12.788  18.631  11.479 -0.0722 -0.2052  0.0048
11144W        W27278   5.010  15.162   4.927  0.1685  0.1434  0.1444
11145W        W27279   0.216   0.705  12.403  0.2935  0.0332 -0.2714
11146W        W27280   0.731   7.453   3.936 -0.0441 -0.2067 -0.2285
11147W        W27281  11.585   8.201   3.674 -0.1403  0.4082 -0.0165
11148W        W27282   3.598  14.722  12.657  0.4557 -0.3540 -0.2475
11149W        W27283  14.815  15.677  11.505 -0.1551  0.3559  0.1308
11150W        W27284   2.340   5.648  12.939 -0.1832 -0.1355 -0.1469
11151W        W27285   7.058  14.692   0.976 -0.0172 -0.1986  0.1057
11152W        W27286  18.552  16.747  13.139 -0.0306 -0.2933 -0.1646
11153W        W27287  12.080   2.772  12.035 -0.2102  0.1048 -0.0075
11154W        W27288  15.410   8.738  11.289 -0.0497  0.0977  0.2962
11155W        W27289   0.878  18.529  11.640 -0.2146  0.1393  0.0031
11156W        W27290  11.745  10.703  14.468 -0.0666  0.2264 -0.0734
11157W        W27291   0.151   6.758   3.844 -0.2695 -0.0487 -0.0042
11158W        W27292  18.212   1.833  14.452 -0.1140  0.0425 -0.1546
11159W        W27293  11.543   7.708  13.686  0.2379  0.0658  0.1828
11160W        W27294   1.888  11.312   1.927 -0.1715 -0.1672 -0.0981
11161W        W27295  13.610   7.047   2.661 -0.3158 -0.3389 -0.0639
11162W        W27296   9.914   5.755   0.209 -0.3035 -0.5055 -0.0094
11163W        W27297   4.885  12.073  13.592  0.1387  0.0244  0.1522
11164W        W27298  11.053  18.755   2.282  0.2596 -0.0647 -0.0648
11165W        W27299  14.279  18.865  13.611  0.1154  0.1274 -0.0079
11166W        W27300   1.546   7.132   1.350 -0.0681 -0.0003  0.0839
11167W        W27301   4.065   3.903  12.783 -0.0580 -0.1820  0.2524
11168W        W27302   8.625  11.361  11.750  0.0857  0.0404  0.0040
11169W        W27303   9.284  18.552  11.488  0.1951  0.0601 -0.4048
11170W        W27304   9.624  11.040  12.038 -0.1801 -0.1476  0.2369
11171W        W27305  14.782  11.559  11.251  0.3689  0.2527  0.1794
11172W        W27306   3.160   6.320   0.529 -0.0451  0.0839 -0.1391
11173W        W27307  10.791  19.256   2.564  0.1059 -0.0841 -0.0966
11174W        W27308   9.170   3.984   4.792 -0.0197  0.1448 -0.1525
11175W        W27309  16.264  17.539   9.901  0.1297  0.2195  0.0521
11176W        W27310   5.189   0.595   0.114  0.0343  0.1180 -0.1472
11177W        W27311   8.427   0.753  13.118 -0.0968  0.4980  0.1051
11178W        W27312  12.403  11.068  11.754 -0.0310  0.1214 -0.0413
11179W        W27313  14.525   6.834  14.540  0.1476  0.0104  0.2223
11180W        W27314  16.300   8.680   1.613  0.0869 -0.0587  0.3044
11181W        W27315  14.125  11.223   1.897  0.0581 -0.0190  0.0253
11182W        W27316  10.360  15.681   0.976  0.2011  0.1494 -0.2186
11183W        W27317  14.848   2.049  13.436 -0.2111  0.2198  0.0154
11184W        W27318   6.267   3.260   2.685  0.4477  0.1408  0.2036
11185W        W27319   6.567  12.647  12.056 -0.2925  0.2369  0.2035
11186W        W27320   2.880  10.665   0.130 -0.2467  0.1684 -0.3181
11187W        W27321  13.597   1.486  12.538  0.0316 -0.0308 -0.2181
11188W        W27322   7.067   1.189   1.646 -0.2507  0.0393  0.1172
11189W        W27323  14.077  11.487  10.830  0.1444  0.0336 -0.4975
11190W        W27324  12.008   4.430  11.043 -0.0520 -0.0030  0.1705
11191W        W27325  13.582  18.415   9.517  0.1669 -0.2523 -0.1144
11192W        W27326  16.203  11.485  12.561 -0.1288 -0.2889 -0.0526
11193W        W27327   6.339  16.828  12.757  0.2052 -0.1243 -0.3940
11194W        W27328  18.426   8.504  11.220 -0.1489  0.1429  0.2162
11195W        W27329  11.621   7.634   1.897 -0.3905  0.0925 -0.1026
11196W        W27330   4.885   3.371  13.329 -0.3416 -0.1888  0.0797
11197W        W27331  15.085   0.167  12.201  0.0969  0.2375  0.2034
11198W        W27332   9.076  11.299  10.691  0.3247  0.1090  0.0006
11199W        W27333   3.118   6.688  14.953 -0.3421 -0.1202  0.3166
11200W        W27334   1.083  15.810   2.788  0.1918  0.0872  0.0197
11201W        W27335   9.799   0.167   5.263 -0.1732  0.2838  0.0644
11202W        W27336  11.266   0.972   0.565 -0.0715 -0.1358  0.2615
11203W        W27337   4.477  11.879   2.052 -0.1003 -0.0287 -0.0766
11204W        W27338  17.379  10.872  14.877  0.0218 -0.2008  0.2368
11205W        W27339  10.046  19.142   5.850  0.2232  0.1311 -0.0893
11206W        W27340   9.442   6.530  13.325 -0.0261  0.1204 -0.0763
11207W        W27341   8.680   4.137   5.401 -0.0270 -0.1435 -0.1858
11208W        W27342  15.249  11.900   4.003  0.0793  0.1930 -0.0726
11209W        W27343   6.111  15.967   3.632 -0.2225 -0.0580 -0.1616
11210W        W27344   3.555   8.014   1.299 -0.0585 -0.2562 -0.2341
11211W        W27345  13.505   9.695  11.617  0.1308 -0.0672 -0.2503
11212W        W27346   6.455   8.038   2.471  0.0361  0.0813  0.2018
11213W        W27347  18.415  14.885   2.445 -0.1635 -0.2937 -0.1079
11214W        W27348   5.284   1.478   0.834 -0.0809  0.1412  0.3365
11215W        W27349   1.956   9.879   3.078 -0.0272 -0.2639  0.3114
11216W        W27350  18.807   6.737  10.347  0.0197  0.0013  0.2475
11217W        W27351   4.926  19.329  14.867  0.0209 -0.0211  0.0947
11218W        W27352  18.460  10.067   1.894  0.2743 -0.1246  0.1445
11219W        W27353   8.073  17.247  10.407 -0.0193 -0.2460  0.2627
11220W        W27354  13.818   3.950  14.424  0.0354  0.0323  0.0727
11221W        W27355  12.414  19.010   1.693 -0.3241 -0.0020 -0.0840
11222W        W27356  15.455   2.873   2.199  0.1340 -0.0086 -0.2807
11223W        W27357  16.223  14.857  13.266 -0.1351 -0.3922 -0.2877
11224W        W27358  15.760   2.919  11.445 -0.1882  0.2321 -0.2445
11225W        W27359  18.633  17.122   1.574  0.3271  0.0185  0.1129
11226W        W27360   8.043   4.671  11.804 -0.1971 -0.2762  0.1919
11227W        W27361   0.431   8.909   4.678  0.0405 -0.0763 -0.0710
11228W        W27362  18.929   1.078   0.429  0.0936  0.0391  0.0207
11229W        W27363   8.368   1.751   0.157  0.0469  0.3183 -0.2397
11230W        W27364   2.309   3.797  13.251 -0.0848  0.0511  0.2305
11231W        W27365  12.191   8.924  11.697  0.0410 -0.0352  0.1868
11232W        W27366   2.271  17.679   4.060  0.3864  0.1255 -0.0776
11233W        W27367   2.158   6.123  10.736 -0.1635 -0.0038  0.1322
11234W        W27368   5.169   1.916   1.902  0.0621 -0.2394 -0.0536
11235W        W27369   3.881   3.478   2.928  0.0452 -0.1325  0.0886
11236W        W27370  13.995   2.591  11.205  0.0998  0.1597 -0.1338
11237W        W27371  13.926   6.634   2.731  0.0154 -0.2316 -0.1234
11238W        W27372   8.428   5.101  13.151  0.1275  0.0797  0.3049
11239W        W27373  11.988   6.851   3.169  0.3032  0.1834 -0.1706
11240W        W27374   4.045   3.875   4.553 -0.0275  0.0423 -0.0755
11241W        W27375   5.989  12.778   2.331 -0.0500 -0.0566  0.4225
11242W        W27376  14.337   2.539  10.375  0.1830  0.2188  0.2475
11243W        W27377   5.241   9.271  12.373 -0.1219  0.0828 -0.1207
11244W        W27378   5.972   0.223   4.249  0.0078  0.0794  0.0099
11245W        W27379   2.543   6.080  13.896 -0.1164  0.1430 -0.0413
11246W        W27380  17.323   6.916   4.481  0.0533 -0.1760 -0.2423
11247W        W27381  16.254   2.919   2.694 -0.2004  0.0681 -0.2606
11248W        W27382   0.930   8.944  13.357  0.2717 -0.0390 -0.0032
11249W        W27383   6.370  17.452   0.579 -0.0649 -0.0992 -0.1375
11250W        W27384   9.657  17.888   2.171  0.0631  0.3934 -0.0383
11251W        W27385  13.071  11.523   4.902 -0.0027 -0.1803  0.2464
11252W        W27386   6.298  10.238  13.143  0.4230  0.1974 -0.0289
11253W        W27387   7.346   4.329  13.577  0.1494  0.0897  0.2780
11254W        W27388  12.350   1.733   0.797  0.0383  0.2559 -0.1504
11255W        W27389   5.378  10.198  11.235  0.0597 -0.1676 -0.0676
11256W        W27390  17.531   7.256   2.340  0.1040  0.1232 -0.1390
11257W        W27391  16.494  18.307   4.303  0.1450 -0.0594 -0.0630
11258W        W27392   5.511  12.457   4.355 -0.2906 -0.0187 -0.0613
11259W        W27393   4.619  11.126  12.831 -0.2638  0.2688 -0.0357
11260W        W27394   6.742  13.854   3.779 -0.0981 -0.0836  0.2085
11261W        W27395  18.099   9.170   2.135 -0.3091 -0.1787 -0.3064
11262W        W27396   2.292   6.547   0.563 -0.1247  0.1209 -0.2263
11263W        W27397   0.019   5.461  10.842 -0.1283  0.0140  0.1704
11264W        W27398  15.953   3.475  14.448  0.3510 -0.3134  0.0051
11265W        W27399   4.713  18.251  10.454  0.0303  0.2542  0.3611
11266W        W27400   9.812   3.506   0.179  0.0276 -0.3455 -0.2512
11267W        W27401   6.748  16.206   4.396  0.0489  0.0608  0.0757
11268W        W27402  12.781   0.716   3.329  0.0945 -0.0500 -0.2285
11269W        W27403   7.432  17.159   0.412 -0.1614 -0.5219 -0.4797
11270W        W27404  18.351  14.518  10.648 -0.2059  0.1459 -0.1077
11271W        W27405  13.994  11.100  13.246  0.2191  0.1137 -0.0464
11272W        W27406   9.427   3.384   9.750  0.1244  0.0402  0.0429
11273W        W27407   3.943   9.757   1.708 -0.1800 -0.0992 -0.1993
11274W        W27408   8.818  12.912   4.654 -0.3531 -0.0017  0.0102
11275W        W27409   0.154   1.336   1.761 -0.0940  0.2456  0.4659
11276W        W27410   3.535   5.634  11.236 -0.2647 -0.0858 -0.0218
11277W        W27411   8.607  17.839   3.969 -0.0555 -0.0034  0.0733
11278W        W27412   1.850   8.702  10.895 -0.2849 -0.1000  0.1021
11279W        W27413   1.081  12.066  14.062  0.0975 -0.1986  0.0616
11280W        W27414   7.566  11.479  14.608  0.0395  0.1740 -0.3538
11281W        W27415   1.509   2.097   2.734  0.3266  0.1526 -0.1932
11282W        W27416  11.045   7.621   1.274 -0.0171  0.5203 -0.2222
11283W        W27417   9.403   7.808   3.575  0.0056  0.0998 -0.0449
11284W        W27418   0.949   7.094  12.196 -0.2094  0.2720 -0.0220
11285W        W27419  14.827  10.335  11.659 -0.2125 -0.1739 -0.2682
11286W        W27420  13.970   7.255   3.985 -0.1823  0.1543 -0.0655
11287W        W27421  13.699   3.908   4.896  0.2317 -0.4652 -0.0393
11288W        W27422  15.497   9.201  11.393 -0.2550  0.1010 -0.1035
11289W        W27423  16.928  16.371   1.833 -0.2221 -0.1151  0.4302
11290W        W27424   6.070   4.224   0.838  0.0869  0.0859 -0.2077
11291W        W27425  14.173   8.745  11.510  0.2783 -0.0887  0.0338
11292W        W27426   8.572   9.358   2.383  0.1490  0.0395 -0.0049
11293W        W27427   6.608  11.994   0.658 -0.2894  0.2260  0.0973
11294W        W27428   5.305   0.320   3.427 -0.3457  0.2519  0.1421
11295W        W27429  19.123  15.415   2.009 -0.1547 -0.0042 -0.0472
11296W        W27430   5.142   8.526   0.982  0.0851 -0.1337 -0.0719
11297W        W27431   5.249   7.276  11.632 -0.0034 -0.1482  0.1201
11298W        W27432  10.549   3.261   2.359 -0.0088  0.0992 -0.1487
11299W        W27433   5.312  17.343   1.510 -0.0055 -0.0045 -0.1773
11300W        W27434   2.882   6.379   3.755 -0.1821  0.0315 -0.3033
11301W        W27435   5.179   7.388   5.012  0.3082  0.1248 -0.0891
11302W        W27436  11.271  16.110   1.602  0.0082  0.1238  0.0891
11303W        W27437  17.511   3.589   9.284  0.1720 -0.2050 -0.5128
11304W        W27438  14.630   3.201   2.980  0.2828 -0.1570 -0.2292
11305W        W27439   4.937  18.414   4.185  0.1466 -0.2856 -0.0104
11306W        W27440   3.641  14.370  10.777  0.1563  0.3600 -0.0195
11307W        W27441  11.119   1.545   1.086 -0.1498 -0.0389 -0.0246
11308W        W27442  10.484   9.713   4.654 -0.0806  0.1770 -0.0997
11309W        W27443  18.156   7.537  13.613  0.0705  0.2747  0.0585
11310W        W27444   0.266  13.556  10.568 -0.1954 -0.0501 -0.1521
11311W        W27445   1.134   2.268   3.500 -0.2551 -0.2579 -0.4777
11312W        W27446   5.833  15.452   1.483 -0.2573  0.0376  0.2045
11313W        W27447  19.278   2.923  12.904 -0.0325 -0.0629  0.0233
11314W        W27448   9.811   9.200   3.723 -0.2151  0.0056  0.0521
11315W        W27449   0.021  17.034  10.469  0.3542  0.0929 -0.0782
11316W        W27450   0.935   4.284   3.665 -0.1375  0.0821 -0.0030
11317W        W27451   8.903   7.459   5.414 -0.0332  0.0950 -0.0982
11318W        W27452   0.205   7.153   9.251  0.0179  0.0959  0.2403
11319W        W27453   9.537   5.613   2.848  0.1208  0.0902 -0.0043
11320W        W27454   9.971   9.137   4.188 -0.1194 -0.0174  0.1052
11321W        W27455   9.340   6.637  12.806 -0.1106 -0.1880  0.3406
11322W        W27456   8.345   5.910   2.436 -0.4516  0.1371  0.0681
11323W        W27457  14.193   0.764  11.613 -0.0267 -0.3237  0.1531
11324W        W27458   4.600  14.379   3.409  0.0365 -0.4965 -0.2940
11325W        W27459  13.117  10.945   1.937  0.5002 -0.2301 -0.0729
11326W        W27460  16.871  12.711   3.236  0.1479 -0.0484  0.1074
11327W        W27461   3.376   6.949   2.235  0.2827 -0.0379 -0.4703
11328W        W27462   7.102   1.432  12.744 -0.1101  0.0730 -0.3106
11329W        W27463  18.387  18.865   3.594 -0.3041 -0.3434  0.2342
11330W        W27464  13.092  14.916   0.892 -0.4625  0.1518  0.3071
11331W        W27465   4.367  13.213   1.032  0.0554  0.1511 -0.1952
11332W        W27466   2.856  17.099   2.021  0.2280  0.1165  0.0110
11333W        W27467  16.416   7.089   0.027 -0.2236 -0.2591  0.2488
11334W        W27468  18.523   1.354   9.608 -0.2084  0.1492  0.4221
11335W        W27469  11.230  16.451  12.102  0.1719  0.3582  0.4770
11336W        W27470   1.149   0.263  13.003  0.1706  0.0955  0.0299
11337W        W27471  12.748   5.238  10.814 -0.0865  0.0844  0.0485
11338W        W27472   1.458   9.339   1.969 -0.2149 -0.2904  0.1144
11339W        W27473   5.740   2.982   4.541  0.0882  0.2669  0.0268
11340W        W27474  12.770  13.471   4.571 -0.0427  0.0620 -0.0687
11341W        W27475   5.007   4.160   0.116 -0.1530 -0.0257  0.1799
11342W        W27476   7.809  15.560   4.776  0.0461  0.2539  0.0524
11343W        W27477   7.163   4.883   2.603  0.4019  0.0095 -0.2282
11344W        W27478  15.664  14.105   1.527 -0.0687 -0.0082  0.0951
11345W        W27479   5.971  18.313   3.587 -0.5326 -0.0511  0.0654
11346W        W27480   2.011  13.250   4.184 -0.3671 -0.2684 -0.1022
11347W        W27481   6.231   5.676   1.804  0.2232 -0.0078  0.0602
11348W        W27482   0.864  12.821  13.810 -0.1574 -0.4018 -0.1832
11349W        W27483  10.153  11.491  12.549 -0.2137  0.5549 -0.0510
11350W        W27484  15.125  16.257   0.963 -0.1460 -0.0108  0.0191
11351W        W27485  10.120  17.811   4.466 -0.1651 -0.3288 -0.1675
11352W        W27486   6.141   1.506   2.810  0.0703 -0.1880 -0.1097
11353W        W27487  12.929   2.188   4.348  0.2163 -0.1732  0.2138
11354W        W27488   2.189   8.483   3.501  0.4091  0.1948  0.1434
11355W        W27489   7.089  13.705   0.091 -0.0485  0.0972 -0.0409
11356W        W27490  13.052   6.573  11.194  0.0146  0.2387  0.0085
11357W        W27491   3.691  10.885   0.687 -0.2050  0.2491 -0.0675
11358W        W27492  11.988  17.725  12.119 -0.1191  0.4240 -0.0858
11359W        W27493   4.387   1.156   4.397  0.2310 -0.0732 -0.0095
11360W        W27494  17.397   3.871   1.998 -0.2825 -0.2308 -0.0144
11361W        W27495   7.557   8.490  14.045 -0.0249  0.0152  0.0244
11362W        W27496   8.607   8.637   2.889  0.0955 -0.2852  0.0012
11363W        W27497   9.279   2.587   4.453  0.3467  0.1092  0.2663
11364W        W27498  18.828  14.039   0.904 -0.2497 -0.2967 -0.1658
11365W        W27499   8.358  14.212   4.056  0.0944 -0.1815  0.1863
11366W        W27500   6.317   4.437   5.101  0.0395  0.2328 -0.0081
11367W        W27501   0.150   8.430  13.511  0.1685 -0.0177 -0.1182
11368W        W27502  15.634   9.816  12.270  0.0936 -0.0471  0.0456
11369W        W27503  11.886  12.604  11.959 -0.3502 -0.2369  0.0855
11370W        W27504   5.924  14.914  14.080 -0.0356 -0.1595 -0.4282
11371W        W27505   4.427   1.870  13.885 -0.0858 -0.3845 -0.0314
11372W        W27506   2.435   4.062   2.354  0.0917 -0.1526  0.3286
11373W        W27507   7.592  13.063   0.798  0.3115  0.1522 -0.2187
11374W        W27508  17.699  17.192   1.546  0.2136  0.0996 -0.2327
11375W        W27509  12.554   1.693  14.668 -0.1633 -0.0908  0.1843
11376W        W27510   1.452   7.961  13.380 -0.1512 -0.1902  0.0914
11377W        W27511   5.232  12.817   2.006 -0.1085 -0.0278 -0.1155
11378W        W27512  17.282  16.514   9.549  0.0563 -0.0513  0.2024
11379W        W27513  16.243  13.616   3.129 -0.5488 -0.1159 -0.2133
11380W        W27514   3.108   0.147  12.983 -0.0981  0.3264  0.0142
11381W        W27515   5.463  11.443   5.293 -0.1263 -0.1557  0.0528
11382W        W27516  15.544   6.558  14.615 -0.0560  0.1384  0.0397
11383W        W27517  11.756   0.417   3.691 -0.1378 -0.0126  0.2231
11384W        W27518  12.659  19.024  14.217 -0.1905 -0.4403  0.1045
11385W        W27519  16.068  19.065   2.424  0.1173 -0.2654  0.0426
11386W        W27520   6.748  18.779   0.246 -0.1756 -0.1816 -0.1445
11387W        W27521  13.037   0.438   2.601 -0.1665  0.1201  0.0264
11388W        W27522  13.879  17.946  12.726  0.3292 -0.1819  0.2262
11389W        W27523   5.984   2.056   3.783  0.0334  0.1925  0.2048
11390W        W27524   3.796   5.533  12.641 -0.0178 -0.3987  0.1243
11391W        W27525   1.586  13.655  13.113 -0.0407 -0.1271 -0.2428
11392W        W27526   8.561  11.945   4.370  0.1658  0.2008 -0.3092
11393W        W27527   2.792  19.178   0.888 -0.2053  0.3467 -0.1302
11394W        W27528   1.438  13.324   4.861 -0.2995 -0.1937 -0.2319
11395W        W27529   3.890  13.504  12.397  0.2430  0.3081 -0.0815
11396W        W27530  17.757  14.655  11.009 -0.0841  0.3262 -0.1942
11397W        W27531   7.692  19.040   4.448 -0.0910  0.1927  0.1497
11398W        W27532   8.690  16.957  10.633 -0.2948 -0.3784 -0.0486
11399W        W27533   2.116   8.681  11.449 -0.1770 -0.0820  0.1461
11400W        W27534   4.611   3.808  11.814 -0.3956  0.1357  0.2298
11401W        W27535  17.275  12.580  14.386 -0.0522 -0.2754 -0.3864
11402W        W27536  12.431   4.511   1.080 -0.0511  0.0661  0.0635
11403W        W27537  17.399  12.627   1.001  0.2291  0.0483  0.0153
11404W        W27538   3.872   1.896  10.410  0.0625  0.4550  0.0595
11405W        W27539  18.282  16.348  14.871 -0.1682  0.3194  0.0668
11406W        W27540  16.478  14.576   1.199  0.1269 -0.0131  0.0361
11407W        W27541  13.049   7.824   3.864  0.2500 -0.3240 -0.4568
11408W        W27542  17.670  10.488   4.095  0.0712 -0.0135 -0.4428
11409W        W27543   3.572  16.773  14.737 -0.0723  0.0994 -0.0649
11410W        W27544  17.461   1.283  11.374 -0.2322  0.0149  0.0759
11411W        W27545   2.117   2.819   5.077  0.3233 -0.0498 -0.1144
11412W        W27546  17.895  16.679   0.563  0.0840  0.2983 -0.0892
11413W        W27547   8.084  18.753  10.311  0.0758 -0.0131 -0.0160
11414W        W27548   0.423  11.090  11.055 -0.1293 -0.2378 -0.0365
11415W        W27549  10.263  17.776  13.573 -0.0555 -0.0191 -0.0785
11416W        W27550  13.790   2.799  12.087  0.0184  0.1471  0.1661
11417W        W27551  10.598   7.945   0.739  0.1923 -0.0647 -0.1344
11418W        W27552  18.047   3.130  11.034 -0.1286  0.1922  0.0809
11419W        W27553  14.455   4.554  10.868  0.0896 -0.1988  0.2280
11420W        W27554  16.913  15.792   2.495  0.0055  0.0170 -0.0355
11421W        W27555   4.036   2.116  11.791 -0.0054 -0.1228  0.1563
11422W        W27556   1.061   7.158   0.378 -0.0881 -0.3027  0.1017
11423W        W27557   5.569   1.873  14.295  0.6641  0.0282 -0.1243
11424W        W27558   9.015   1.425  12.153 -0.1710 -0.0934  0.0133
11425W        W27559  14.520  14.215   3.232  0.0421 -0.1670  0.0608
11426W        W27560  15.571   1.381  10.858  0.0891 -0.1074 -0.1632
11427W        W27561  16.282   9.037   2.241  0.1689 -0.1172  0.0252
11428W        W27562   3.998   5.515   9.958  0.3102 -0.1450 -0.0487
11429W        W27563  11.301   3.726  12.989  0.1896  0.0433 -0.3399
11430W        W27564   8.092   1.281  13.765 -0.0040 -0.1395  0.0174
11431W        W27565  13.071  17.840  13.293 -0.0423  0.0199 -0.2012
11432W        W27566   6.253  14.448   2.228  0.0397 -0.0494 -0.0495
11433W        W27567  16.761   8.161   0.131  0.4264  0.2475  0.1464
11434W        W27568   2.571  10.456  14.417 -0.1041  0.2029 -0.1082
11435W        W27569  14.303  12.248   2.264  0.1359 -0.2462  0.0273
11436W        W27570   3.548  15.040   0.450 -0.1441 -0.0947  0.3604
11437W        W27571   9.565  16.297  11.299  0.0301  0.0695 -0.0348
11438W        W27572   0.747   8.216   1.495  0.0866  0.2215  0.1040
11439W        W27573  15.758   1.163   0.800  0.0349 -0.0997  0.1778
11440W        W27574  12.500   4.734   2.251 -0.0567 -0.1032  0.3056
11441W        W27575   6.076  17.048   0.578  0.1396 -0.1722  0.2452
11442W        W27576  13.525   1.335   1.775 -0.1191  0.4833  0.3990
11443W        W27577  14.113   5.717  14.576 -0.2095 -0.1611 -0.2230
11444W        W27578   5.329   2.210   4.472 -0.1929 -0.0003 -0.1137
11445W        W27579  11.485  15.151  10.691  0.4212  0.1007  0.0087
11446W        W27580   8.817   3.541  11.755  0.3960 -0.1564 -0.1706
11447W        W27581   7.090  18.041   5.150 -0.0443 -0.1831 -0.0128
11448W        W27582  15.317   1.533  10.396  0.1095  0.2097  0.1209
11449W        W27583  11.043   3.123  13.824  0.1329  0.1932 -0.3372
11450W        W27584   8.352   6.612   4.322 -0.0135  0.2779 -0.1425
11451W        W27585   8.107   2.319  12.369  0.3743 -0.1367 -0.2154
11452W        W27586  12.597   7.675  11.336  0.0144 -0.1476  0.3077
11453W        W27587  16.962   7.058  13.712 -0.0963 -0.0146  0.0730
11454W        W27588  16.465  17.698  11.531 -0.0337 -0.4241 -0.2561
11455W        W27589   2.726  17.358  11.966 -0.1278  0.1615 -0.0911
11456W        W27590   6.671  15.001  11.822 -0.0561 -0.1880  0.0328
11457W        W27591  16.560   2.267  11.264  0.1393  0.1616  0.1994
11458W        W27592   7.250  16.021  10.791 -0.0865 -0.3132 -0.2846
11459W        W27593   6.723  18.428   3.242 -0.0859 -0.2138 -0.1523
11460W        W27594  16.715  14.054  14.426 -0.0207 -0.0672  0.1103
11461W        W27595  14.745  13.341   5.122  0.0097  0.0476 -0.0220
11462W        W27596   3.950   3.966  14.996  0.2493 -0.3208 -0.3088
11463W        W27597  12.070   8.746   2.483  0.0048 -0.0473 -0.1081
11464W        W27598   1.263   8.660  11.131 -0.1180 -0.1749  0.1539
11465W        W27599   9.093   8.785   9.747 -0.1721 -0.1528 -0.0956
11466W        W27600  18.750  11.790   2.851 -0.0595 -0.2418  0.2173
11467W        W27601   2.057  18.655  12.135  0.0926 -0.2262 -0.1807
11468W        W27602  13.363  10.953   4.697  0.2645 -0.1356  0.0552
11469W        W27603  16.680  14.012   3.327 -0.0422  0.0031  0.2736
11470W        W27604   3.739  13.599   2.792 -0.2851 -0.0479 -0.0984
11471W        W27605   4.219  13.607  14.150  0.0640  0.1550 -0.3356
11472W        W27606   7.857  11.373   1.145  0.4859 -0.0200 -0.2038
11473W        W27607  12.371   0.782   0.592 -0.2308  0.1716 -0.1842
11474W        W27608  13.326   9.313   1.464  0.1624  0.1417 -0.0904
11475W        W27609   1.801  10.802   4.706 -0.0167  0.3065 -0.0239
11476W        W27610   6.395   5.963  13.875  0.2631 -0.0789 -0.0381
11477W        W27611  14.860   1.856  12.668  0.2371 -0.1414 -0.0679
11478W        W27612   4.928  10.210   0.958 -0.2100 -0.0461  0.1245
11479W        W27613  16.654  14.994  14.795  0.0358 -0.0548  0.0856
11480W        W27614   1.242   8.251  11.532 -0.1998 -0.1079 -0.2063
11481W        W27615   9.033  18.570   2.694  0.4540  0.0735 -0.2830
11482W        W27616   7.153   4.124   1.585 -0.2766 -0.0033 -0.2950
11483W        W27617   4.104   6.263   0.274  0.0331 -0.0597 -0.3453
11484W        W27618  11.266  18.676  12.549 -0.3434  0.1572  0.1199
11485W        W27619  11.381  14.740  10.215 -0.1991  0.0883  0.0217
11486W        W27620  13.248   2.587   4.156  0.3776 -0.1794 -0.1943
11487W        W27621   4.494  16.324   1.709  0.0984  0.1220 -0.0982
11488W        W27622   3.576   7.884  10.756  0.1263  0.0945  0.1640
11489W        W27623   8.942  12.533  13.724  0.0498  0.1275  0.2125
11490W        W27624  13.299   5.263   1.517 -0.0058 -0.0645 -0.0153
11491W        W27625  13.810   2.049  14.812 -0.1126  0.4085  0.0469
11492W        W27626  11.551   0.999   1.507 -0.2526 -0.0018  0.0008
11493W        W27627  10.311  14.024  14.239 -0.0530  0.0499  0.3354
11494W        W27628   6.897  17.859   2.444 -0.0344  0.0131 -0.2315
11495W        W27629   7.213  17.895  12.306  0.2227  0.1241 -0.3192
11496W        W27630  18.702   3.612   4.740  0.1382 -0.2988  0.2966
11497W        W27631  17.283  16.952   2.576 -0.1163 -0.1184  0.1584
11498W        W27632   3.212   0.243  10.968  0.0275 -0.0609  0.0372
11499W        W27633   8.705   2.009   1.735 -0.1241  0.2053 -0.1565
11500W        W27634   4.742  13.148   5.732  0.0782 -0.1857 -0.2566
11501W        W27635   5.504   2.762  11.587  0.0134 -0.0935  0.3200
11502W        W27636   3.081   7.354  14.142  0.0880  0.5075 -0.0411
11503W        W27637   6.317  11.875   3.169 -0.1741 -0.0638  0.1930
11504W        W27638   0.352   4.014   0.251  0.0160  0.0392  0.1444
11505W        W27639  17.491  18.721   4.078  0.0345 -0.1838 -0.0032
11506W        W27640   9.063  10.917   5.368  0.0918  0.0630 -0.2270
11507W        W27641  14.141  10.818   2.836  0.1178 -0.1842 -0.0370
11508W        W27642   8.140   1.556  11.481  0.1605 -0.0137  0.0602
11509W        W27643  18.274  18.808  13.497 -0.0109  0.0562 -0.1727
11510W        W27644  14.213  18.253  11.765 -0.0844  0.0761  0.2605
11511W        W27645  17.278   1.541   2.577  0.0691  0.3109 -0.2019
11512W        W27646  18.977  16.207  14.236 -0.0597 -0.0250 -0.2955
11513W        W27647   8.272  19.164   2.646 -0.0810  0.0539 -0.2180
11514W        W27648   6.572   5.206  12.229 -0.4020  0.1185  0.0659
11515W        W27649   2.990   3.519  14.728 -0.1299 -0.3817  0.3502
11516W        W27650   7.258  13.586   2.708 -0.0581 -0.0085  0.1747
11517W        W27651   2.877  10.673   2.760 -0.2611  0.0035  0.5905
11518W        W27652  11.736   6.166   4.950 -0.1441  0.0972  0.1427
11519W        W27653   0.520  11.594   2.601 -0.1515 -0.2013  0.0862
11520W        W27654  11.277   0.301   2.285  0.0268  0.0280  0.2338
11521W        W27655   3.668   8.442   0.887 -0.1488 -0.0649  0.0133
11522W        W27656   8.860   5.252   4.364 -0.0223  0.0492  0.3169
11523W        W27657   9.432   5.837   4.261 -0.2929 -0.1353 -0.1331
11524W        W27658   0.627  19.255   3.909 -0.1516 -0.0047 -0.2581
11525W        W27659   5.008   1.087   5.188  0.2728 -0.0544 -0.1965
11526W        W27660   8.237   1.705  13.673 -0.2255 -0.1776  0.0205
11527W        W27661   7.095  13.949  10.939 -0.3009  0.1565 -0.0322
11528W        W27662   5.058   8.933   0.682 -0.2023  0.2490  0.0538
11529W        W27663   6.384   9.688   2.439  0.2321  0.1386  0.2779
11530W        W27664  16.076   6.891  11.105 -0.1447 -0.1389  0.0928
11531W        W27665  15.696  15.138   1.259 -0.3094 -0.3294 -0.1957
11532W        W27666  14.942   6.546   1.635 -0.0634 -0.0822 -0.1799
11533W        W27667  17.498   1.737  12.993 -0.2525 -0.0331  0.1209
11534W        W27668  17.849  12.269   4.038  0.0555  0.3435  0.0147
11535W        W27669  13.926  12.057   9.686 -0.3882 -0.2898  0.3914
11536W        W27670  12.111   9.683  12.270 -0.0134 -0.1308 -0.0411
11537W        W27671  12.853  15.689   2.671  0.2784 -0.1458  0.0338
11538W        W27672  17.961   8.284  13.908  0.2889  0.0177  0.1031
11539W        W27673  14.445   0.728   3.542  0.2959  0.1448 -0.0331
11540W        W27674  12.717   3.484   9.641 -0.1440  0.1907  0.0270
11541W        W27675  19.133  13.482   3.732  0.0655  0.2234  0.3167
11542W        W27676  18.841   8.856  14.501  0.1792  0.1442  0.0075
11543W        W27677  18.352  10.906   0.102  0.1414  0.2661  0.2373
11544W        W27678   2.686   6.081   4.215  0.1392  0.0652 -0.3175
11545W        W27679   7.451   6.333  10.509 -0.1191  0.0924 -0.0403
11546W        W27680  15.787  12.281  14.660 -0.1066  0.1033  0.1214
11547W        W27681  10.956  17.452   3.180  0.1633  0.2119 -0.1169
11548W        W27682   6.572  13.108  13.039 -0.0465 -0.1008  0.2352
11549W        W27683  11.275   7.180   3.945  0.0820  0.0783 -0.2406
11550W        W27684   0.768  12.887   1.734  0.2156  0.1922 -0.0353
11551W        W27685   4.967   8.584   1.490 -0.3387  0.0043  0.1424
11552W        W27686  14.735   4.969   0.863  0.2535 -0.0316  0.0641
11553W        W27687  10.077  13.372  12.986 -0.1633 -0.0752  0.1346
11554W        W27688   5.299   9.944  10.564 -0.2218  0.1903  0.2498
11555W        W27689  16.974  15.116   0.208  0.1769 -0.2381 -0.1445
11556W        W27690  12.080  17.478  11.073  0.1171  0.0721 -0.2921
11557W        W27691   2.482   8.234   1.223 -0.0971  0.0973 -0.1475
11558W        W27692  11.981  11.555  11.435  0.0533  0.2132  0.0085
11559W        W27693   8.689  16.923   2.638 -0.0193 -0.1090  0.1955
11560W        W27694  12.471   2.248  14.787  0.1473  0.2498 -0.2654
11561W        W27695   1.177   0.276  11.498 -0.0696 -0.2375  0.0298
11562W        W27696   4.915   2.814  11.534  0.0307 -0.1544  0.3170
11563W        W27697   4.821  10.328   4.639 -0.1480  0.0752 -0.2906
11564W        W27698   5.489  14.929  14.443  0.2099  0.1514 -0.0142
11565W        W27699  16.456   4.757   1.441  0.0555  0.3008 -0.1175
11566W        W27700   6.399  17.495   2.535  0.1223 -0.1213  0.0899
11567W        W27701   0.341  12.518  11.279  0.0688 -0.0852 -0.0718
11568W        W27702   3.844  12.690   1.313  0.1410 -0.4061 -0.3993
11569W        W27703   5.395  17.290  13.685 -0.1740 -0.1772 -0.1464
11570W        W27704   8.639   6.859  10.500 -0.2260  0.0333 -0.0077
11571W        W27705   1.625   4.666   4.232 -0.1144 -0.0583  0.1190
11572W        W27706  16.879  12.468  13.957  0.1610  0.3430 -0.2724
11573W        W27707  17.971   8.466   2.505 -0.3707 -0.0988  0.1624
11574W        W27708   4.379  11.165   0.055 -0.1209  0.0898 -0.1462
11575W        W27709   1.384   8.177  12.334 -0.0555  0.0779 -0.2661
11576W        W27710   5.305   3.697  11.353  0.0100 -0.1856  0.0828
11577W        W27711  11.382  13.557   4.145 -0.2352  0.1809 -0.0504
11578W        W27712  12.677   7.221   5.155  0.3854  0.1963  0.2037
11579W        W27713  12.736   2.795   1.880 -0.1760  0.1232 -0.0016
11580W        W27714   3.424  13.001   1.544  0.3962 -0.1112 -0.0820
11581W        W27715  15.605  11.008   2.102 -0.2410  0.1073 -0.2372
11582W        W27716  12.023   0.332  14.634 -0.2784  0.0177  0.1063
11583W        W27717   5.462  16.216  13.323  0.1978  0.1273  0.0315
11584W        W27718   9.455  19.176   3.341 -0.0360 -0.1607  0.1273
11585W        W27719  12.500   9.767   2.064 -0.0076  0.3304  0.1969
11586W        W27720   8.706   3.146  11.510 -0.2844  0.1196  0.0675
11587W        W27721  16.351   7.899   2.309  0.0116  0.2648 -0.1266
11588W        W27722   3.118   2.735  11.973 -0.0444  0.0296 -0.0610
11589W        W27723   7.427  13.807   0.650 -0.0624 -0.0275 -0.1863
11590W        W27724   9.510   9.978   3.626 -0.1283  0.1993  0.0047
11591W        W27725   0.514   4.030   3.668  0.0719 -0.0890  0.2176
11592W        W27726  15.864  16.515  12.715  0.3169  0.0544  0.0641
11593W        W27727   5.737   9.489   1.058 -0.2215 -0.1985 -0.0476
11594W        W27728  18.713   6.434   5.809 -0.1846  0.0761 -0.0313
11595W        W27729   8.076  15.050  11.913 -0.0752 -0.1518 -0.0600
11596W        W27730   2.820   5.532  13.140  0.0557 -0.0534 -0.1243
11597W        W27731   3.894   1.332  12.153  0.2898 -0.2219  0.1293
11598W        W27732  16.680  14.577  12.674  0.0987  0.0169  0.0313
11599W        W27733   5.429   8.971   5.018 -0.5457 -0.1115 -0.1229
11600W        W27734  12.839   2.809   3.557  0.2580 -0.2690  0.0256
11601W        W27735   0.932   8.586  14.584  0.2266  0.0295  0.0029
11602W        W27736   4.492   0.580  14.270  0.2333  0.3151 -0.0644
11603W        W27737  12.278  19.285   1.270 -0.3953 -0.1652  0.1598
11604W        W27738  18.277  12.733  11.108  0.0143  0.2293  0.2394
11605W        W27739  15.399  11.281  13.768 -0.1853  0.1972  0.1113
11606W        W27740   6.309  11.353  12.110 -0.2058  0.1226  0.0881
11607W        W27741   3.577  16.226  14.454  0.2354  0.1870 -0.3322
11608W        W27742  17.921   9.852   2.793  0.1329 -0.1213 -0.0295
11609W        W27743  13.984  17.091   0.813 -0.3780  0.0558  0.1949
11610W        W27744  11.255  14.234   0.198  0.0821 -0.1609 -0.1647
11611W        W27745   6.350  15.916  13.395  0.2835  0.4776  0.0764
11612W        W27746  12.766   1.499   0.635  0.0393  0.0696 -0.2538
11613W        W27747  18.580   8.237   4.116 -0.5621  0.1638 -0.1895
11614W        W27748   1.750   0.461   3.871 -0.0650 -0.0464 -0.2137
11615W        W27749  18.327   3.448   3.328 -0.3372 -0.0116  0.4011
11616W        W27750   0.751   8.051  12.640 -0.1406  0.0717  0.0444
11617W        W27751   6.370   7.841  14.418  0.0351  0.3396  0.0280
11618W        W27752  12.018  19.153   2.058 -0.1924 -0.0753 -0.0070
11619W        W27753   7.373  15.819  13.081  0.1686  0.3486  0.2554
11620W        W27754   9.822  14.617  13.096  0.1464 -0.2686  0.2056
11621W        W27755   7.286  11.935   3.196 -0.1773  0.1681  0.0499
11622W        W27756   7.497  14.249  10.405  0.0585 -0.2003 -0.2006
11623W        W27757  18.084  13.692  12.294  0.1388 -0.0322  0.0009
11624W        W27758   7.437   7.350   2.757  0.1107  0.1369  0.1224
11625W        W27759   2.803   0.578  13.205  0.2510  0.0725 -0.2258
11626W        W27760  17.418   3.226   4.392 -0.0424  0.1892  0.2399
11627W        W27761   7.973   8.285  13.129  0.1459 -0.0419 -0.1459
11628W        W27762   5.701  18.199  12.318 -0.2026 -0.2925  0.0305
11629W        W27763   0.848  19.038  12.522  0.2347 -0.1108  0.1190
11630W        W27764   4.563  13.522   2.781 -0.4874 -0.1117  0.0597
11631W        W27765   4.967  12.014  14.105 -0.1061 -0.0130 -0.0467
11632W        W27766   0.902  18.800   3.970  0.0277 -0.4075 -0.2375
11633W        W27767   8.872   4.846   2.886  0.0172  0.3692 -0.0048
11634W        W27768   6.858   5.341  13.928  0.0251  0.0658 -0.1025
11635W        W27769  11.481  17.906  13.463 -0.2093 -0.1044  0.0072
11636W        W27770  17.264   6.821  11.020 -0.0244  0.2553 -0.0962
11637W        W27771   1.383  16.306  11.255  0.0396  0.3499  0.2111
11638W        W27772   7.987  19.309   2.074  0.1285  0.6219 -0.0187
11639W        W27773   7.769  16.363   0.863  0.1007  0.1774 -0.0941
11640W        W27774  18.656  14.025  14.187 -0.1686 -0.2182  0.0599
11641W        W27775   4.490   3.874   0.091 -0.0747  0.2097 -0.2722
11642W        W27776   0.583  18.468  10.640  0.0915 -0.1121  0.0900
11643W        W27777   7.796  11.892   3.454 -0.0374 -0.3742  0.1653
11644W        W27778   3.204   1.919   0.806 -0.0898 -0.0460 -0.1076
11645W        W27779   7.372   1.500   2.900  0.0721 -0.0419  0.1795
11646W        W27780  11.620  16.817  11.868  0.3741  0.0360 -0.2376
11647W        W27781   8.288  16.567   2.466 -0.0305 -0.2757  0.3816
11648W        W27782   8.586   0.065   1.524  0.1586  0.1148 -0.0808
11649W        W27783  14.809   2.105   4.292  0.1877 -0.0570 -0.4672
11650W        W27784  19.081   3.353   1.537 -0.0012 -0.1499 -0.2599
11651W        W27785  14.036   6.398   3.684  0.0130  0.2970  0.2825
11652W        W27786  10.733  17.691   5.522  0.1257  0.0509 -0.0040
11653W        W27787   5.007  14.546   1.627 -0.2522  0.0569 -0.1217
11654W        W27788  16.700  16.571   4.647 -0.0584 -0.3992 -0.0355
11655W        W27789  15.010   4.230  11.919  0.4232 -0.0249  0.1162
11656W        W27790   4.138  13.804  14.656  0.1486  0.3756  0.0264
11657W        W27791  15.504   4.765   9.484 -0.0993  0.1979 -0.1633
11658W        W27792  11.893  12.677  14.161 -0.3969  0.2639  0.0515
11659W        W27793   5.299   1.346  14.783  0.1978 -0.0284 -0.0941
11660W        W27794   0.074   9.670  14.747  0.1847 -0.0938  0.0308
11661W        W27795   2.104  15.843   3.605 -0.2209  0.1691 -0.2385
11662W        W27796  14.794  16.668   0.591 -0.0777  0.4120 -0.0255
11663W        W27797   9.811   5.810   5.244 -0.2831  0.0444 -0.0370
11664W        W27798   2.388  12.483   5.326  0.3698 -0.0997 -0.0828
11665W        W27799   8.978  13.608   1.490  0.1888  0.0531  0.2535
11666W        W27800  17.023   0.228   0.396 -0.1160  0.1488  0.2838
11667W        W27801  15.044  10.728   4.364 -0.0776  0.3263 -0.0355
11668W        W27802   3.169   2.768  14.137 -0.0316  0.1170 -0.1854
11669W        W27803   4.241  14.965  13.948 -0.2471  0.0704  0.2242
11670W        W27804  17.857   9.249   3.161 -0.4781  0.1338 -0.2995
11671W        W27805   6.507   9.227   3.503  0.1328 -0.1951  0.1340
11672W        W27806   7.476  12.274  11.088 -0.6593  0.0961  0.1723
11673W        W27807   3.852  15.934  11.479 -0.0858  0.3612  0.2051
11674W        W27808  17.075   7.958  11.058  0.2476 -0.0852  0.4429
11675W        W27809  11.716  14.937  11.075  0.1820  0.2912  0.0812
11676W        W27810   6.295  16.512   0.872 -0.0651  0.2129 -0.1448
11677W        W27811   0.703   5.958   3.692 -0.1082 -0.3125  0.1219
11678W        W27812   5.975   7.894   5.027 -0.0969 -0.1796  0.1349
11679W        W27813  14.950  18.647   3.515 -0.0053  0.0477 -0.2171
11680W        W27814   7.401  10.561   1.144 -0.0707 -0.2907  0.0349
11681W        W27815   7.036  12.001  12.784 -0.1829 -0.2150  0.1996
11682W        W27816   6.431  12.419   4.236 -0.1441  0.3640 -0.2608
11683W        W27817   3.157   3.710  10.387  0.0369  0.0392  0.2386
11684W        W27818  16.794  17.712  12.586 -0.1639 -0.1543  0.1766
11685W        W27819   9.971   0.556  11.221 -0.0179 -0.0468 -0.0219
11686W        W27820   5.756   1.218  13.444  0.0266 -0.1023  0.0153
11687W        W27821   8.723  13.493  14.967 -0.2203 -0.0047  0.1467
11688W        W27822   1.816   1.046   0.560  0.1757 -0.0214  0.0158
11689W        W27823   8.450  12.726   0.092  0.1843  0.0625 -0.0588
11690W        W27824  13.010  16.738   1.282  0.1264 -0.1637 -0.3193
11691W        W27825   8.713  19.064  10.942 -0.4703 -0.1164  0.1958
11692W        W27826   9.208   7.095  14.050 -0.0272 -0.0713 -0.0301
11693W        W27827  15.972   9.577  13.003  0.0905 -0.1872  0.2323
11694W        W27828   6.732  12.396   3.818  0.2370  0.2330  0.1024
11695W        W27829   1.479   7.631   3.508  0.2259 -0.3499  0.0944
11696W        W27830  13.509   0.052   2.427 -0.0033  0.2775 -0.2634
11697W        W27831   6.059   9.101  12.363 -0.2159  0.0190 -0.0889
11698W        W27832  12.871  12.727   4.418  0.0522  0.3707 -0.1920
11699W        W27833   5.351  18.125   0.861  0.0965  0.0853  0.0771
11700W        W27834   4.383   6.275  14.876 -0.1277 -0.0521  0.1776
11701W        W27835   2.571   1.755  14.767 -0.0556  0.0837 -0.2787
11702W        W27836   4.450   6.766   4.829 -0.0764 -0.1112  0.1933
11703W        W27837  13.718  15.550  10.516 -0.2395 -0.0217 -0.1451
11704W        W27838  10.919   7.513   0.823  0.0846  0.1200  0.0627
11705W        W27839   3.862   4.468  10.453 -0.0757 -0.1943  0.2090
11706W        W27840  12.672  13.745  11.594  0.0151  0.3697  0.0189
11707W        W27841   2.791   2.752   0.441  0.2729 -0.0516 -0.1772
11708W        W27842   4.526  14.487  13.949  0.2188  0.1762 -0.0232
11709W        W27843  10.601   3.139   1.508  0.0032  0.1551 -0.4459
11710W        W27844   2.642  16.194  10.061  0.3145 -0.2077  0.1110
11711W        W27845  17.611   1.467  10.890  0.0905 -0.0588 -0.2001
11712W        W27846  14.499   8.461  10.705 -0.1420  0.3038  0.1377
11713W        W27847  15.500   9.211   2.307  0.1268  0.5052  0.0295
11714W        W27848   1.152  10.675   1.933  0.1384  0.3189 -0.3484
11715W        W27849  16.775  15.918   4.182  0.1194  0.1529 -0.0015
11716W        W27850   1.522  11.891   1.209  0.0523 -0.2285 -0.1753
11717W        W27851   1.930   4.214   2.434 -0.0616 -0.0587  0.0369
11718W        W27852  13.738   9.763  13.730 -0.2227  0.1944 -0.2581
11719W        W27853  13.302  12.523   4.575 -0.1970 -0.1066 -0.0540
11720W        W27854   8.007  14.890  11.366 -0.1298 -0.2284  0.1595
11721W        W27855  16.523  13.072   1.138 -0.0288 -0.2611  0.3111
11722W        W27856   0.936  13.918  12.903 -0.0721 -0.0242  0.1892
11723W        W27857  11.638   4.538  10.780 -0.2626 -0.1205  0.0303
11724W        W27858   7.096  10.034  14.333  0.1225 -0.1039 -0.1144
11725W        W27859   0.570   2.115   3.550  0.0074 -0.1188  0.0515
11726W        W27860   0.868   0.100   2.145 -0.0962 -0.0081  0.3107
11727W        W27861   7.169  17.710   1.108  0.0114 -0.0195 -0.1555
11728W        W27862  13.640  15.576  14.242  0.3947  0.3310 -0.1743
11729W        W27863  18.381  16.772   3.743 -0.1530 -0.0408  0.0351
11730W        W27864  10.155   1.737   2.091  0.1449 -0.1406  0.0861
11731W        W27865   9.592  14.910   0.679 -0.0391  0.1847 -0.1099
11732W        W27866  13.197  19.067  10.858  0.2248 -0.0894 -0.0651
11733W        W27867  12.649   5.297   2.959  0.0790 -0.1600 -0.1429
11734W        W27868  18.308   6.672  14.019  0.0217  0.3491 -0.0091
11735W        W27869  17.151  14.312   2.246  0.1776  0.1424 -0.2871
11736W        W27870  12.824  15.770  11.668  0.0709 -0.3073  0.3770
11737W        W27871  10.034   9.669  10.962  0.2573  0.2143  0.0196
11738W        W27872   9.238  14.522   4.427 -0.0749 -0.1341  0.0925
11739W        W27873  10.230   0.468   5.230  0.1019  0.1199 -0.1767
11740W        W27874  18.159   8.220  12.961 -0.1834  0.2097  0.1908
11741W        W27875   4.478  16.740  13.743  0.2489 -0.0188 -0.0497
11742W        W27876   1.641  10.094  13.835 -0.3800  0.1847  0.0120
11743W        W27877   4.384   5.126  11.269 -0.2761 -0.1577 -0.1187
11744W        W27878   8.093   2.539  14.358  0.2286 -0.1742  0.2266
11745W        W27879  19.247   3.282   3.293 -0.1664 -0.0836  0.0705
11746W        W27880  14.538   4.554   2.681  0.1693  0.2294 -0.1320
11747W        W27881  10.706  13.503   4.665 -0.1516 -0.3293  0.3613
11748W        W27882   9.016   0.371   0.109  0.2760 -0.0085  0.1079
11749W        W27883   1.997   2.633  11.647 -0.2286 -0.1712  0.1232
11750W        W27884  12.720  10.821  10.226  0.1044  0.1627  0.1280
11751W        W27885   3.803   7.244  13.408  0.0009  0.1355 -0.1990
11752W        W27886  14.801  19.244  13.572  0.2907 -0.4357 -0.0462
11753W        W27887  13.407  16.979  11.320  0.3998  0.2311 -0.0626
11754W        W27888  15.902   9.822  14.489  0.1168  0.1741  0.1399
11755W        W27889  18.737  15.420   3.175  0.1001  0.1875 -0.0324
11756W        W27890  12.725   3.443   2.095  0.0236  0.0437  0.0996
11757W        W27891   9.140  16.560   0.221 -0.0083 -0.0083 -0.0874
11758W        W27892   7.065   7.329   0.956 -0.2040  0.0942  0.1019
11759W        W27893   2.542  10.130  11.333 -0.0734  0.0010  0.2500
11760W        W27894  14.875  14.975  12.919 -0.0046 -0.0995 -0.0792
11761W        W27895   4.237   4.914   1.714  0.1518 -0.2665 -0.4053
11762W        W27896   1.373  13.816  12.579  0.2791  0.1800 -0.1330
11763W        W27897  19.075   6.577   2.949 -0.2273  0.3130 -0.3431
11764W        W27898  13.056  18.044  10.284 -0.0182  0.1918 -0.0726
11765W        W27899  11.671  17.582  12.568  0.3491 -0.1380  0.1774
11766W        W27900   2.465   0.215   0.800 -0.1632  0.0332  0.0292
11767W        W27901   8.400   2.060  12.776  0.0802  0.3845 -0.1844
11768W        W27902   1.487   0.715  11.139  0.1028  0.0725  0.0404
11769W        W27903   5.655  11.869   5.868 -0.2701 -0.0735  0.0148
11770W        W27904  15.715  13.940  13.700 -0.1985  0.1289  0.0087
11771W        W27905  13.845   6.019   2.077  0.0984 -0.3413  0.1035
11772W        W27906   9.906  10.961  10.331  0.0815 -0.2265  0.1252
11773W        W27907  14.625   2.801  13.937 -0.2075  0.0603 -0.0026
11774W        W27908  11.685  14.455  11.131  0.0761  0.1466  0.2279
11775W        W27909  18.165  13.342   2.876  0.0986 -0.1648 -0.0679
11776W        W27910   1.596  18.375  12.192  0.3274 -0.5003 -0.3452
11777W        W27911   2.387   2.006   3.269  0.0592  0.1910 -0.1759
11778W        W27912  13.703  17.087   0.280 -0.0399  0.1443 -0.0030
11779W        W27913  12.901  17.097   3.200 -0.3862  0.2639 -0.2703
11780W        W27914  17.048   2.734   0.732  0.1742 -0.1586 -0.3194
11781W        W27915  14.390   2.221   1.149  0.2262 -0.0460  0.2653
11782W        W27916  13.029   0.299   3.428  0.1482 -0.0408  0.0887
11783W        W27917   4.771   6.704  13.216  0.2897  0.0197  0.1014
11784W        W27918   9.442  10.707  12.960 -0.3081  0.1422 -0.0274
11785W        W27919   8.611  16.216  14.589  0.1843  0.0368  0.0311
11786W        W27920  14.068   1.763  11.803 -0.3058  0.1366  0.4625
11787W        W27921   0.216  11.902   5.463 -0.1806  0.0224 -0.1828
11788W        W27922   9.752  15.035   4.227 -0.4352  0.0130  0.0445
11789W        W27923  11.070   3.656   1.044  0.0109 -0.0475  0.2591
11790W        W27924  12.791   9.058  12.931 -0.1175  0.0751 -0.0451
11791W        W27925   4.072   6.482  14.467 -0.2841  0.1566 -0.1726
11792W        W27926   8.598   5.015  10.845 -0.2083 -0.3650  0.0970
11793W        W27927   4.623  15.842   1.336 -0.1252  0.1706 -0.3399
11794W        W27928  17.575  13.621   5.845  0.2012  0.2892 -0.0283
11795W        W27929  10.767  10.087  13.345 -0.0462  0.2355 -0.0961
11796W        W27930   5.831  11.472  12.083  0.3793  0.0337  0.0170
11797W        W27931  14.845   1.203   2.420 -0.1125  0.1440 -0.1448
11798W        W27932   7.412   2.410   2.433 -0.0047 -0.1335 -0.1659
11799W        W27933   6.987   8.932  13.283 -0.0295  0.1955 -0.0715
11800W        W27934   6.095   8.193   2.122  0.1657  0.2154 -0.0251
11801W        W27935  18.827  11.007   4.618  0.0072 -0.0044 -0.0982
11802W        W27936   6.814  13.931  12.826 -0.1326 -0.2978  0.0840
11803W        W27937   7.259   3.235   0.114 -0.2055 -0.1557  0.0597
11804W        W27938  14.702   9.247   2.916 -0.1412  0.1547 -0.2306
11805W        W27939   9.258   9.539  12.745 -0.0189 -0.3692  0.1135
11806W        W27940  12.074   8.360  12.880  0.2004  0.2766  0.1076
11807W        W27941   3.502  15.618   4.473 -0.0554  0.1230 -0.0960
11808W        W27942   9.604  10.424  11.263  0.0967  0.2880  0.0456
11809W        W27943   7.708  15.036   1.244  0.0180  0.2561  0.1090
11810W        W27944  13.773   7.384  12.049  0.0345 -0.2180  0.1937
11811W        W27945  19.250   0.537   5.191  0.1556 -0.4312  0.0728
11812W        W27946  18.951  17.667   9.955  0.4328  0.0891  0.2028
11813W        W27947   1.235  11.564   4.490 -0.0118 -0.1287  0.3044
11814W        W27948   9.753  12.841  13.145 -0.0478  0.0955 -0.1858
11815W        W27949   7.074  18.053   1.514  0.0358  0.0048  0.1675
11816W        W27950  12.605  13.303   0.247 -0.0063 -0.1812 -0.1714
11817W        W27951  18.613   5.439   0.109  0.0764 -0.0211  0.3093
11818W        W27952   5.788   0.980  10.478 -0.1636 -0.0359  0.1850
11819W        W27953   0.796   7.363   2.930  0.1077  0.0088  0.0498
11820W        W27954   1.939   7.752  12.588 -0.1784  0.0171 -0.0224
11821W        W27955   4.649  10.638  13.153  0.0837  0.2000 -0.2102
11822W        W27956  13.115  14.020  11.913  0.0441 -0.0313  0.0265
11823W        W27957   5.339  16.175  11.486 -0.1694  0.2262 -0.0855
11824W        W27958  14.143   5.491  11.258 -0.1107  0.1580 -0.0210
11825W        W27959   6.760   4.803  12.518 -0.3095  0.3840  0.1781
11826W        W27960  18.212   2.570   2.286  0.2278  0.0282  0.1244
11827W        W27961   5.884  10.206   9.799 -0.0566 -0.2081  0.0786
11828W        W27962   5.528   0.886  14.813  0.2282  0.1219 -0.1027
11829W        W27963   4.178   8.646   1.878 -0.0834  0.4256 -0.0519
11830W        W27964   7.455  10.081  14.734 -0.0590 -0.0566 -0.0708
11831W        W27965  13.223   1.442  11.991 -0.0613 -0.2365 -0.1083
11832W        W27966   7.506   7.310  10.221  0.0232 -0.0860 -0.4658
11833W        W27967  17.267   9.223  12.961 -0.4808 -0.0379 -0.0179
11834W        W27968   1.877   2.063  11.948 -0.0711 -0.1277 -0.2305
11835W        W27969   3.350   1.235   2.544 -0.2304 -0.1459 -0.0202
11836W        W27970  15.210   2.493   1.807  0.0328 -0.5097 -0.1344
11837W        W27971  11.997   7.496  12.375  0.1495 -0.0552  0.1609
11838W        W27972   3.443   2.892  13.437  0.0505  0.1400  0.0822
11839W        W27973  18.219   5.598   2.292  0.0166 -0.3878  0.1679
11840W        W27974  18.359  17.970   1.109 -0.1707  0.0923 -0.1075
11841W        W27975  15.780   4.800   2.345  0.1557 -0.0926 -0.1243
11842W        W27976   2.098  14.693  11.141  0.2691 -0.1265 -0.1612
11843W        W27977  10.108  12.396  12.261  0.1370  0.1107 -0.0302
11844W        W27978  13.797  11.563  11.259 -0.0652 -0.0839  0.2712
11845W        W27979  11.484   1.385   3.804  0.1973 -0.1554  0.0913
11846W        W27980   1.778   1.329  13.766  0.1225  0.0331 -0.0280
11847W        W27981   2.768  11.275  12.511 -0.1714 -0.1790 -0.1103
11848W        W27982   7.647   7.867  12.174  0.0832 -0.0361  0.1182
11849W        W27983   0.558  12.312   1.913  0.0601 -0.1389 -0.1190
11850W        W27984  18.820  16.301  10.778 -0.0076 -0.0560 -0.1533
11851W        W27985  10.320   3.621   0.030  0.3194 -0.1938 -0.0827
11852W        W27986  11.075  12.351   2.241 -0.0149  0.0989 -0.0543
11853W        W27987   0.848  15.957  12.977  0.0824 -0.1374 -0.1058
11854W        W27988   1.533  12.603   3.577 -0.0666 -0.0052 -0.0412
11855W        W27989   5.942  13.662   4.187  0.2117  0.0122 -0.2664
11856W        W27990  10.439  15.209   1.239 -0.2027  0.4329 -0.1924
11857W        W27991  15.373   6.335   2.526 -0.2322 -0.1309 -0.1701
11858W        W27992   2.356   2.699   1.687 -0.0326 -0.1144 -0.3455
11859W        W27993   0.615   9.205   4.292  0.1820  0.0289 -0.0449
11860W        W27994   2.672  16.133  14.402 -0.0352  0.0149 -0.1865
11861W        W27995   7.314  17.247   0.928 -0.3457 -0.0696 -0.0201
11862W        W27996   2.206   5.957   0.039  0.1119  0.1931 -0.3789
11863W        W27997  15.885  17.158   4.649 -0.1585 -0.0558 -0.0753
11864W        W27998  19.028   6.083  10.453  0.1984 -0.2131 -0.2437
11865W        W27999   8.188  10.942   2.056  0.0086 -0.0656 -0.1396
11866W        W28000  10.678   0.083   5.153  0.0021 -0.0810 -0.0574
11867W        W28001   3.079   8.197   3.604 -0.0354  0.0720 -0.1320
11868W        W28002   3.225   7.137  10.986  0.0477 -0.1023  0.0869
11869W        W28003   3.253  15.948   4.195  0.1650 -0.2485  0.0034
11870W        W28004  13.067  11.966   2.685 -0.2433 -0.2187  0.2131
11871W        W28005  17.088   0.794  13.552  0.1875 -0.1095  0.2733
11872W        W28006  15.544   1.641   3.975  0.0423 -0.2881 -0.1624
11873W        W28007  13.083  19.156   2.573  0.1653 -0.4147 -0.0402
11874W        W28008   5.051  18.646  10.707 -0.0426  0.1934 -0.0697
11875W        W28009   5.040   7.895   2.678 -0.1982  0.1054 -0.0238
11876W        W28010  15.008   9.792  10.760 -0.2680 -0.0556 -0.2922
11877W        W28011   6.857  19.273  14.134  0.1577 -0.1029  0.0998
11878W        W28012  17.074   0.147   3.716  0.2430 -0.0736  0.1905
11879W        W28013   6.667   1.479  10.806 -0.0338  0.0153 -0.0366
11880W        W28014   9.664   9.788   0.217 -0.2454 -0.3649 -0.0607
11881W        W28015   4.230   2.562  11.808  0.0504  0.1309  0.0880
11882W        W28016  10.644  15.157  11.979 -0.1472  0.0520  0.2511
11883W        W28017  17.713  15.103  11.291 -0.0663 -0.1993 -0.2688
11884W        W28018  11.453  12.021   0.555 -0.0522  0.3067 -0.0005
11885W        W28019  10.054   3.408   4.113 -0.0561  0.2168 -0.1603
11886W        W28020   8.860   4.530  13.776  0.1475 -0.2629 -0.0831
11887W        W28021   6.119   3.570  13.832 -0.2945 -0.1291  0.3551
11888W        W28022   8.711  13.007  13.699 -0.2810  0.1069  0.1518
11889W        W28023   1.611   6.800  13.890  0.2146 -0.2301 -0.1073
11890W        W28024   7.878  18.377  13.557  0.1513 -0.0284 -0.1291
11891W        W28025   3.671   5.217   3.863 -0.3144 -0.3164 -0.2446
11892W        W28026  10.461   8.785   4.240  0.2631  0.0425  0.1617
11893W        W28027  17.081   0.634   2.261  0.0559 -0.2974  0.0492
11894W        W28028  15.116   4.904   9.234 -0.2050  0.0920 -0.2417
11895W        W28029  19.008   1.138  13.671  0.1190  0.1696 -0.1750
11896W        W28030   9.489   3.667  12.313 -0.3148  0.3242  0.1416
11897W        W28031   4.309   5.172   9.915  0.0552 -0.1857  0.2046
11898W        W28032   2.076   8.397  12.007 -0.0638  0.1131 -0.2509
11899W        W28033   7.320   1.672   3.519  0.0310 -0.0144 -0.2958
11900W        W28034  18.182   4.366   1.703 -0.0216 -0.2299  0.1086
11901W        W28035   5.413  14.995   2.300 -0.5623 -0.0766 -0.0247
11902W        W28036  15.647   1.748  13.944 -0.0117 -0.3029  0.1237
11903W        W28037   2.247   0.096  14.438 -0.0770  0.1211 -0.0660
11904W        W28038   6.400   2.499  10.878 -0.0562 -0.1171  0.2711
11905W        W28039  13.209  16.460   4.214 -0.0117  0.0805  0.0682
11906W        W28040   0.835   7.831   1.083 -0.0003 -0.0934 -0.2312
11907W        W28041   5.334  12.210  10.875 -0.0948 -0.0434  0.2133
11908W        W28042  11.606   9.116   4.452  0.0334  0.0821  0.1768
11909W        W28043  11.685   1.599   2.246 -0.0985 -0.0576 -0.0329
11910W        W28044   4.056  10.224  12.803 -0.0789  0.0976 -0.3293
11911W        W28045  14.129   1.050  13.775 -0.1110 -0.0706 -0.2747
11912W        W28046   9.999   5.900  13.787  0.1246 -0.0846 -0.3730
11913W        W28047  11.519  18.964   9.943  0.1707  0.1074 -0.1071
11914W        W28048  13.128   8.775  11.825 -0.1768  0.0290  0.2640
11915W        W28049  10.055   8.905   0.024 -0.1891 -0.0067  0.2844
11916W        W28050   5.751  10.856   0.820 -0.0378 -0.0721  0.1902
11917W        W28051   9.344   8.043  11.044 -0.1219  0.3114  0.0820
11918W        W28052   1.337   0.637  10.053 -0.0925 -0.1944  0.1706
11919W        W28053  10.015   8.028   2.145 -0.1683  0.0639 -0.2789
11920W        W28054   6.678  17.812   5.399  0.3469  0.2137 -0.0872
11921W        W28055  12.351  17.589   0.560  0.0165 -0.3510 -0.1919
11922W        W28056  10.691   4.864   4.849 -0.0563 -0.0511 -0.1505
11923W        W28057   3.881   0.621   1.208 -0.3426  0.2208 -0.0272
11924W        W28058  11.367   7.200   1.912  0.2478 -0.2591  0.0229
11925W        W28059  11.391  10.988  11.299  0.3223  0.3059 -0.1528
11926W        W28060   3.022   1.138   5.402  0.0018 -0.2130 -0.0518
11927W        W28061   9.163  16.969  11.375  0.0400 -0.0972 -0.1009
11928W        W28062  11.755  11.612  12.844  0.2894  0.0541 -0.0669
11929W        W28063   2.753   1.835  12.936 -0.0066 -0.0823  0.2547
11930W        W28064   8.217  17.424   2.066 -0.0627  0.1646  0.2506
11931W        W28065   3.671  16.114   4.306  0.1607  0.3799 -0.1485
11932W        W28066   4.529   9.580   0.220 -0.0051 -0.5144  0.2667
11933W        W28067  16.625  18.505  14.545 -0.0531 -0.4219 -0.0895
11934W        W28068   3.325  12.815  11.613 -0.1541  0.3424 -0.0185
11935W        W28069   1.044   9.038   2.125  0.3633  0.1451 -0.1431
11936W        W28070  14.183   5.972  11.959  0.1047 -0.0726  0.2289
11937W        W28071   8.450  13.003   3.291 -0.1986  0.0364  0.0469
11938W        W28072   4.559  15.153   4.836  0.2247  0.1679 -0.0464
11939W        W28073  18.938   7.044   2.192  0.0149  0.0708 -0.0059
11940W        W28074  11.554   0.355   2.732 -0.3633 -0.0666  0.1447
11941W        W28075   6.687   9.771  14.150 -0.1299 -0.3179 -0.0618
11942W        W28076  13.831  10.653   4.731 -0.1276 -0.0097  0.1023
11943W        W28077   2.297  12.773  13.871 -0.0600  0.0732 -0.2619
11944W        W28078   0.833  18.037   2.465  0.0114 -0.2056  0.2065
11945W        W28079  13.429  13.733  12.888  0.0217  0.3791  0.2195
11946W        W28080  12.812  19.186  13.763 -0.0647 -0.2565  0.1872
11947W        W28081  18.657  11.972  11.121  0.0866  0.0269 -0.0544
11948W        W28082   8.568  11.559   9.400 -0.0590 -0.0335  0.1187
11949W        W28083   6.247   7.412   3.296  0.0074 -0.2158 -0.0185
11950W        W28084   3.164   5.561   0.613 -0.1375 -0.0745 -0.5273
11951W        W28085  18.535  14.043   0.525  0.1613 -0.2705 -0.2215
11952W        W28086  11.830  15.558  10.568 -0.0780 -0.0024 -0.1496
11953W        W28087   4.505   7.969   3.394 -0.3523  0.2049  0.2250
11954W        W28088  17.422   3.140   0.287  0.1611 -0.0624  0.2061
11955W        W28089   9.876   1.664  13.169  0.3323 -0.0168 -0.1266
11956W        W28090  10.364   7.691   3.812 -0.1328 -0.2168  0.1015
11957W        W28091  12.742  15.055   1.539 -0.2594  0.0432 -0.2336
11958W        W28092  17.611  13.534   4.084 -0.3501 -0.0211  0.2268
11959W        W28093  10.977   8.490   3.168 -0.2499  0.0220 -0.1213
11960W        W28094  10.744   4.779   0.680 -0.0939  0.0158  0.2232
11961W        W28095   0.440  16.696   3.950 -0.1275 -0.1856 -0.0192
11962W        W28096  15.480  12.222   1.146 -0.0280 -0.2879 -0.0512
11963W        W28097  12.343  11.491  13.274  0.3473 -0.2014  0.1292
11964W        W28098   3.975  16.768   4.905 -0.0679  0.1782 -0.4145
11965W        W28099   1.818   9.787  14.344 -0.2458  0.0374 -0.0934
11966W        W28100   1.166  18.736   1.452 -0.1035  0.2338  0.1745
11967W        W28101  13.862  10.033   2.473 -0.1193  0.3957 -0.0929
11968W        W28102  10.376   5.291   0.801  0.1326 -0.0582 -0.2391
11969W        W28103  14.847  16.776   1.109  0.1153  0.0039 -0.3045
11970W        W28104  15.037  15.820  14.474 -0.1773  0.0211 -0.1923
11971W        W28105   0.447  14.101   2.473  0.2195  0.0273  0.0990
11972W        W28106   4.402   8.858   3.550 -0.1921 -0.0691 -0.1096
11973W        W28107   8.270   3.429  12.477  0.1222 -0.3447 -0.1517
11974W        W28108  14.477  12.925   3.120  0.1780  0.0771  0.2291
11975W        W28109   2.996   6.706  11.241 -0.1942 -0.1578 -0.1399
11976W        W28110   7.142   8.114  14.404  0.1547  0.1784 -0.0081
11977W        W28111   4.045   7.643   1.810  0.1282  0.0906 -0.3056
11978W        W28112   0.830   6.589   0.414 -0.2528  0.3561  0.1308
11979W        W28113  10.649  10.048   3.031  0.1892  0.5275 -0.3912
11980W        W28114   2.571   6.409  12.511  0.3012  0.1762  0.0157
11981W        W28115   5.403   8.294   1.657 -0.1364  0.0771 -0.1873
11982W        W28116   3.901   9.980  13.726 -0.2202  0.2210 -0.1651
11983W        W28117  18.529  15.801  12.136  0.1934 -0.1825 -0.1187
11984W        W28118  18.270   6.142  11.494 -0.1119 -0.1745 -0.0606
11985W        W28119  11.317  10.980   2.965  0.1617 -0.2927 -0.1227
11986W        W28120   4.488   9.875   1.693 -0.1225  0.1726  0.0467
11987W        W28121   3.338  16.812   1.654 -0.1231  0.0921  0.1808
11988W        W28122  17.380   1.019  10.667  0.4386  0.1221  0.0374
11989W        W28123   1.739  12.346   1.318 -0.3765 -0.1841 -0.1735
11990W        W28124   7.715   2.917  11.751  0.2985  0.2814 -0.0412
11991W        W28125   5.889   6.215   2.149  0.3919  0.3119 -0.1310
11992W        W28126   7.724   4.186   5.075  0.1446  0.1224 -0.0658
11993W        W28127  10.567   9.194   3.868  0.0956  0.2127 -0.0464
11994W        W28128   9.161  18.166  12.578 -0.2145  0.2385 -0.1326
11995W        W28129   1.444  12.421  11.742  0.3712 -0.3086 -0.2794
11996W        W28130  14.874   7.220  11.183 -0.0629 -0.1271 -0.0877
11997W        W28131  12.607   2.650  13.237  0.2348  0.1849  0.2753
11998W        W28132   4.569   8.939  12.809  0.2942  0.3062 -0.0966
11999W        W28133   0.095   2.245  12.354 -0.1987  0.1664  0.0733
12000W        W28134   9.268  16.896  14.771  0.1834 -0.0099 -0.0404
12001W        W28135   6.193   5.304   3.139  0.0759  0.0632  0.1803
12002W        W28136   8.742  13.149   0.829 -0.3988  0.2017 -0.0961
12003W        W28137   8.669   8.560  11.041  0.0828 -0.2018  0.3273
12004W        W28138   8.696   5.962   3.694 -0.1162 -0.2059 -0.1387
12005W        W28139  16.505   5.008   1.035 -0.1423 -0.3050  0.2447
12006W        W28140  11.887  12.485  12.961 -0.0461 -0.4121 -0.1919
12007W        W28141   4.251   0.222  14.022  0.1391  0.2354  0.0096
12008W        W28142   1.931  12.497  10.721  0.3652  0.1680 -0.0423
12009W        W28143  18.082  17.599   0.895  0.1593 -0.2659 -0.1621
12010W        W28144  14.670  13.159   4.069  0.1214  0.0380  0.1891
12011W        W28145   0.366   2.666  14.981 -0.1617  0.1981  0.1427
12012W        W28146   5.076  19.196  11.107 -0.1314  0.2149 -0.0420
12013W        W28147   8.153  10.641   3.765 -0.2332 -0.3384 -0.1226
12014W        W28148  10.729   5.785  13.069  0.0669  0.1371  0.1093
12015W        W28149   0.466   1.671   0.493  0.1926 -0.3157  0.1622
12016W        W28150   8.410   5.565  14.114  0.0653  0.0797 -0.0577
12017W        W28151  15.609  10.611   4.519 -0.0470 -0.0715  0.1365
12018W        W28152  14.755   0.452  12.774  0.3626  0.2016 -0.2500
12019W        W28153   8.220   9.019   3.254  0.4291 -0.1720 -0.0982
12020W        W28154  18.376  10.613   0.950  0.1515 -0.1129 -0.1563
12021W        W28155  11.924  14.271  13.776 -0.1752 -0.1402  0.2250
12022W        W28156   2.562  12.807  12.582  0.3199  0.0112  0.0722
12023W        W28157   4.664  10.714   4.921  0.0912 -0.1676  0.2809
12024W        W28158  10.509  13.824   1.572  0.0916 -0.0993  0.2068
12025W        W28159  18.281  17.103  12.713  0.2107 -0.0015 -0.1997
12026W        W28160   0.021   0.736   2.921  0.2743  0.1098  0.1762
12027W        W28161  15.837  17.055   2.563  0.2058 -0.0641  0.0693
12028W        W28162  14.789  15.154  11.534  0.0891  0.2584  0.0738
12029W        W28163  18.358  17.161   0.790  0.0738 -0.0959  0.2214
12030W        W28164   3.197  10.788  11.778 -0.0392 -0.1012  0.1234
12031W        W28165   6.587  15.349   2.635  0.1587  0.3162 -0.0808
12032W        W28166   7.211   9.373   2.070  0.0411 -0.0656  0.0181
12033W        W28167   9.797   1.732  14.430  0.0481  0.0665 -0.0936
12034W        W28168   6.758  15.545   5.180  0.1372  0.5479 -0.1401
12035W        W28169  12.680   4.817  14.529  0.2329  0.1755  0.2143
12036W        W28170  12.779  11.280   2.031 -0.1336 -0.1693  0.0439
12037W        W28171  10.356  17.476  10.780  0.0733 -0.1929 -0.1032
12038W        W28172   7.256  15.226   3.496  0.0748 -0.0131  0.2954
12039W        W28173  18.078   7.218   2.279 -0.0823 -0.4276 -0.1644
12040W        W28174   9.895  14.836  12.475  0.2076 -0.3725 -0.2844
12041W        W28175   6.431   9.153  13.411  0.2608 -0.3015 -0.3235
12042W        W28176  11.672   5.377  11.085 -0.0114  0.1087 -0.0022
12043W        W28177   0.899   9.780  13.019 -0.1145 -0.1058  0.0055
12044W        W28178  17.315  18.235   0.674  0.0992 -0.0004 -0.0400
12045W        W28179   3.786  17.100  14.329  0.0166  0.2092  0.2757
12046W        W28180   6.906   4.162   2.542 -0.1887  0.0643  0.2238
12047W        W28181  10.669   1.374   1.271  0.2503 -0.1394 -0.1842
12048W        W28182   3.944  12.922  10.255  0.0835  0.0819  0.2075
12049W        W28183  18.245  12.748   3.747  0.0026  0.0979  0.3176
12050W        W28184  13.797   6.315  12.156  0.0534 -0.2507  0.0778
12051W        W28185   4.681  14.269  11.139 -0.0776  0.4241 -0.1681
12052W        W28186  10.890   5.004   5.482  0.3135  0.2392 -0.0635
12053W        W28187   9.843   9.272   1.713 -0.3910  0.0293  0.1002
12054W        W28188  16.704  10.041  13.363  0.3943 -0.2755 -0.1341
12055W        W28189   1.368  17.701   0.474  0.2204 -0.2672 -0.0599
12056W        W28190  14.933   8.961   0.418 -0.1581 -0.5173  0.3618
12057W        W28191  10.970  15.416   2.946 -0.4022  0.2890 -0.0477
12058W        W28192  14.981  15.156   4.473  0.0281  0.3535  0.0563
12059W        W28193  15.753  12.484  13.207  0.1027 -0.3125  0.0983
12060W        W28194   3.946   0.574   3.829 -0.1696  0.0842  0.1549
12061W        W28195   4.579  16.861   2.515 -0.0904 -0.2243 -0.1254
12062W        W28196  13.566  14.272   5.207  0.3093 -0.0981 -0.0620
12063W        W28197  11.623   8.197  13.577 -0.3489  0.2366 -0.0641
12064W        W28198   8.311   2.692   5.207 -0.2038 -0.0563 -0.0544
12065W        W28199  12.889   6.256  14.270  0.0158  0.5420  0.2048
12066W        W28200  11.947   8.159  12.306 -0.0138 -0.2127  0.3177
12067W        W28201   6.799  15.559  13.230  0.0286 -0.4337  0.0167
12068W        W28202   6.650   6.330  14.109 -0.0115  0.1766 -0.1520
12069W        W28203   1.671   6.287  10.560  0.0836 -0.1248  0.2280
12070W        W28204  10.945  11.828   2.113 -0.1360 -0.3633 -0.2412
12071W        W28205  16.509  19.003   1.666 -0.1084  0.3411  0.2494
12072W        W28206  15.267  10.337  14.496 -0.0555  0.0487  0.1895
12073W        W28207  17.795  10.528   0.705 -0.1495  0.1766  0.2747
12074W        W28208   7.515   1.201   3.233  0.3668 -0.0220 -0.0789
12075W        W28209  12.997   5.830  13.316  0.0873  0.0222  0.0117
12076W        W28210   9.278   2.594   2.734  0.0111 -0.0927 -0.5024
12077W        W28211  13.209  17.785   0.514 -0.1165  0.1055 -0.1073
12078W        W28212  10.404   1.959  12.319 -0.2066 -0.2397 -0.0214
12079W        W28213   9.409  16.856   4.007 -0.2236  0.2594 -0.0624
12080W        W28214  13.327   6.346   3.834  0.2899 -0.0022 -0.1745
12081W        W28215   7.782  11.474   3.670  0.0309  0.1135 -0.0301
12082W        W28216   8.555   3.802  12.680 -0.3294  0.2030 -0.2906
12083W        W28217  16.942  15.775   0.388 -0.2024 -0.1279 -0.1412
12084W        W28218  14.711  17.866   4.913  0.1273  0.1147 -0.1557
12085W        W28219  18.770  15.978  14.647  0.0859  0.3059 -0.0976
12086W        W28220  12.966   8.246   3.616 -0.0692  0.0275  0.1470
12087W        W28221   9.460  13.263  13.262 -0.1627  0.2225  0.1453
12088W        W28222  15.713  19.180   1.728  0.3248 -0.1562  0.1391
12089W        W28223   2.080  13.916  10.462  0.1613  0.0076  0.0287
12090W        W28224   3.786  15.798   3.181  0.1781 -0.1408 -0.1495
12091W        W28225  17.625  17.874  11.202 -0.2212  0.1685  0.0815
12092W        W28226   2.006  10.535   0.245  0.3505  0.1668 -0.3190
12093W        W28227  11.374   8.948  13.242  0.1297 -0.1174 -0.2558
12094W        W28228   3.942  11.988   0.570 -0.1136 -0.1290 -0.3470
12095W        W28229  14.572   9.459   1.107 -0.1435 -0.0786 -0.2383
12096W        W28230  12.360   4.397   4.565 -0.0451  0.3021 -0.1319
12097W        W28231   1.595  13.449   3.832  0.2990  0.2785 -0.2958
12098W        W28232  17.703   9.444  13.326  0.4115 -0.1026 -0.0686
12099W        W28233  12.187   5.120  11.777  0.0735 -0.5872  0.1984
12100W        W28234   6.926   4.729  13.300 -0.0340 -0.0486  0.1961
12101W        W28235   5.986  11.984  11.709  0.0818  0.0293 -0.1774
12102W        W28236   3.999   6.665  14.977 -0.2740 -0.1097  0.1744
12103W        W28237  16.923  14.606   0.651 -0.2648 -0.1105 -0.2246
12104W        W28238  10.886  10.470   2.760 -0.0723 -0.3351  0.0662
12105W        W28239   5.502   3.417   2.209  0.1718 -0.0263  0.1740
12106W        W28240  18.793   9.879   2.183  0.3381  0.0761  0.0879
12107W        W28241   4.965  14.221  11.961  0.0297  0.0370  0.3611
12108W        W28242   0.561  15.265   3.641  0.0616  0.2899  0.3164
12109W        W28243  13.972   8.240   3.902  0.0263  0.3185  0.0284
12110W        W28244  12.014   9.147  10.125 -0.2530  0.0431 -0.0538
12111W        W28245  10.539  12.668  12.355 -0.0150  0.0056  0.0802
12112W        W28246   8.203  11.145  12.193  0.1130  0.3966 -0.0078
12113W        W28247   1.476   8.582   2.165 -0.1283 -0.0670 -0.0784
12114W        W28248   8.790   4.779   1.788  0.1777 -0.2027 -0.0860
12115W        W28249  14.324   4.014   0.801  0.1185  0.2529 -0.0986
12116W        W28250   8.152   6.258  11.932  0.0142 -0.0905  0.1158
12117W        W28251   9.562  15.471   4.013 -0.1215 -0.0604 -0.2572
12118W        W28252   1.806   9.391   3.328 -0.0338  0.0807  0.2715
12119W        W28253   5.942  18.922  14.855 -0.4075  0.2135  0.2772
12120W        W28254   5.913   9.102   9.262  0.1257  0.1312  0.1637
12121W        W28255  14.381   9.639   1.779  0.2200  0.1209 -0.1334
12122W        W28256   3.836   8.787  11.307 -0.1428 -0.1684  0.1366
12123W        W28257   9.928  15.221  14.446  0.3129  0.1857 -0.0205
12124W        W28258  15.099  10.592  11.358 -0.3789  0.0512 -0.2510
12125W        W28259   0.962   0.113   4.276  0.0872 -0.0878 -0.0815
12126W        W28260  17.707  17.337  10.441 -0.2932 -0.0602  0.2704
12127W        W28261  14.866   5.064  12.807 -0.2681  0.0443  0.2139
12128W        W28262   1.414   3.445  13.599 -0.0976 -0.1663  0.1315
12129W        W28263   5.672  12.148  13.955  0.2363  0.1260  0.0576
12130W        W28264  16.158  14.608   2.263  0.4063  0.0303 -0.2568
12131W        W28265   3.360   5.594   4.358 -0.0338  0.0896  0.2358
12132W        W28266   8.997   1.390   0.904 -0.0386  0.4432  0.0956
12133W        W28267  10.573  11.038  11.878 -0.0955  0.2288  0.1344
12134W        W28268   3.015  17.027  11.604 -0.0749  0.0101  0.3351
12135W        W28269   0.874   6.228   2.182  0.1970 -0.1432  0.0408
12136W        W28270   8.708  11.542   1.401  0.1540  0.1450  0.3477
12137W        W28271   5.511   3.515   0.014  0.0149  0.0127 -0.0658
12138W        W28272  14.519  12.708   2.170  0.0322 -0.1799  0.0096
12139W        W28273   5.894   0.644   2.231  0.1308 -0.3022  0.2520
12140W        W28274   4.764   4.580   0.357 -0.2104  0.1431  0.2650
12141W        W28275   0.573   2.538  10.451  0.3106 -0.1806  0.0625
12142W        W28276  15.907  13.256  13.586  0.0201  0.1183 -0.2454
12143W        W28277  14.512   1.435  13.590  0.0686  0.1807 -0.2073
12144W        W28278  15.493   6.945   3.449 -0.1986  0.0082 -0.0667
12145W        W28279  18.039  16.493   2.043 -0.2026 -0.1646  0.0155
12146W        W28280   9.562  13.179   2.467 -0.2023 -0.1776 -0.4561
12147W        W28281  11.504   0.769   2.216 -0.0039  0.1663 -0.0488
12148W        W28282  13.405  10.672   2.236 -0.0347 -0.0328  0.0439
12149W        W28283   5.330   9.276   2.460 -0.1259  0.1463  0.2143
12150W        W28284  12.077   1.960   2.127 -0.1688  0.2006  0.0637
12151W        W28285   6.006  13.195   0.195  0.0958  0.2167 -0.0926
12152W        W28286   8.936  12.474   2.034 -0.2253 -0.1278 -0.0522
12153W        W28287  16.462   5.594   3.606  0.0058 -0.0179  0.1677
12154W        W28288  16.353  12.777   4.414 -0.1876  0.1890  0.4116
12155W        W28289   9.634   5.057   4.158  0.0431 -0.3210  0.2283
12156W        W28290  16.442  10.530   0.066 -0.3032  0.2419 -0.0085
12157W        W28291   5.838   8.949   2.421 -0.0442  0.3184 -0.1647
12158W        W28292  17.492  11.400  11.050 -0.1060  0.2375 -0.0787
12159W        W28293   2.014   6.235  10.229  0.2751 -0.2284 -0.0948
12160W        W28294   4.275  14.102   1.090 -0.2375 -0.2263  0.3066
12161W        W28295  15.032   9.091  11.588  0.1580  0.0601 -0.2553
12162W        W28296  19.309   3.395  14.142 -0.0546 -0.3267  0.1565
12163W        W28297   6.232  16.293  13.773 -0.2859  0.2330  0.2722
12164W        W28298   9.234   7.100   1.134 -0.3472 -0.5026  0.0753
12165W        W28299  17.114   4.847   1.916 -0.4066  0.0813 -0.1231
12166W        W28300  10.308  15.475  13.060 -0.2961 -0.0772 -0.0589
12167W        W28301  13.861   5.197  10.964 -0.1284 -0.2188  0.0069
12168W        W28302  17.266   4.065   5.271  0.0301 -0.0926 -0.0685
12169W        W28303   3.446  14.963  13.100 -0.0917  0.0686 -0.0891
12170W        W28304  11.909   2.523  11.134 -0.0012  0.2377  0.2164
12171W        W28305   4.181   0.280   0.920  0.0604 -0.0933 -0.0487
12172W        W28306  19.030  17.969  11.569 -0.2237 -0.1681 -0.2889
12173W        W28307   6.608  11.197   0.953 -0.2271  0.1671  0.1096
12174W        W28308  15.425   9.097  11.875 -0.0716  0.1272  0.4522
12175W        W28309   6.967   5.050  10.457 -0.2989  0.2634 -0.1601
12176W        W28310  11.198   8.063  10.466 -0.1126  0.0951  0.2982
12177W        W28311  14.086   6.753   1.775  0.5983 -0.1177  0.0782
12178W        W28312  11.402  15.388  11.965 -0.1786 -0.0621  0.0360
12179W        W28313  15.658  11.384  11.689 -0.0693  0.0650  0.2164
12180W        W28314  14.098   1.701  12.396 -0.2831 -0.1769  0.0721
12181W        W28315   4.224   0.380   1.458  0.1635 -0.1581  0.1136
12182W        W28316  16.575  16.726  12.992  0.0604  0.0282  0.1981
12183W        W28317   1.743   1.346  12.006  0.0271 -0.3206  0.1150
12184W        W28318  13.584  11.614  10.793 -0.0331 -0.1675  0.0722
12185W        W28319  17.319   2.589   2.625  0.2895 -0.0794 -0.2755
12186W        W28320   4.254   3.689   1.794 -0.1639 -0.0870  0.3422
12187W        W28321  10.352   8.943  11.586  0.0355  0.0784 -0.3026
12188W        W28322  16.967  11.824  12.220  0.3307 -0.1181 -0.0710
12189W        W28323  11.076   6.314  11.829 -0.0645 -0.2421  0.0673
12190W        W28324   4.562  13.720   0.955 -0.0187  0.0624  0.2898
12191W        W28325   6.838  10.893   3.729  0.1802  0.2336 -0.2408
12192W        W28326   7.693  18.598   0.546  0.0101  0.0000 -0.2361
12193W        W28327  16.639   9.025  10.768  0.0731  0.1246 -0.2787
12194W        W28328   5.361   7.306  14.282  0.1317  0.1623 -0.0433
12195W        W28329   7.534   5.109  13.078  0.0803  0.1355  0.0753
12196W        W28330   6.912   2.594  11.400  0.2150 -0.2355 -0.2999
12197W        W28331  10.543  13.070  14.959 -0.1006  0.2015  0.1341
12198W        W28332  16.998   2.197  10.332 -0.6128  0.0678  0.1121
12199W        W28333   3.442  14.061  13.153  0.2494  0.0871 -0.0890
12200W        W28334   6.447   0.821   0.401  0.0365  0.2225  0.4326
12201W        W28335  19.101  11.585   5.290 -0.0646  0.1940 -0.1161
12202W        W28336   2.591   5.214  11.691 -0.4854  0.1463 -0.0369
12203W        W28337   1.088  14.161   2.974 -0.0092 -0.1514  0.0063
12204W        W28338  18.554  13.315   2.053  0.3239  0.1036 -0.2011
12205W        W28339   3.734  11.557   3.732  0.2111  0.1766  0.1890
12206W        W28340  14.236  16.032  14.889 -0.2886  0.2334 -0.0741
12207W        W28341  13.527   3.072   1.329 -0.2276  0.0287 -0.2190
12208W        W28342  14.718   3.934  11.539  0.1689 -0.2043 -0.1430
12209W        W28343  16.514   1.829   2.376  0.3253  0.0388 -0.1475
12210W        W28344  16.358   5.780   3.135  0.0598  0.0728 -0.0907
12211W        W28345  17.793   8.647  10.826 -0.1674 -0.1223 -0.2228
12212W        W28346  17.476   9.826  12.231  0.2627 -0.0755  0.2303
12213W        W28347   7.708  16.344   4.352  0.0046 -0.1023  0.0051
12214W        W28348   5.016   6.577   2.208 -0.2475 -0.1817  0.0556
12215W        W28349   1.881  17.264  13.029 -0.0062 -0.0424 -0.3238
12216W        W28350   9.492  18.674  12.318 -0.1427  0.1638 -0.4513
12217W        W28351  14.862  12.313  10.281 -0.0862 -0.0904  0.1314
12218W        W28352  13.914   6.866   2.266 -0.0227  0.1677  0.0625
12219W        W28353   8.539  18.125   0.839 -0.1038  0.0121 -0.1587
12220W        W28354  15.947  14.454  14.346 -0.0171  0.0738  0.0751
12221W        W28355   5.278   0.404  13.328 -0.0346 -0.1747 -0.1349
12222W        W28356  13.159  13.572   5.008  0.0206 -0.2963 -0.2034
12223W        W28357  16.180  16.607   9.971 -0.0058 -0.0342  0.2391
12224W        W28358   2.450   2.297  13.033  0.3105 -0.2396  0.0246
12225W        W28359  10.355  17.691   4.907  0.0692  0.0115  0.2519
12226W        W28360  18.259  16.237  12.251  0.1968  0.1792  0.2784
12227W        W28361  15.173  13.210  10.173  0.1509  0.1786  0.1739
12228W        W28362  12.457  17.024   2.116  0.0129 -0.0262 -0.3642
12229W        W28363  15.268   2.001   3.072  0.0133  0.1129 -0.0865
12230W        W28364   7.101   7.571   0.035  0.2745 -0.2956 -0.0428
12231W        W28365  13.245   5.611   1.197 -0.2530 -0.2069  0.2570
12232W        W28366  10.969   1.528   2.158  0.0230 -0.1490  0.2160
12233W        W28367  17.058  17.763  13.032 -0.0799 -0.0165 -0.0216
12234W        W28368  12.752  18.838   0.653 -0.1686 -0.0603 -0.0395
12235W        W28369  10.072   8.165  13.427 -0.2897 -0.1579 -0.3280
12236W        W28370  15.991   7.099   2.096 -0.0056 -0.0683  0.2950
12237W        W28371  14.597  12.385   3.345  0.1040 -0.0762 -0.2449
12238W        W28372   1.193  16.014  14.452  0.0981  0.3886 -0.0250
12239W        W28373  17.682  11.713  14.410  0.0991  0.1395  0.0529
12240W        W28374  14.795   1.903   2.222 -0.1120  0.2192  0.3325
12241W        W28375   5.759  10.083  14.268  0.1473  0.2191  0.0329
12242W        W28376  13.469   3.623  12.083  0.1467  0.0679 -0.0216
12243W        W28377   3.272   3.141   1.514  0.4345 -0.2615 -0.3165
12244W        W28378   0.325  12.893  11.568 -0.1949 -0.1910 -0.0795
12245W        W28379  15.307  13.453  13.375 -0.1802 -0.1046  0.0166
12246W        W28380   1.594   4.675  13.558 -0.0411 -0.1889  0.1624
12247W        W28381   1.105  11.135  13.021 -0.1486  0.1653 -0.0714
12248W        W28382  13.519  18.869   3.844  0.0522  0.2584  0.2215
12249W        W28383  13.228  17.110   1.707  0.0970 -0.1022  0.0912
12250W        W28384   3.282  18.509  10.277  0.0126  0.0828  0.0145
12251W        W28385   1.549   2.702   0.814  0.3469 -0.1876 -0.0262
12252W        W28386   6.597   7.735  11.362  0.1894 -0.2149 -0.3749
12253W        W28387   0.236   9.524   4.324  0.2397  0.1474  0.2034
12254W        W28388  10.854  16.857   3.966  0.1349 -0.3541 -0.3843
12255W        W28389   6.603   6.479  11.531 -0.0913 -0.0612  0.1815
12256W        W28390  10.374   1.232   2.289 -0.0692  0.4756 -0.0856
12257W        W28391   9.302   3.407   2.581  0.2240 -0.2119  0.2379
12258W        W28392   5.373   4.954   3.678  0.3130  0.5364  0.2468
12259W        W28393   8.397  13.212  11.877  0.2499  0.2881 -0.1119
12260W        W28394   0.939  14.813  10.862  0.0475  0.1682 -0.0322
12261W        W28395  14.457  10.702   5.577  0.0086  0.0152  0.3462
12262W        W28396  16.836   4.978   3.842  0.0388 -0.1667 -0.1360
12263W        W28397  17.490   5.352   0.832  0.1923 -0.1179  0.0062
12264W        W28398  15.556   5.757   4.366  0.3556  0.0681 -0.1608
12265W        W28399  18.566  12.110  13.122 -0.0651  0.1206 -0.1899
12266W        W28400  17.086   7.966   2.805  0.3691  0.1011 -0.1799
12267W        W28401  17.321  15.621   2.272  0.4723  0.0553 -0.0503
12268W        W28402  15.979  12.846  12.859 -0.0290  0.2206 -0.2261
12269W        W28403  13.559  15.650   0.495 -0.1007  0.2678 -0.1259
12270W        W28404   2.588   5.092  13.361 -0.0626  0.0308  0.2817
12271W        W28405   6.842  15.148   1.792 -0.0452  0.2991  0.2026
12272W        W28406  16.692  11.560   4.992 -0.2640  0.1744 -0.5905
12273W        W28407   6.848   6.416  11.998 -0.0825  0.0188 -0.0336
12274W        W28408  15.313  12.145   2.206 -0.2851  0.0622 -0.2005
12275W        W28409  16.507   9.227  13.829 -0.1940  0.1210  0.1947
12276W        W28410  16.196   5.206   4.253 -0.1222  0.2635  0.0167
12277W        W28411   9.794  17.888   0.527 -0.1024 -0.2272 -0.0550
12278W        W28412  18.343  15.478  10.403 -0.3304  0.0248 -0.3752
12279W        W28413   2.133   1.040   0.096  0.3563 -0.2124 -0.0637
12280W        W28414   2.384  11.551   3.703  0.0222  0.1008 -0.0477
12281W        W28415   2.955  11.236   1.974  0.1198 -0.0718 -0.3906
12282W        W28416   0.064  18.568   3.812  0.0446 -0.0119  0.0308
12283W        W28417  16.009  11.430  11.151 -0.2752 -0.1457  0.0283
12284W        W28418  19.202  17.262   1.212 -0.1047 -0.1362  0.0138
12285W        W28419   9.476   3.668  14.844 -0.0090  0.0170  0.0846
12286W        W28420  10.765   0.881  11.429  0.0130 -0.3546  0.0601
12287W        W28421   3.382  16.576   3.527  0.1767 -0.3228  0.0290
12288W        W28422   8.388   7.628   3.060  0.0647 -0.4324 -0.1051
12289W        W28423  17.598  13.955   3.308 -0.1468  0.1030 -0.1237
12290W        W28424  15.752  13.849   3.298  0.1312  0.0664  0.1421
12291W        W28425  11.060   8.157  13.646 -0.1333  0.4946 -0.0879
12292W        W28426  13.683  13.651  11.443 -0.1480 -0.0089  0.3673
12293W        W28427  13.225   6.944  11.528 -0.1279 -0.0270  0.2344
12294W        W28428   2.592   5.869   1.432 -0.0615  0.0533 -0.0530
12295W        W28429   1.737   3.516   1.135 -0.1007 -0.0735 -0.2193
12296W        W28430  15.473  14.468   4.619  0.0037 -0.2608 -0.1064
12297W        W28431   1.136  16.401  10.341 -0.0410  0.2508  0.0333
12298W        W28432  14.053  15.067   4.877 -0.0819 -0.3252  0.3671
12299W        W28433  18.973  14.503   1.537  0.2597 -0.2069  0.1294
12300W        W28434  15.213  18.911   0.222  0.0970 -0.0307 -0.2621
12301W        W28435   0.461  11.236  11.973  0.0327  0.0695  0.0175
12302W        W28436   6.672   5.617  12.540 -0.0183 -0.1441  0.1557
12303W        W28437   3.199   5.262  11.429 -0.1216 -0.2967 -0.2989
12304W        W28438   9.064  12.299   0.982  0.0820 -0.2427  0.1541
12305W        W28439  13.161  15.710  11.265  0.3130 -0.3590  0.1858
12306W        W28440   3.493  13.971   3.780  0.2314 -0.0807 -0.2082
12307W        W28441   0.019   7.674   2.055  0.1040  0.0290  0.3753
12308W        W28442  12.787   8.646  14.179 -0.2643  0.1524  0.3612
12309W        W28443   8.126   7.100  10.629  0.1141  0.4328 -0.0852
12310W        W28444  17.055   4.825   3.415  0.1135 -0.0635 -0.0659
12311W        W28445   5.686  15.399  11.396 -0.2234  0.3102  0.2362
12312W        W28446  17.766  17.977  13.494 -0.1964 -0.4430 -0.0660
12313W        W28447  10.622   3.138  11.636 -0.0264 -0.2083 -0.2487
12314W        W28448   0.558   6.026  12.974 -0.0718 -0.0731  0.4612
12315W        W28449  17.828   4.628   3.747  0.2337  0.1159 -0.1356
12316W        W28450  18.560   0.250  11.693  0.0914  0.0569  0.1511
12317W        W28451   9.079   8.713  10.366  0.1589 -0.1192  0.0459
12318W        W28452   8.331   8.330   0.634  0.0203  0.3856 -0.0444
12319W        W28453  14.780  11.344  13.680  0.1829 -0.1664 -0.1764
12320W        W28454  11.886   2.487  13.898 -0.2302 -0.0803  0.2149
12321W        W28455  13.723  18.929   5.585  0.1797 -0.2016 -0.0045
12322W        W28456  17.451  10.228  10.833  0.0920  0.1732  0.0517
12323W        W28457   8.324  14.245   1.495  0.0329  0.0794 -0.0294
12324W        W28458   6.048  17.849   2.668  0.3027  0.2033  0.2215
12325W        W28459  19.038  17.338   4.666  0.1167 -0.3223  0.1813
12326W        W28460   0.081  10.993   3.851  0.3039  0.2639  0.0470
12327W        W28461   9.785  14.104   1.080 -0.3007  0.0715 -0.3867
12328W        W28462  13.476   2.509   1.073 -0.0703  0.1524 -0.3322
12329W        W28463   9.544   4.050   3.175  0.0658  0.1371  0.0560
12330W        W28464   0.532   8.640  10.571  0.3468  0.2017  0.1480
12331W        W28465  13.235   6.608   3.427  0.4163  0.2232  0.0760
12332W        W28466   2.743   6.630   4.640  0.2610  0.0870 -0.0306
12333W        W28467   4.671   0.437   4.276  0.0496  0.0931  0.1248
12334W        W28468   3.243  10.152  10.708  0.0079 -0.0728 -0.0290
12335W        W28469  14.001   0.252   4.765  0.2264 -0.0568  0.1089
12336W        W28470  18.941   2.203   3.115  0.3048 -0.1593  0.3994
12337W        W28471   7.239  12.191   5.977 -0.0167 -0.1039  0.0963
12338W        W28472  16.062   0.229  13.169 -0.0983  0.3615 -0.1449
12339W        W28473   3.144   9.938   2.402  0.0169  0.1939  0.4335
12340W        W28474  10.051   7.776   4.504  0.1665  0.1156 -0.0882
12341W        W28475   5.108  16.379   2.025  0.0308  0.0731 -0.1087
12342W        W28476   1.718   8.315  11.294 -0.0576  0.0656 -0.2143
12343W        W28477  12.840   4.214  10.105 -0.0873 -0.0316  0.1500
12344W        W28478  16.424  16.538   0.037  0.4630 -0.1962 -0.1499
12345W        W28479   9.722   5.589  14.111  0.2549 -0.2257  0.1718
12346W        W28480  13.481  19.316  12.037 -0.0933 -0.1462 -0.1762
12347W        W28481  14.010  13.203   3.927 -0.3852  0.0356 -0.0132
12348W        W28482  10.351   2.541   9.974 -0.0873 -0.2087  0.0916
12349W        W28483   1.072  11.202   1.561 -0.2277  0.0132  0.1599
12350W        W28484  16.849   3.852  11.448  0.1195 -0.2615 -0.5165
12351W        W28485   5.281   6.950  11.254  0.0403 -0.0520  0.4363
12352W        W28486  10.073  11.911   2.968 -0.2917  0.2222 -0.2351
12353W        W28487   2.141   3.565   0.744  0.0599  0.1694  0.0725
12354W        W28488   3.387  14.128   2.249 -0.1417 -0.1178  0.3548
12355W        W28489   2.103   7.248   1.850  0.0216 -0.1679  0.0475
12356W        W28490   1.856   2.721   1.729 -0.0854  0.0647 -0.2157
12357W        W28491   2.817   7.380   4.254 -0.2724 -0.0545  0.3475
12358W        W28492   1.263   5.430  11.458  0.0308  0.0188 -0.0549
12359W        W28493  15.868   4.669   4.140 -0.2119 -0.2842  0.3381
12360W        W28494   4.611  12.546   0.336  0.0537 -0.1413 -0.0820
12361W        W28495  11.233   7.335   2.387  0.2977 -0.0069  0.3725
12362W        W28496  12.911  14.067   2.084 -0.2367  0.1216 -0.2287
12363W        W28497  18.842   0.929   3.923 -0.1993  0.1961 -0.1563
12364W        W28498   1.504  11.752   3.913 -0.1369 -0.1093 -0.0074
12365W        W28499  12.943  18.968   1.829  0.0807 -0.1403 -0.0229
12366W        W28500  11.379   5.842   2.782  0.2512  0.0429  0.0552
12367W        W28501  11.011  14.931   0.719 -0.2501  0.1732  0.1494
12368W        W28502   6.131  10.311  10.537  0.1097 -0.2607 -0.1444
12369W        W28503  10.543  14.675  13.869  0.1875  0.2328 -0.2201
12370W        W28504  18.196  11.402  11.691  0.2760  0.1962 -0.3404
12371W        W28505  15.649  18.666   1.703  0.3482 -0.0218 -0.1895
12372W        W28506   5.293  13.477  13.491  0.1043 -0.1538 -0.0361
12373W        W28507  13.850  17.669   3.522 -0.0545 -0.0227  0.0926
12374W        W28508   8.019   5.116   4.473  0.2046 -0.1179  0.2529
12375W        W28509   1.141   9.550   3.323 -0.0854 -0.1171 -0.1596
12376W        W28510   8.182   2.770   2.761  0.2377 -0.0740  0.0369
12377W        W28511   3.420   1.626   1.613  0.0225  0.1291  0.1921
12378W        W28512   0.031  13.548  14.469  0.1495 -0.1685  0.3767
12379W        W28513  13.612   4.524  11.735  0.1026  0.3350 -0.2757
12380W        W28514   3.874   7.174   2.957  0.0212  0.1029  0.0217
12381W        W28515   2.071   1.878  14.667 -0.1108 -0.1775  0.2429
12382W        W28516  18.085   1.451  14.174 -0.0494  0.1425 -0.3640
12383W        W28517  14.659   8.392  12.267 -0.1312 -0.1731 -0.1279
12384W        W28518  14.322   3.229   5.742 -0.1294  0.0041  0.0902
12385W        W28519  14.704  18.356   1.279  0.0663 -0.0230  0.0139
12386W        W28520   8.093   7.044   2.063 -0.3655  0.0807  0.1581
12387W        W28521   4.882  14.708   5.692 -0.0024 -0.0381 -0.1181
12388W        W28522   1.292  10.174   4.930  0.1879 -0.0861 -0.1377
12389W        W28523   8.812  17.051   4.361 -0.4727  0.1999  0.0412
12390W        W28524  17.445   5.874  12.243  0.2004 -0.2022 -0.2694
12391W        W28525  18.653   4.472   0.152  0.0008  0.0674 -0.0444
12392W        W28526   1.204   3.172  10.015  0.2250  0.0400 -0.4555
12393W        W28527   5.436   4.423  12.904  0.0535  0.0099  0.2307
12394W        W28528   5.306   4.156  11.615  0.1689 -0.1900 -0.3544
12395W        W28529  16.041   3.923   9.286  0.1140  0.1029  0.0302
12396W        W28530  13.756  18.803   1.255  0.2264 -0.0073  0.1079
12397W        W28531  15.834   6.985   0.442  0.0934  0.2792 -0.0167
12398W        W28532   5.298   0.328  14.715 -0.3551  0.3132  0.1057
12399W        W28533   0.074   7.226   1.287  0.2320  0.0593 -0.1882
12400W        W28534  12.324   3.900   3.273  0.1687  0.1040  0.0674
12401W        W28535   1.300  10.483  13.748 -0.0134  0.1112 -0.1310
12402W        W28536  18.989   0.918   3.230 -0.1197 -0.0276 -0.0241
12403W        W28537   4.922  11.565  14.320  0.2729  0.4641 -0.2619
12404W        W28538  11.326  17.896  14.198  0.2898  0.1051 -0.0465
12405W        W28539   8.994   9.667   0.610 -0.0593  0.2888 -0.2772
12406W        W28540   2.356  19.173   2.381  0.0185 -0.2226 -0.4414
12407W        W28541   0.536  14.634  13.280  0.0647  0.0228  0.1238
12408W        W28542  12.233  12.229  10.216  0.4898 -0.2307  0.0205
12409W        W28543   4.243   9.110   9.710 -0.0113 -0.1306  0.2159
12410W        W28544   4.404   2.051  10.339  0.3966  0.0561  0.4002
12411W        W28545   7.396  11.754  13.163 -0.0481  0.1900 -0.4394
12412W        W28546  16.820  11.657   9.229  0.1656  0.1473 -0.3112
12413W        W28547  17.101  12.184   4.594  0.1901  0.0787  0.0926
12414W        W28548   9.333   3.452  11.063  0.4128 -0.1210  0.3869
12415W        W28549  10.052  17.996   3.135  0.0037  0.1043  0.0498
12416W        W28550  18.173  13.983   2.599  0.0285 -0.0525  0.2057
12417W        W28551   6.085   9.040   4.381 -0.0454  0.0385  0.2717
12418W        W28552  15.164   7.006   1.740 -0.0565 -0.0960 -0.0951
12419W        W28553   1.654  16.706   5.592  0.1520  0.0174 -0.1935
12420W        W28554  12.295  10.163   4.132  0.0631  0.0096  0.0816
12421W        W28555   2.925   3.465   1.791 -0.0019  0.1710 -0.0266
12422W        W28556   5.632   0.328   3.852 -0.0211  0.5221  0.0506
12423W        W28557  17.085  16.882  11.963 -0.1475  0.1055 -0.1122
12424W        W28558   5.771  16.664  12.732  0.2482 -0.1717 -0.1214
12425W        W28559   1.473   6.724  10.447 -0.0895 -0.3306  0.0262
12426W        W28560  10.836  17.251  10.703 -0.2525  0.2047  0.0169
12427W        W28561   0.336   3.299   0.400 -0.3477  0.0837 -0.0982
12428W        W28562   3.030  13.387   0.608  0.0264  0.0101 -0.0807
12429W        W28563   8.208  13.259  13.814  0.2591  0.0561  0.2129
12430W        W28564   7.281   9.302   3.304  0.0105  0.0413 -0.0835
12431W        W28565  19.035   1.515   3.718 -0.2300  0.0739  0.1060
12432W        W28566   1.012  11.552  13.335  0.3510 -0.2824  0.1644
12433W        W28567  15.374  11.693  10.625  0.2423  0.2727  0.1597
12434W        W28568  18.778   4.825   2.450 -0.3504  0.1621 -0.1972
12435W        W28569   2.424   5.230   3.236 -0.2567 -0.1586  0.0861
12436W        W28570  10.116   0.945   3.688  0.1013  0.0066  0.1724
12437W        W28571   2.653   5.579   4.943 -0.1893  0.1404  0.2532
12438W        W28572  13.424  10.175  10.538  0.0857 -0.0619  0.2813
12439W        W28573  18.281   3.632   2.302 -0.1555 -0.2653 -0.0862
12440W        W28574   1.919  15.606   2.723  0.1670 -0.2084 -0.0458
12441W        W28575   1.612  13.967   4.164  0.0395  0.3474 -0.1234
12442W        W28576  14.064   6.266   4.651 -0.0253 -0.0450  0.0034
12443W        W28577  11.000  18.932   4.695 -0.2466  0.1765 -0.1528
12444W        W28578   6.299   5.854   4.538  0.3345 -0.1202  0.2307
12445W        W28579   0.864  11.239   3.320  0.0696 -0.1294  0.2227
12446W        W28580  10.032  12.880   3.237  0.1072  0.1824 -0.0179
12447W        W28581   5.421   0.628   1.440 -0.2176  0.0031  0.2504
12448W        W28582  17.826   7.320  10.722  0.0089  0.0776 -0.1599
12449W        W28583   3.047   8.330   4.060  0.0729  0.1107 -0.1078
12450W        W28584   8.062   1.375   2.300  0.2622 -0.1686 -0.1371
12451W        W28585   0.723  17.553  13.516 -0.0881 -0.3516  0.1794
12452W        W28586  16.809  17.147   3.627 -0.5259  0.3762 -0.1332
12453W        W28587  15.750   8.477   1.807 -0.0199  0.4318 -0.0583
12454W        W28588   1.379  15.780  14.935  0.1386  0.0977 -0.1089
12455W        W28589  19.323  16.415  10.648 -0.1046 -0.0453 -0.0010
12456W        W28590   2.265  16.731   2.289  0.3694 -0.0041 -0.1135
12457W        W28591   1.713   9.938   2.576  0.0698 -0.3088 -0.0486
12458W        W28592   3.839   9.955  13.270 -0.3424 -0.1114 -0.1111
12459W        W28593  15.347   0.385  14.028 -0.0877  0.0539  0.0954
12460W        W28594   0.161  15.730  10.342 -0.0423  0.2581 -0.1303
12461W        W28595   0.190   5.743   0.456 -0.2176  0.1550 -0.2520
12462W        W28596  10.127   4.527  12.330 -0.0791  0.0650  0.1031
12463W        W28597  13.280   9.160  10.418 -0.0891 -0.1293 -0.0584
12464W        W28598   4.503   7.026   3.557  0.0885  0.0886  0.0473
12465W        W28599  11.969  18.437   2.592  0.1434  0.2823 -0.0596
12466W        W28600   1.940  11.844   4.180 -0.0261  0.1105 -0.0576
12467W        W28601  15.468   9.742   0.341 -0.1441  0.0231  0.1637
12468W        W28602  14.856   7.502   1.720  0.5814  0.0356 -0.1297
12469W        W28603  12.899   8.186  14.146 -0.3081  0.2884 -0.1437
12470W        W28604  13.346  15.703   3.743 -0.3380  0.1660 -0.1456
12471W        W28605   1.360  18.074  14.995  0.0167  0.0528 -0.1113
12472W        W28606   7.927   9.491   3.483  0.2353  0.0884  0.1366
12473W        W28607  17.167  16.723   2.150  0.1296  0.1676 -0.1444
12474W        W28608  17.645   9.867   0.812 -0.3474 -0.1687  0.1083
12475W        W28609  12.371  16.031  13.991  0.0059 -0.0953  0.3439
12476W        W28610  11.956   0.618   4.116 -0.1211  0.0115  0.1778
12477W        W28611   1.087  17.487  11.965  0.1157  0.2687 -0.1931
12478W        W28612   4.742   7.310  10.127  0.0423  0.4056 -0.0597
12479W        W28613  17.766   8.634  14.289 -0.1592 -0.1008  0.0667
12480W        W28614  11.850   3.933   1.379 -0.1463 -0.1484  0.0512
12481W        W28615   6.901  10.027  13.783  0.5497  0.1252  0.1724
12482W        W28616  14.096   5.034   1.986  0.1290  0.0894  0.1710
12483W        W28617  15.409  12.968   4.693 -0.2403  0.2963  0.2772
12484W        W28618  12.648  18.241  13.859 -0.3171 -0.0116 -0.0187
12485W        W28619  16.549   2.556  10.307  0.0613  0.1394 -0.0993
12486W        W28620  17.735   9.966   4.203 -0.1102 -0.0116 -0.1358
12487W        W28621   8.087  10.548  11.276 -0.1093 -0.0854 -0.3198
12488W        W28622  14.390   4.596   1.809 -0.2285  0.1939  0.0583
12489W        W28623  19.150  18.849   1.372 -0.0319 -0.2660 -0.2864
12490W        W28624  12.652   7.466  12.095 -0.0288 -0.2631  0.1017
12491W        W28625  10.035  18.213  12.841 -0.0587  0.1051  0.2480
12492W        W28626  15.033  17.432   3.886  0.2218  0.3211  0.1308
12493W        W28627   6.084   4.394  14.534 -0.2646  0.0404  0.0794
12494W        W28628   9.233   8.149  13.892  0.1603  0.1528 -0.0837
12495W        W28629  11.416  17.767  10.549 -0.4059 -0.0683  0.0291
12496W        W28630   8.576   6.635   0.793 -0.0696 -0.3439 -0.1779
12497W        W28631   1.202  11.172   4.797 -0.0549 -0.0621  0.0899
12498W        W28632  17.504  19.168   2.487 -0.1353  0.0153 -0.2805
12499W        W28633  14.091  15.617   0.428  0.0836 -0.2817 -0.5050
12500W        W28634   2.257  19.177  13.319 -0.1622 -0.0743 -0.2753
12501W        W28635  18.549   0.924   3.492  0.1937 -0.0696 -0.0522
12502W        W28636   1.139  16.085   1.979  0.0602 -0.2349 -0.2456
12503W        W28637   4.659  19.313  13.670  0.1023 -0.1150  0.4181
12504W        W28638   4.315  13.578   0.469 -0.3220  0.1280 -0.0371
12505W        W28639   0.154   7.117  10.668 -0.2509  0.2011 -0.1267
12506W        W28640   1.737  11.957   9.578 -0.0205 -0.3799 -0.0192
12507W        W28641   8.893   6.111  11.088 -0.1190  0.2755 -0.1721
12508W        W28642  17.858   5.092   3.882 -0.0022  0.2754  0.0504
12509W        W28643  11.967   6.414  10.186 -0.1572 -0.2693 -0.0279
12510W        W28644   9.765   1.730   0.722 -0.2740  0.1204  0.0244
12511W        W28645   4.909   3.389   4.180 -0.0422  0.1376  0.0401
12512W        W28646  15.872   6.197  12.993 -0.1008  0.0476 -0.0829
12513W        W28647   1.031  10.140   4.158 -0.1674  0.1385 -0.0783
12514W        W28648  13.903   4.672  14.809  0.0652 -0.4000  0.0535
12515W        W28649   6.245   0.875   4.923 -0.0996 -0.0918 -0.0614
12516W        W28650  12.124  11.605  10.864 -0.2066 -0.1017 -0.0673
12517W        W28651  14.793   8.701   5.143  0.1907 -0.0298  0.0473
12518W        W28652   9.541  12.969  11.788 -0.3381 -0.2476 -0.1632
12519W        W28653   7.172   8.830  11.907  0.2227  0.2802 -0.1667
12520W        W28654  14.339  11.102  10.583 -0.1028  0.3590  0.1565
12521W        W28655  17.150   8.304   3.979  0.2108  0.0615  0.3007
12522W        W28656   5.547   5.103   5.132  0.0597 -0.0182  0.1106
12523W        W28657   6.115   1.622   0.141  0.0083  0.1269 -0.0731
12524W        W28658  13.742  14.787  14.515 -0.1000  0.0986  0.1789
12525W        W28659  12.078  13.494   1.375 -0.0151 -0.2374  0.2492
12526W        W28660   8.431  12.817  14.574 -0.0974 -0.2342 -0.1738
12527W        W28661  17.823   5.931   4.411 -0.1204  0.0207 -0.0730
12528W        W28662   8.538   8.029   2.125  0.1109 -0.0010 -0.0839
12529W        W28663   3.230   4.165   5.067  0.0065  0.1011 -0.0898
12530W        W28664  14.072   6.074  10.446 -0.2517 -0.1173  0.2076
12531W        W28665   7.236  16.661  13.167  0.2992 -0.2370  0.1601
12532W        W28666   4.230  19.198  14.365  0.0474  0.0980  0.1428
12533W        W28667   5.915  13.549  14.546  0.0207  0.2460 -0.2805
12534W        W28668  11.403  17.833   0.540 -0.0167  0.0257 -0.0039
12535W        W28669   7.626   8.748  11.792  0.0691 -0.0957 -0.1220
12536W        W28670  14.569   8.122  14.937 -0.2992  0.0831 -0.2725
12537W        W28671  14.888   8.066   1.707  0.0642 -0.0112  0.0438
12538W        W28672   7.904   3.954   0.572  0.2169 -0.4528  0.1207
12539W        W28673  16.216   6.944   2.601  0.0059  0.0363  0.0988
12540W        W28674  15.642   7.485  12.742  0.0427  0.0944  0.1711
12541W        W28675  12.879  14.112  14.759 -0.0508 -0.1325 -0.1916
12542W        W28676  17.986   3.705   4.216 -0.4004 -0.0801 -0.0976
12543W        W28677   8.290  16.408   0.966  0.0871  0.2776  0.1784
12544W        W28678  11.454   6.262   2.234  0.1326 -0.4612 -0.1058
12545W        W28679  14.396  15.394   9.852 -0.0409 -0.3200  0.1939
12546W        W28680  16.765  14.527   3.226  0.1507  0.1910 -0.0325
12547W        W28681  12.671   5.225  12.519  0.0797  0.4336  0.3991
12548W        W28682  11.495   2.810  11.400 -0.3114  0.1424  0.0901
12549W        W28683  13.375   9.946  12.793 -0.0612 -0.1831  0.1034
12550W        W28684   1.312  17.547  10.310 -0.2657  0.0975 -0.0633
12551W        W28685  17.400  12.372   2.512  0.2066  0.1657 -0.0461
12552W        W28686   2.698  18.957   3.903 -0.3116  0.0558  0.0694
12553W        W28687   1.768  11.414   3.586 -0.1524  0.1937  0.0813
12554W        W28688   8.714   2.239   5.865 -0.1901  0.1114 -0.0228
12555W        W28689  17.611  13.624   0.569 -0.2209  0.3407  0.0514
12556W        W28690  19.257  13.814  12.155  0.1772 -0.0207 -0.0251
12557W        W28691   1.534   5.909  11.413  0.0023 -0.0915 -0.1360
12558W        W28692  14.536   8.136   4.990  0.0098  0.0796 -0.3045
12559W        W28693  13.308   4.500   2.821  0.0265 -0.1254 -0.2943
12560W        W28694  19.299  13.093  14.405 -0.0301  0.1171 -0.0143
12561W        W28695  12.413   6.537   3.217  0.3706  0.0385 -0.2148
12562W        W28696  13.593   9.302  14.847 -0.1516  0.0012  0.2550
12563W        W28697   1.419   9.790   2.192 -0.0105  0.3415 -0.1114
12564W        W28698  15.190  13.442  12.285 -0.1598  0.0633  0.2262
12565W        W28699   8.305   8.301  11.380 -0.2857 -0.2308  0.0748
12566W        W28700   0.637   6.852  11.355 -0.1057  0.1040 -0.0423
12567W        W28701  17.448  18.966   3.442  0.0647 -0.2804  0.2382
12568W        W28702   9.151  10.952  12.069  0.2731  0.0538  0.0555
12569W        W28703  17.541  16.365   4.694  0.3003 -0.1361  0.0649
12570W        W28704  14.276  16.241  12.750  0.3067 -0.2305  0.2655
12571W        W28705   4.044   4.559  11.517  0.0809  0.2203 -0.1256
12572W        W28706   2.113  17.216  13.491  0.0626 -0.1631 -0.2104
12573W        W28707   5.621   0.246   0.559 -0.1107 -0.1303  0.2350
12574W        W28708  19.316  12.829   5.419 -0.0183 -0.0638 -0.1190
12575W        W28709  11.690   8.083  12.712  0.0161  0.0687  0.1252
12576W        W28710  14.083  14.135   4.192  0.1540 -0.0803  0.3100
12577W        W28711  12.289   2.030   1.218  0.1043 -0.2525  0.2005
12578W        W28712   2.988  15.610  11.922  0.3907  0.0612  0.1730
12579W        W28713   0.445  19.229   0.232  0.1393  0.0971 -0.1360
12580W        W28714   4.897   3.074   2.969 -0.0210 -0.0267  0.2628
12581W        W28715  15.688   7.972   1.747  0.0845  0.1712  0.0611
12582W        W28716  11.102  16.530   3.107  0.1171  0.1700 -0.0499
12583W        W28717  15.225  15.326   0.200 -0.1732 -0.1236 -0.2813
12584W        W28718  18.672   2.509  13.512  0.3516 -0.3305 -0.0053
12585W        W28719  12.321  14.391  11.516  0.1287 -0.1039 -0.0018
12586W        W28720  14.126   1.513  14.735  0.1173  0.4358  0.0430
12587W        W28721   8.300   4.982  12.137  0.1958 -0.1777  0.1109
12588W        W28722  11.420  16.777  13.898 -0.0525 -0.4579 -0.0719
12589W        W28723  17.912   0.683   0.741 -0.4192  0.0322  0.0778
12590W        W28724  18.877  10.066  10.997  0.1634  0.2443  0.2502
12591W        W28725   8.482   0.813   1.029 -0.2531 -0.0536 -0.1902
12592W        W28726   1.335   2.583  13.180 -0.1157 -0.0945 -0.2271
12593W        W28727  11.849   0.688   0.669 -0.1822 -0.4838 -0.1647
12594W        W28728  14.040   0.290   0.947 -0.0519  0.1872 -0.2058
12595W        W28729  13.220   2.996  14.346  0.3847  0.3896 -0.4501
12596W        W28730  17.789   6.627  14.897 -0.2222  0.2900 -0.3487
12597W        W28731   6.404   9.920   1.544 -0.0094  0.1217 -0.0006
12598W        W28732   5.289   9.300   4.177  0.0612  0.0780  0.2478
12599W        W28733   9.853   6.370  13.814 -0.0927  0.3675 -0.3787
12600W        W28734  15.902  15.380  14.812 -0.1451 -0.0819 -0.0173
12601W        W28735   0.962   5.797  14.981  0.4170  0.1868  0.1286
12602W        W28736  17.608  17.586  14.395 -0.1348 -0.0235 -0.2872
12603W        W28737   2.695   8.532   3.722  0.1051  0.0389  0.3412
12604W        W28738  17.637  19.174  13.365 -0.3035 -0.2730  0.1190
12605W        W28739   7.689   4.957  13.890  0.4000 -0.0168  0.0937
12606W        W28740   0.648  11.538   5.239 -0.3458  0.0041 -0.1544
12607W        W28741  12.849  10.246   4.977  0.1026  0.1270 -0.0397
12608W        W28742   1.518   3.964   1.018 -0.0228 -0.0879  0.0917
12609W        W28743  13.450  13.436  12.506  0.2557  0.0685 -0.1043
12610W        W28744  14.333   0.327  11.833  0.0777 -0.0610  0.0305
12611W        W28745   9.744   8.396  14.841 -0.2199  0.0289  0.2751
12612W        W28746   2.294   7.640  13.459  0.3944 -0.1138  0.0153
12613W        W28747   9.582   7.224   1.590 -0.1973 -0.0672 -0.0608
12614W        W28748   6.559   1.159  14.496 -0.0783  0.0719 -0.3658
12615W        W28749   6.082   4.840  10.799  0.2181 -0.1372  0.0158
12616W        W28750  10.382   5.663   2.658  0.1503  0.4385  0.2593
12617W        W28751  13.567  16.024   4.044  0.2658  0.2270 -0.0232
12618W        W28752   2.061  16.396  14.688 -0.3868 -0.2856  0.0029
12619W        W28753  14.997   8.736  13.545  0.0451  0.1783  0.0408
12620W        W28754   7.985   3.381  13.380  0.0225 -0.2207 -0.1862
12621W        W28755   2.140   3.167   4.096 -0.0182 -0.4102  0.2910
12622W        W28756   1.824  14.110   4.632 -0.1725 -0.0802 -0.1454
12623W        W28757  16.627   7.213  14.084 -0.0144  0.0447 -0.1686
12624W        W28758  14.175  12.787   0.492 -0.3531 -0.0923 -0.2345
12625W        W28759   3.585  14.563  11.228  0.1716 -0.2688 -0.1998
12626W        W28760  17.820  15.598  11.504 -0.2021 -0.0182 -0.5111
12627W        W28761   3.214   6.367  13.552 -0.2547  0.0327 -0.0182
12628W        W28762   4.370   4.806   3.256 -0.0164  0.1080  0.0094
12629W        W28763  13.000   0.304  14.931 -0.0113 -0.1546  0.1188
12630W        W28764   5.403   2.939   2.977  0.1275 -0.1812 -0.1451
12631W        W28765  16.637  12.395   1.554 -0.3432 -0.1028 -0.0442
12632W        W28766  13.277  11.656   3.477 -0.3072  0.0719 -0.3308
12633W        W28767   5.393   6.355  11.034  0.2436  0.0121 -0.2379
12634W        W28768  13.017   9.659   4.288 -0.1063  0.0334  0.0803
12635W        W28769  15.178   8.601  14.062 -0.2031  0.1048  0.0035
12636W        W28770   4.972   1.849  11.559  0.1625 -0.1493 -0.1061
12637W        W28771   5.624   8.695  13.536 -0.0863 -0.2919 -0.1560
12638W        W28772   0.397   3.454  14.634  0.5340 -0.0499 -0.0059
12639W        W28773   0.962  12.034  12.275 -0.2010  0.2952 -0.1166
12640W        W28774  13.498   9.844   1.412  0.0424 -0.1459 -0.2084
12641W        W28775   9.416  17.720  12.508  0.1902  0.2213  0.0185
12642W        W28776   3.702  19.207  11.855 -0.0281 -0.3272  0.1809
12643W        W28777   2.539  13.564  13.290  0.2154 -0.2754 -0.2328
12644W        W28778   1.017  11.073  11.415  0.0897  0.2906 -0.0206
12645W        W28779  13.967  13.875  11.063 -0.0994  0.3417 -0.1229
12646W        W28780  12.920  13.486   0.753 -0.1362 -0.1645 -0.2064
12647W        W28781  11.121  14.766  12.620 -0.1984 -0.1128  0.0846
12648W        W28782  12.552   1.220  14.776 -0.1066  0.2962  0.1288
12649W        W28783  11.568  12.846  13.046 -0.2271 -0.1652  0.0375
12650W        W28784   7.203   3.804   2.399  0.0381  0.1692 -0.0042
12651W        W28785  13.159  12.164  14.056  0.0626 -0.0906 -0.0447
12652W        W28786   8.958  16.576  14.510 -0.1699  0.2380  0.1924
12653W        W28787  16.511  19.216   1.174 -0.0230 -0.3429 -0.0529
12654W        W28788  18.364   5.584   2.818 -0.1181  0.5201 -0.0819
12655W        W28789   1.701  17.173   5.914 -0.0618 -0.1754 -0.1565
12656W        W28790   7.071   8.492   1.837 -0.0748  0.1569  0.2051
12657W        W28791  12.095   8.336  13.419  0.1657  0.1005 -0.1225
12658W        W28792   1.290  18.479  14.152  0.0491  0.0263  0.0945
12659W        W28793   0.650  10.237  14.155 -0.0325  0.3881 -0.0797
12660W        W28794  15.853   0.725  12.175 -0.1566  0.1896 -0.0404
12661W        W28795  12.325  13.837   4.558 -0.2260  0.1759 -0.2530
12662W        W28796   8.736   5.320  13.706  0.0678  0.0404 -0.3970
12663W        W28797   6.072  16.644  14.141  0.5890  0.0808  0.1452
12664W        W28798  11.818   4.608  14.488 -0.1817 -0.2016 -0.0898
12665W        W28799   4.969  13.525   1.324  0.1488 -0.1854  0.2490
12666W        W28800   0.734   3.026  10.723 -0.3205  0.0268 -0.3091
12667W        W28801   5.176   1.802  14.580 -0.1313 -0.1504 -0.1631
12668W        W28802   1.312  18.154   4.909  0.2933 -0.2603 -0.0963
12669W        W28803  12.844  17.136  13.524 -0.0589 -0.2037 -0.0978
12670W        W28804  13.745  18.790  13.856 -0.0639 -0.5611 -0.1401
12671W        W28805   7.963  18.222  14.223  0.1800  0.1090  0.2268
12672W        W28806   8.198  16.975   9.903 -0.1259 -0.4093 -0.2400
12673W        W28807  12.165  10.743   1.898 -0.2213  0.0744  0.0801
12674W        W28808   8.715  18.828  12.190 -0.3147 -0.2509  0.0490
12675W        W28809   0.370   4.831  14.700 -0.2514 -0.4216 -0.1309
12676W        W28810  19.178   6.512  11.381  0.0486 -0.0769  0.2214
12677W        W28811   0.127   3.327   1.828 -0.0382  0.3550  0.0588
12678W        W28812  11.318   5.656  10.587 -0.1593  0.0562  0.0845
12679W        W28813  14.240   4.753  14.395  0.1302 -0.1893  0.3242
12680W        W28814  15.280   9.339   2.860 -0.2910 -0.0181  0.1481
12681W        W28815   2.557  16.333  10.610 -0.1110  0.1499 -0.1618
12682W        W28816  18.260   1.401  11.838 -0.0913 -0.0211  0.3679
12683W        W28817   3.334   3.939   4.305 -0.1061  0.3724 -0.0402
12684W        W28818  15.574   9.353   4.944  0.1249  0.2867  0.0892
12685W        W28819   3.914   3.075  13.918  0.1040  0.1757 -0.0753
12686W        W28820   6.707  14.994  11.340  0.0252  0.2471 -0.3183
12687W        W28821   1.028  16.274   0.770 -0.1348 -0.3364 -0.0198
12688W        W28822  12.992  15.920   3.146  0.0498 -0.0495  0.2674
12689W        W28823  16.534  11.384   0.938 -0.3497  0.2527 -0.0273
12690W        W28824  10.846   4.087  13.785  0.0120  0.0908 -0.0897
12691W        W28825  17.892   7.820  12.551  0.0781  0.2020  0.3663
12692W        W28826  14.309   3.122   4.970 -0.2361  0.0127 -0.0137
12693W        W28827   0.260   0.453  13.381  0.2902 -0.0478  0.0664
12694W        W28828  15.241   2.232   4.534  0.0816 -0.0629 -0.1174
12695W        W28829   0.120   4.991   5.387  0.5021  0.2351  0.0134
12696W        W28830   2.357  10.296  13.872  0.3114  0.0371 -0.2769
12697W        W28831  17.040   0.705   5.019 -0.1242 -0.3802  0.0269
12698W        W28832   7.774  15.348   0.234  0.2140 -0.2419 -0.2754
12699W        W28833   5.400   7.107   5.343 -0.0119  0.0367 -0.2371
12700W        W28834  10.440   7.740  12.308  0.0665  0.0256 -0.1858
12701W        W28835   0.274   3.317  12.635 -0.2327 -0.3183 -0.0097
12702W        W28836  13.544  15.275   3.318 -0.1223  0.0035 -0.2231
12703W        W28837  10.088  18.054   0.902  0.1229  0.1379  0.2112
12704W        W28838  17.191  19.023  12.614 -0.1931 -0.2726 -0.1059
12705W        W28839  10.051  12.361   2.611 -0.2824  0.0560  0.0166
12706W        W28840   2.780   0.913   3.743  0.0614  0.0975 -0.2785
12707W        W28841  12.906  12.661  14.737  0.2364  0.3356 -0.1230
12708W        W28842  14.418  15.177   2.382 -0.0492 -0.0640  0.2854
12709W        W28843  11.431   6.175   3.191 -0.2273  0.1495  0.0959
12710W        W28844  17.170  17.716  12.288  0.0247 -0.3109  0.0006
12711W        W28845  18.683   1.104  11.511  0.0271  0.2197  0.2860
12712W        W28846  18.619  15.271   2.023 -0.4845  0.0346  0.0221
12713W        W28847   9.001   1.295   3.942  0.2890 -0.1558  0.1222
12714W        W28848   9.149   9.626  13.791  0.0760 -0.0534  0.0159
12715W        W28849  18.201  10.917  11.976 -0.1152  0.1067 -0.0404
12716W        W28850  12.010  19.244   3.673 -0.0680 -0.1507  0.2394
12717W        W28851  17.286   7.370  14.776 -0.2496  0.2183  0.4792
12718W        W28852   5.978   3.041  11.582 -0.0835  0.3500 -0.0590
12719W        W28853   4.440  16.840   4.585  0.0293 -0.1120 -0.1889
12720W        W28854   2.415   3.145  11.024  0.0554 -0.1094 -0.0763
12721W        W28855  18.391  11.970   3.239  0.0432 -0.0368  0.3170
12722W        W28856  19.180   8.396   4.883 -0.1579  0.0184  0.0394
12723W        W28857  19.008  14.394   0.378 -0.0181 -0.2416 -0.0586
12724W        W28858  18.669   2.343  12.316 -0.0960 -0.0385 -0.1166
12725W        W28859  13.903  10.252   1.188 -0.1899 -0.0675  0.0373
12726W        W28860  10.708   6.843   4.289 -0.3465  0.0940 -0.3144
12727W        W28861  18.361   6.888  14.480  0.2745  0.2042 -0.1860
12728W        W28862   5.194   5.422  14.364 -0.1940  0.1320 -0.0762
12729W        W28863   5.221   5.602   2.959 -0.1881 -0.0338 -0.1435
12730W        W28864  13.031  14.962  11.036  0.0614 -0.0611 -0.0914
12731W        W28865  15.077  14.947   3.647  0.2230  0.0454  0.2282
12732W        W28866   1.430   1.641   1.811  0.1550  0.1972 -0.1192
12733W        W28867  18.906   1.659  12.968 -0.2145 -0.0313  0.0635
12734W        W28868   9.155  10.645   1.716  0.1966  0.1190 -0.1101
12735W        W28869   0.125   2.981   4.687  0.0585  0.0244 -0.2351
12736W        W28870  13.879  15.822  14.594 -0.1362  0.0477  0.1063
12737W        W28871  18.382  18.032   5.247  0.3713 -0.0109 -0.0495
12738W        W28872   9.668   5.632  13.560  0.0952  0.0953  0.1346
12739W        W28873  10.150   7.947  12.656  0.0797  0.1128 -0.0819
12740W        W28874   1.053   8.733   2.744 -0.1461  0.1574  0.0118
12741W        W28875   4.751   0.737   0.280  0.0442  0.2257  0.0780
12742W        W28876  12.589   0.677   2.529  0.0590  0.0625  0.0223
12743W        W28877  13.205   3.658   4.283 -0.1128 -0.3912  0.2634
12744W        W28878   4.134  16.157   2.887  0.0421 -0.0806 -0.0042
12745W        W28879   6.693   5.232  12.910 -0.0172 -0.0555  0.1939
12746W        W28880   1.981   2.147  12.444 -0.1108  0.1096 -0.4146
12747W        W28881  10.040   9.546  13.217 -0.1840 -0.1698  0.0873
12748W        W28882   7.676   3.581  11.253 -0.1572  0.1517 -0.1827
12749W        W28883   0.963   3.561   9.329 -0.0905  0.0879 -0.0873
12750W        W28884  10.101  10.193  11.998  0.0977  0.2962  0.0775
12751W        W28885  14.280  17.004  10.841  0.1504  0.0032 -0.1570
12752W        W28886   0.085  13.979   3.733  0.2483  0.0629  0.0006
12753W        W28887   6.745  14.233  11.171 -0.0974  0.0133 -0.1731
12754W        W28888   9.982  12.276  14.524  0.0349 -0.0324 -0.1688
12755W        W28889   9.233  15.948   1.729  0.2966  0.1404  0.0343
12756W        W28890  18.821  12.291   1.095  0.0315 -0.1049 -0.3577
12757W        W28891  16.239  17.058   3.359 -0.0655 -0.0457  0.4207
12758W        W28892  11.949  12.864   1.101 -0.1760 -0.3408  0.0594
12759W        W28893   2.924   1.775  10.441 -0.0831  0.0932  0.3209
12760W        W28894  15.826  13.825   5.108  0.0175 -0.2149  0.0155
12761W        W28895   2.506  14.269  14.763 -0.0269  0.0549 -0.0426
12762W        W28896   0.025   2.821   4.046 -0.3260  0.0656  0.2503
12763W        W28897  10.067   6.968  14.464  0.2894 -0.2168  0.0424
12764W        W28898  12.126  17.106   1.637  0.0187  0.2724 -0.0719
12765W        W28899   0.603   0.370   0.993  0.2854 -0.3290  0.2271
12766W        W28900  13.621  10.290   1.612 -0.0041  0.3050  0.3819
12767W        W28901   1.199   7.181  10.316  0.0795 -0.3960  0.1396
12768W        W28902  13.568   6.345   2.459 -0.1788 -0.4574 -0.0209
12769W        W28903  12.220   3.539   5.647  0.2320 -0.2490 -0.0271
12770W        W28904   5.909  16.719   0.140 -0.0234  0.0825  0.2641
12771W        W28905   8.902   3.033   3.400  0.1788 -0.0876 -0.1681
12772W        W28906   3.361   6.005   0.065  0.0830 -0.2258 -0.2500
12773W        W28907   8.082  18.413   9.832  0.2001 -0.1282 -0.1282
12774W        W28908   2.485  18.056   2.718  0.0378  0.0894 -0.1773
12775W        W28909   1.543  10.827   2.152 -0.0231 -0.0378  0.0852
12776W        W28910   0.559   2.110  11.629 -0.0650  0.1548  0.1653
12777W        W28911   7.886   9.647   2.342  0.0199  0.3861  0.0718
12778W        W28912   6.112   6.956  11.421  0.0463  0.3654  0.2480
12779W        W28913  18.078  16.977   3.273 -0.3535 -0.0886 -0.1418
12780W        W28914   1.061  15.284   0.711 -0.2938  0.0859  0.1610
12781W        W28915   1.483   7.655   1.079  0.1629  0.0387 -0.1122
12782W        W28916   7.983  12.701  14.804 -0.0618 -0.1803 -0.0756
12783W        W28917  13.091   5.302  13.201 -0.1765 -0.0128  0.1367
12784W        W28918   6.532   6.839  12.694  0.1006 -0.0519 -0.1108
12785W        W28919   5.838  16.453  12.279  0.2042 -0.1702 -0.0534
12786W        W28920  18.090   9.043  12.715 -0.2320  0.0137  0.2382
12787W        W28921  18.238  17.118  13.869  0.1487  0.0203 -0.0180
12788W        W28922  17.758  12.360  10.085 -0.1471 -0.1720 -0.0725
12789W        W28923  18.739  10.964  10.132  0.2627 -0.0142 -0.0241
12790W        W28924   2.568   3.479   4.748 -0.0881 -0.1115 -0.0723
12791W        W28925  14.284   0.111  13.140  0.2795 -0.0551 -0.1963
12792W        W28926  12.351  14.363   2.733 -0.0063  0.0257 -0.2213
12793W        W28927   2.823  12.092   4.405 -0.0717 -0.0230  0.2531
12794W        W28928   5.400   8.758  11.218  0.2041 -0.0401 -0.2269
12795W        W28929  16.628  10.441  11.097 -0.1409  0.2237  0.1357
12796W        W28930   9.190  15.258   3.439  0.2845  0.3305  0.3238
12797W        W28931  17.430   4.649  14.360 -0.4657  0.0198 -0.0604
12798W        W28932   9.433  12.816  13.994 -0.1408  0.2453  0.0879
12799W        W28933   5.436   9.117  14.462  0.1107 -0.2882  0.1435
12800W        W28934  17.908   6.884  14.272  0.0539  0.1307  0.0129
12801W        W28935   1.088   5.548   2.560 -0.1984  0.0111 -0.0417
12802W        W28936  11.615   2.571   0.487 -0.3082  0.1811  0.2600
12803W        W28937  17.728   7.311  14.113 -0.0905 -0.3194 -0.0353
12804W        W28938  12.542   3.389   5.124 -0.0031 -0.1459  0.0440
12805W        W28939   2.536   0.665   2.959 -0.1216 -0.1413 -0.2086
12806W        W28940   0.202  16.710  14.110  0.1772 -0.0509 -0.2380
12807W        W28941  18.938  10.755   3.038  0.0891 -0.0793  0.1729
12808W        W28942   8.825  18.820   3.480 -0.1756  0.0942 -0.0093
12809W        W28943  13.676   7.759   0.990  0.0579  0.1267  0.1102
12810W        W28944   8.732   2.048  14.387  0.2974 -0.1904  0.1180
12811W        W28945   1.392   4.973  11.462  0.0641 -0.1559  0.1519
12812W        W28946  13.295   9.396  14.329 -0.1411  0.1399  0.0762
12813W        W28947   0.675   9.701   4.146  0.2136  0.1755  0.4313
12814W        W28948  11.291   0.336   1.778 -0.1515  0.1267  0.1848
12815W        W28949   5.283   6.152  12.342  0.0621 -0.1304 -0.0223
12816W        W28950  12.748  12.972   0.770 -0.1053 -0.0615 -0.0019
12817W        W28951  16.311   2.340   3.579  0.0304 -0.1840 -0.0244
12818W        W28952   3.821  12.794  13.618  0.0693 -0.0538  0.0563
12819W        W28953  18.787   2.011  13.816 -0.1038 -0.1611  0.0123
12820W        W28954   7.341   8.189   2.740 -0.1697 -0.2494  0.4627
12821W        W28955  12.596   2.550   0.405  0.0401 -0.3784 -0.3417
12822W        W28956  15.364  12.741  11.588 -0.0126 -0.1881  0.1195
12823W        W28957   2.742  11.479  10.717  0.0965  0.1683 -0.1506
12824W        W28958   7.394   5.489  11.750 -0.2299  0.6698  0.1901
12825W        W28959  18.010   1.388   9.651  0.2392  0.0243  0.2801
12826W        W28960  18.612   1.779   2.903 -0.0337  0.0886 -0.2340
12827W        W28961  14.496   7.725  11.039 -0.2764  0.0612 -0.1038
12828W        W28962   2.244   3.584  10.902  0.2400 -0.3862 -0.0381
12829W        W28963  10.553  15.136   0.645  0.2979  0.1199  0.0607
12830W        W28964   0.085   8.788   0.167 -0.0895  0.1342 -0.3135
12831W        W28965   2.672  12.778  14.850 -0.3138  0.0770 -0.1197
12832W        W28966  19.306  11.550   0.799  0.1908 -0.2082  0.2255
12833W        W28967  18.764   9.145  10.639  0.1561  0.0499 -0.2295
12834W        W28968  15.027  15.573  12.956 -0.4092  0.0146  0.1044
12835W        W28969   2.225   7.727   1.879 -0.1365  0.1826  0.0694
12836W        W28970   8.005   8.750  10.482 -0.0002 -0.2187  0.0362
12837W        W28971   0.349  14.814  14.101 -0.3854 -0.0458  0.3377
12838W        W28972  17.033  17.600   3.464 -0.2948  0.2737  0.3004
12839W        W28973  18.910   0.666   4.807 -0.0378  0.3611 -0.2679
12840W        W28974   3.012   9.538   4.696  0.3863  0.0903  0.2451
12841W        W28975   6.817  13.488   5.230 -0.2132  0.0729 -0.1857
12842W        W28976   8.693   8.333   1.034 -0.1709 -0.1015 -0.1365
12843W        W28977  10.983  11.177  11.131 -0.1569  0.0142 -0.1911
12844W        W28978   0.958  10.349  11.310 -0.1204  0.0150 -0.1573
12845W        W28979   9.775  11.289   3.751  0.2126  0.2373 -0.0264
12846W        W28980   5.342  11.876  13.694 -0.0417  0.3356 -0.1715
12847W        W28981   2.570   7.225  12.062  0.1005 -0.0975 -0.2288
12848W        W28982   6.495  11.731   1.081 -0.0014 -0.0511 -0.1707
12849W        W28983  14.851   7.087  14.176  0.2814  0.2627  0.0392
12850W        W28984  13.270  11.872   1.327  0.1735 -0.0896 -0.3208
12851W        W28985  18.611  16.782  11.052  0.1538 -0.0379 -0.0880
12852W        W28986   3.552  17.840  13.192 -0.1138 -0.1536  0.0638
12853W        W28987  13.865  10.899   1.229  0.1796  0.1662 -0.0678
12854W        W28988  10.343   7.222   4.205 -0.0286 -0.1175 -0.1609
12855W        W28989   6.219  16.307  12.773 -0.2525 -0.1150 -0.1706
12856W        W28990   4.407   7.254   0.575 -0.0965 -0.1990  0.0622
12857W        W28991   8.220  18.463  11.527 -0.0028  0.0392 -0.2258
12858W        W28992   9.560   4.716   5.458 -0.3090 -0.0825  0.2341
12859W        W28993   7.646   8.477  10.854  0.2538 -0.0947 -0.2714
12860W        W28994  14.741  15.150   1.047  0.0451 -0.0709 -0.0479
12861W        W28995   3.650   6.204  13.396 -0.1587 -0.1622 -0.1922
12862W        W28996  12.474   9.276   2.104 -0.1174  0.0443 -0.0602
12863W        W28997   4.665   9.441  13.116  0.0449 -0.2831 -0.0266
12864W        W28998  18.397  11.608  13.281  0.0569  0.4158  0.2990
12865W        W28999  12.740  18.813  10.968 -0.1729 -0.1031 -0.0478
12866W        W29000   1.538  14.589   0.507  0.0199  0.1555  0.0601
12867W        W29001   6.778  14.456   0.577  0.3999 -0.4304  0.3526
12868W        W29002   4.731  19.221   5.650 -0.0127  0.0975 -0.1188
12869W        W29003   9.299   0.088   4.286 -0.2076  0.3230  0.1511
12870W        W29004   9.105   8.791   0.121  0.2129 -0.0474 -0.2271
12871W        W29005   2.940   7.801  13.934  0.0205  0.0103  0.2067
12872W        W29006  12.748  15.897  10.596  0.3993 -0.0429  0.2294
12873W        W29007  18.781   3.546   0.225  0.0317  0.0947  0.0889
12874W        W29008  10.513  18.433   1.930  0.1932  0.0956 -0.1349
12875W        W29009  14.240  15.676   2.982 -0.0510  0.1397  0.0162
12876W        W29010  13.499  16.010  13.919  0.1917  0.4367 -0.0240
12877W        W29011   5.635   9.430   0.002 -0.0274 -0.0450  0.0018
12878W        W29012  14.150  14.948   1.591  0.0747 -0.2868 -0.3688
12879W        W29013  17.303   0.716  11.589  0.0121 -0.6145  0.1614
12880W        W29014   9.407  11.865  12.642  0.1347  0.2398 -0.2426
12881W        W29015   6.401  19.054   3.458  0.1134  0.0938  0.3554
12882W        W29016  16.049   8.564  11.301  0.1777 -0.2322  0.2721
12883W        W29017   2.749   7.438   1.452  0.0695  0.4867 -0.3455
12884W        W29018   1.638  16.116  11.736 -0.1223 -0.3403  0.0503
12885W        W29019  11.055  13.081  12.908  0.0143 -0.1182  0.1735
12886W        W29020  16.482  15.873   1.238  0.0479  0.3260 -0.2186
12887W        W29021   1.037  13.505   1.038  0.0851 -0.3152  0.2221
12888W        W29022  13.509  13.256   5.442 -0.1395 -0.2427  0.0657
12889W        W29023   0.685   1.496   2.493 -0.1013 -0.1088  0.1830
12890W        W29024   9.819  10.342   3.707  0.0691  0.0513 -0.1730
12891W        W29025   6.151  15.476   4.065  0.0459  0.1418  0.0598
12892W        W29026   6.451   0.109  13.267 -0.1450  0.0354  0.4300
12893W        W29027   7.951   0.557   1.769 -0.0113  0.0954 -0.1668
12894W        W29028  11.715   9.094   2.490 -0.1254 -0.1140 -0.0830
12895W        W29029   7.708  17.926  14.803  0.2046  0.1866 -0.1696
12896W        W29030  17.338   5.673  14.327  0.1769 -0.0223  0.1586
12897W        W29031  12.514  12.766   2.895  0.0854  0.0431 -0.1311
12898W        W29032   1.666   9.000  11.296 -0.2937  0.1909  0.3145
12899W        W29033  19.099   9.272   1.443 -0.3158 -0.1819  0.0089
12900W        W29034  10.515   2.153  14.088 -0.1140  0.1297  0.0687
12901W        W29035   3.194  10.484   2.452  0.0908 -0.0142 -0.3364
12902W        W29036   9.000   2.181  11.492  0.2901  0.0645  0.1949
12903W        W29037  10.130  18.697   4.187  0.3881 -0.1250  0.0615
12904W        W29038   4.568  14.120  12.673 -0.1537  0.0658  0.2556
12905W        W29039   8.194  10.797   0.207 -0.0498  0.0257  0.0190
12906W        W29040  16.405   4.106   4.043  0.0530 -0.1999  0.3168
12907W        W29041   9.749   2.928   0.885 -0.2294  0.0452  0.0632
12908W        W29042  10.514  18.592   4.554 -0.0474  0.1601  0.1004
12909W        W29043  10.964   5.187  12.313 -0.1722 -0.3491 -0.3543
12910W        W29044   7.861  18.664  13.992 -0.0882  0.2053 -0.2927
12911W        W29045  16.058   4.826  14.740  0.1102 -0.2145 -0.1071
12912W        W29046   3.821   1.770  14.973 -0.6221 -0.0044 -0.1094
12913W        W29047   2.759   0.536   3.476  0.0264 -0.3042 -0.0189
12914W        W29048   1.388   3.744   1.509  0.1860 -0.4295 -0.0375
12915W        W29049  18.548   0.115   1.382 -0.2006 -0.1577  0.0792
12916W        W29050  14.899   6.851   2.223  0.0271 -0.4262 -0.0011
12917W        W29051  16.550   4.480  14.249  0.3958  0.3123  0.2005
12918W        W29052   6.387  15.853   2.653 -0.2936 -0.4370 -0.1051
12919W        W29053  17.958   1.822  13.368 -0.0042 -0.1802 -0.1509
12920W        W29054   9.793   4.118  14.133 -0.2328  0.0676 -0.0563
12921W        W29055  17.495  13.001   3.265 -0.0365  0.0069  0.0160
12922W        W29056   6.004  11.374  12.941 -0.3836 -0.2223  0.0083
12923W        W29057   3.461   6.910  10.411 -0.4163 -0.0207  0.0443
12924W        W29058  18.587   4.054   1.653 -0.0357 -0.2326  0.1452
12925W        W29059  10.288   1.576  11.952  0.1617  0.1098  0.1678
12926W        W29060   8.256  15.356   4.910 -0.0445  0.1360  0.0741
12927W        W29061  16.664   2.823  10.826  0.1083 -0.1728 -0.1315
12928W        W29062   8.067   3.796  12.721 -0.1186  0.4154  0.1692
12929W        W29063   9.967  16.430  14.450 -0.3726 -0.1056 -0.0321
12930W        W29064  17.720  18.036   1.435  0.2355  0.2426  0.1506
12931W        W29065  14.521   1.355   1.658  0.1244  0.0960 -0.1194
12932W        W29066  18.936  12.275  10.617 -0.0690 -0.1912  0.2170
12933W        W29067   7.519   8.532   3.058 -0.0732  0.0455 -0.0556
12934W        W29068  15.644   2.683   5.302 -0.0739 -0.0768  0.1807
12935W        W29069   3.826  13.845   2.308 -0.1118 -0.0701 -0.0563
12936W        W29070  16.777   7.222  12.086  0.1470  0.1176  0.0211
12937W        W29071   6.077  10.943   2.056 -0.1968  0.1196 -0.2001
12938W        W29072   4.917   3.960  10.174 -0.0878  0.1894 -0.0649
12939W        W29073  16.900   7.364   0.141  0.1176  0.0409  0.0177
12940W        W29074  18.001  16.341   1.059 -0.0394 -0.2115 -0.1898
12941W        W29075   9.668   0.787  11.623  0.1154 -0.0699 -0.2110
12942W        W29076  13.108  15.710   2.168 -0.0557  0.1505 -0.0111
12943W        W29077  11.030  15.200   4.764  0.2166  0.0137 -0.2640
12944W        W29078  12.773   6.009   3.746 -0.0382 -0.2271  0.0431
12945W        W29079   1.109   4.938  14.016 -0.0727 -0.1913  0.0526
12946W        W29080  17.197  14.447  13.054 -0.0617  0.1404 -0.2916
12947W        W29081   7.089   9.372   4.648  0.3314  0.3091  0.0981
12948W        W29082  13.244   6.476  11.639  0.0025 -0.1098 -0.1575
12949W        W29083   9.359   5.050   1.184  0.3186  0.0299 -0.2715
12950W        W29084   4.651  16.344   2.198  0.1455 -0.0393 -0.2546
12951W        W29085  12.326   0.826  11.056  0.0238 -0.4562 -0.1727
12952W        W29086  15.275   3.053  12.303 -0.0551 -0.3426 -0.0774
12953W        W29087  18.374  15.273   9.342 -0.0384  0.2442 -0.0071
12954W        W29088  13.363  15.436   5.493  0.0227 -0.0064  0.2195
12955W        W29089   4.763   6.870  11.299  0.1831  0.0122  0.0130
12956W        W29090  13.767  14.246  13.733 -0.0271  0.2224  0.3235
12957W        W29091  18.116   6.756   0.829  0.3108 -0.2369 -0.2045
12958W        W29092   4.675   4.963  12.508  0.2009 -0.0018 -0.1125
12959W        W29093   1.742   7.120  14.266  0.1029  0.2362  0.1534
12960W        W29094  10.698  14.412  14.281 -0.0420 -0.4399 -0.0606
12961W        W29095   9.135  14.161   1.790 -0.1354  0.1336 -0.0114
12962W        W29096   3.185   7.366  13.007 -0.0426 -0.4213 -0.2906
12963W        W29097  14.174   9.296   1.432 -0.0542 -0.0405 -0.0631
12964W        W29098  12.792  17.972   0.586  0.0234 -0.2397 -0.1991
12965W        W29099   4.505   5.809   4.810 -0.0554  0.3944  0.1990
12966W        W29100  14.431  14.935  12.053 -0.0988  0.3221 -0.0426
12967W        W29101   3.213   3.119  11.051  0.1161 -0.1807  0.0636
12968W        W29102   2.689   7.726   3.478 -0.0429 -0.3245 -0.0586
12969W        W29103  19.258  14.938   3.815  0.0670 -0.0578  0.2604
12970W        W29104  16.127  19.283   3.777  0.3495  0.1115 -0.1540
12971W        W29105  16.173   7.404   2.726 -0.2719  0.1858 -0.0166
12972W        W29106  18.600  19.030   2.738  0.0306 -0.3967  0.2066
12973W        W29107  11.670   2.181  11.703  0.0632  0.0813  0.2579
12974W        W29108  15.268  12.679  13.975 -0.1271 -0.1340 -0.1337
12975W        W29109   1.419   6.142   4.654 -0.2093  0.0714  0.1857
12976W        W29110   5.729   4.776  14.571 -0.0649 -0.2346 -0.5767
12977W        W29111  14.906   1.376  11.041 -0.1033 -0.2155 -0.0196
12978W        W29112  15.177  17.239   3.400 -0.2594 -0.0361 -0.1059
12979W        W29113   3.211   9.544  11.965 -0.0944  0.3314  0.1518
12980W        W29114  17.372  14.432   4.565  0.3281 -0.2189  0.1085
12981W        W29115   6.570  16.007  12.909  0.1856  0.0480  0.0923
12982W        W29116  14.423  13.546  10.880  0.0176  0.0852 -0.0343
12983W        W29117  16.440   8.611  15.006  0.0312  0.0447 -0.0213
12984W        W29118  10.595  13.664   3.127 -0.2160  0.4512 -0.0774
12985W        W29119  14.885  13.025   0.743  0.1138 -0.0929 -0.0920
12986W        W29120  17.654  15.574  12.131  0.0110 -0.0015 -0.0223
12987W        W29121   4.976  12.809   1.569  0.1443  0.0002 -0.0949
12988W        W29122  13.699  11.207  12.277 -0.0951  0.0640  0.3298
12989W        W29123  18.953   8.184   2.807  0.1740 -0.3783  0.4349
12990W        W29124   1.791   7.481  11.186 -0.0413  0.0169  0.0201
12991W        W29125   8.165   1.589   0.996  0.0447  0.3508 -0.3384
12992W        W29126  11.772  16.475  14.729 -0.0466  0.1155  0.1260
12993W        W29127   6.541  12.766  12.656  0.1465 -0.1161  0.1697
12994W        W29128  10.658   4.246   4.060  0.2164  0.0597  0.1031
12995W        W29129   2.192  18.190   4.285 -0.2643 -0.1590  0.0610
12996W        W29130   7.250  16.794   1.189  0.2928 -0.1663 -0.1135
12997W        W29131  17.575   0.200   0.551 -0.0083  0.0143  0.1583
12998W        W29132   5.005   4.434  11.976  0.0045  0.2688 -0.2882
12999W        W29133   7.611  14.682  13.497  0.0452 -0.1272 -0.4417
13000W        W29134  12.016   0.033  12.017  0.1999 -0.2858  0.0209
13001W        W29135  18.503  12.260  10.329 -0.3450 -0.1218  0.0423
13002W        W29136   3.067   5.177   3.957 -0.2747 -0.2971 -0.0595
13003W        W29137   8.758  13.766  12.519 -0.2484  0.2090 -0.0606
13004W        W29138  10.374  15.899  10.538  0.1282 -0.0827 -0.0754
13005W        W29139  12.852   0.749  11.978 -0.1643 -0.1819 -0.3983
13006W        W29140   7.405  18.119  13.461 -0.0242 -0.1924  0.1775
13007W        W29141  18.114   6.210   9.229  0.1285  0.3093  0.1922
13008W        W29142  12.112  16.635  10.872  0.1584  0.4828 -0.2162
13009W        W29143  17.443   5.682  14.914 -0.0547 -0.1853 -0.1295
13010W        W29144   3.826   3.828   2.088 -0.1798  0.2190 -0.0977
13011W        W29145  17.471  15.016   3.463 -0.0746  0.1005  0.1867
13012W        W29146  14.006   1.718   0.875  0.0712  0.2412 -0.0715
13013W        W29147   9.404  10.553  11.724  0.1412  0.0224 -0.1075
13014W        W29148   7.172   4.271  14.068  0.1463 -0.2128 -0.1165
13015W        W29149   6.589  11.485  14.904 -0.2123  0.1845  0.1951
13016W        W29150   3.358   0.617  12.141 -0.1853  0.3230  0.0645
13017W        W29151  18.654  10.971   2.658  0.0394 -0.1092  0.0649
13018W        W29152   2.515   6.568   4.136  0.2049 -0.2148 -0.1498
13019W        W29153   2.035  17.880   5.571 -0.0281 -0.0116 -0.1641
13020W        W29154   0.306  11.335  13.970 -0.1792  0.0532 -0.1068
13021W        W29155  18.248  16.118  12.798 -0.0548  0.1462 -0.1078
13022W        W29156  18.570   2.836   2.602 -0.4639  0.1646 -0.2611
13023W        W29157  15.707   7.651  13.217  0.1770  0.0856  0.0972
13024W        W29158  18.913  15.153   4.134  0.1000  0.0896 -0.2995
13025W        W29159   3.773  17.769  10.363 -0.1157 -0.0022  0.0301
13026W        W29160  10.403  19.128  14.831 -0.2026 -0.1991 -0.2925
13027W        W29161   8.848   4.999  12.198  0.1807  0.0917  0.4105
13028W        W29162  17.165  15.160   3.847  0.2927 -0.2855 -0.1925
13029W        W29163  14.379   8.681   0.592  0.1384 -0.0874  0.2300
13030W        W29164   9.618   7.151  11.318 -0.1227 -0.1408  0.3750
13031W        W29165  18.140   0.544   2.743 -0.0343  0.2903  0.0584
13032W        W29166   7.513   9.303   2.542 -0.2590 -0.3014  0.1106
13033W        W29167  11.655  11.441   3.641 -0.2108  0.0566  0.3796
13034W        W29168   3.288  18.145  10.600 -0.0899  0.0164 -0.1402
13035W        W29169  12.865   7.754   3.417 -0.0449 -0.1771  0.1138
13036W        W29170  17.442   9.843  13.093  0.1512  0.1168 -0.1286
13037W        W29171   3.281  17.403  14.737 -0.0902  0.0594  0.2090
13038W        W29172  18.761  18.697  10.461  0.2112  0.3623  0.3567
13039W        W29173  15.109  19.000   3.106 -0.1272 -0.1070  0.5720
13040W        W29174   7.465  12.738  11.991 -0.2441 -0.0226  0.2297
13041W        W29175  13.029  11.685   3.073  0.2037  0.2821 -0.1701
13042W        W29176   4.553  18.584  10.126 -0.3190  0.0386 -0.1056
13043W        W29177  16.313   1.636   2.884 -0.3292  0.1952 -0.0018
13044W        W29178  10.011   7.685  10.758 -0.0327  0.2223  0.1422
13045W        W29179   1.574  17.715  13.142  0.1022  0.1487  0.0409
13046W        W29180  18.063  14.833  13.273  0.2283 -0.0759  0.0623
13047W        W29181  15.970  11.220   1.789  0.1493  0.0802  0.2327
13048W        W29182  12.152  16.133   1.749  0.1258  0.0194  0.1344
13049W        W29183   4.849   9.429  11.776 -0.3272 -0.3649 -0.0995
13050W        W29184   1.189   4.131  11.192 -0.0161 -0.0012 -0.0383
13051W        W29185  18.739   0.376   1.846  0.1188  0.0028 -0.1080
13052W        W29186  13.462   9.956  14.771 -0.0372 -0.0721 -0.0543
13053W        W29187  11.636   5.588   5.833 -0.1101  0.0344  0.0559
13054W        W29188   9.130   7.875   0.085  0.1409 -0.4219 -0.1785
13055W        W29189  14.847  11.915   0.561  0.0115 -0.0024 -0.1001
13056W        W29190   1.420   8.758  14.309 -0.2540 -0.0053  0.2510
13057W        W29191  14.869  10.615   0.029 -0.2976 -0.0440  0.2240
13058W        W29192   1.925   5.381   1.987 -0.4892 -0.3017 -0.1480
13059W        W29193   5.100  18.570  12.658 -0.0465 -0.0671 -0.4067
13060W        W29194   8.456   9.915   1.579 -0.0128 -0.0905  0.0566
13061W        W29195  11.545   0.623   6.025 -0.2048  0.1391  0.0074
13062W        W29196   7.044  12.520  13.390 -0.1998 -0.0121  0.0773
13063W        W29197   0.615  18.836  14.664  0.1243 -0.1329 -0.0827
13064W        W29198   0.157   3.008  13.920 -0.2389  0.2380 -0.0079
13065W        W29199  17.056   1.239   0.271  0.2101  0.1207  0.1590
13066W        W29200  17.497   0.319  14.182  0.0099 -0.1023  0.0394
13067W        W29201   3.943  13.832   9.836 -0.3518  0.1009  0.1350
13068W        W29202  18.845  18.414  12.773 -0.0792  0.3182  0.1421
13069W        W29203   5.607  14.490  13.558  0.3167  0.1881 -0.1508
13070W        W29204   9.393  11.198  13.163 -0.2813 -0.0537  0.4390
13071W        W29205  18.973   9.265  13.307 -0.2289  0.0027 -0.0513
13072W        W29206   6.552   4.536   0.788  0.0261 -0.0372  0.0295
13073W        W29207   1.697   8.622  12.248 -0.0092  0.1311 -0.1339
13074W        W29208   9.249  13.061   0.260  0.1736  0.0067  0.0962
13075W        W29209   9.213  13.050   3.668  0.1076 -0.2789  0.0465
13076W        W29210  19.067  16.286   3.461 -0.2318 -0.1058  0.2286
13077W        W29211  13.661  17.366  10.380  0.1386 -0.4016 -0.3890
13078W        W29212   5.763  10.267   0.559  0.0044 -0.2899  0.0354
13079W        W29213   1.145   3.851  13.799 -0.1030  0.3414 -0.0085
13080W        W29214  18.478  12.587   0.916  0.2104 -0.0050 -0.0441
13081W        W29215   8.212  10.262  10.086 -0.2057 -0.0193 -0.0586
13082W        W29216  10.973  13.392   0.086  0.0813  0.2958  0.0943
13083W        W29217   5.743  11.466   2.449 -0.2207  0.2695  0.0637
13084W        W29218   9.816  10.560   1.255  0.0985 -0.0279 -0.4722
13085W        W29219   0.832   3.839   4.730  0.2577 -0.1885  0.0324
13086W        W29220  15.690   9.699  13.935  0.0775  0.1036 -0.4655
13087W        W29221  15.564  11.098   4.449 -0.2215 -0.0028 -0.1385
13088W        W29222   4.830  14.088   1.978 -0.0845 -0.1762  0.0135
13089W        W29223   2.089   6.939   3.677  0.0656  0.1351 -0.0705
13090W        W29224   0.286   8.992   2.470  0.4515  0.1040 -0.3881
13091W        W29225   2.849   6.159   1.801 -0.1218 -0.1074  0.0285
13092W        W29226   3.318  19.239   1.270  0.2792 -0.2376  0.0007
13093W        W29227   6.852   8.052   2.948 -0.2135 -0.0432 -0.0525
13094W        W29228  13.948  16.092   3.042 -0.0167 -0.0014  0.1234
13095W        W29229   0.792   3.080   2.924 -0.1062 -0.0708 -0.5012
13096W        W29230   1.631   2.273   4.388  0.1655  0.0798  0.2662
13097W        W29231  11.570   7.507   1.387 -0.3267 -0.1289  0.0768
13098W        W29232  16.689   1.024   1.518 -0.1367  0.0469 -0.2641
13099W        W29233  13.769  17.107  10.901  0.1029  0.1588  0.5003
13100W        W29234   3.868   8.759   3.024 -0.0484  0.1320  0.0155
13101W        W29235  18.503  15.288  13.449 -0.1470  0.3510  0.0248
13102W        W29236  19.262   6.415   4.887 -0.2810 -0.2740 -0.1295
13103W        W29237  11.726  17.656  14.374 -0.3030 -0.0920 -0.3128
13104W        W29238   9.627  15.020   3.639  0.0171  0.0213 -0.0673
13105W        W29239  17.105  17.221   1.942  0.0437 -0.3585 -0.0434
13106W        W29240   9.574   8.848  14.024 -0.2801 -0.1043  0.1324
13107W        W29241   3.859   3.689   1.352 -0.1924 -0.1014  0.3026
13108W        W29242  10.882   0.363   2.896 -0.0915  0.0185 -0.3328
13109W        W29243  14.061   9.070   3.548 -0.1028 -0.0475  0.2087
13110W        W29244  16.240   7.775  13.287  0.0041 -0.0395  0.1439
13111W        W29245  14.295   7.319   0.428 -0.3633  0.0578  0.2742
13112W        W29246  17.414  10.228   1.230 -0.0349 -0.0922  0.2839
13113W        W29247   9.233  13.011  12.536  0.3332  0.0303 -0.0690
13114W        W29248   5.739   9.012   1.260  0.0423  0.1950 -0.1096
13115W        W29249  18.513   0.008   3.470  0.0751  0.1816  0.0384
13116W        W29250  12.118   9.204   1.241  0.1121  0.3966 -0.0602
13117W        W29251   7.046  18.853   4.649  0.1743  0.1595 -0.1402
13118W        W29252  10.899   9.118  14.779 -0.0658  0.2672  0.6869
13119W        W29253  18.146  12.594  10.229 -0.2213 -0.1080  0.0115
13120W        W29254  18.200  16.110  10.005 -0.1279 -0.0009 -0.0600
13121W        W29255   5.838  16.269   1.032 -0.1743 -0.3587  0.3567
13122W        W29256   5.456  18.702   0.864  0.1818 -0.4519 -0.1092
13123W        W29257   2.226  18.250  14.439 -0.0699  0.0408 -0.1799
13124W        W29258   8.666   4.404   3.149  0.3320  0.0949 -0.1136
13125W        W29259  12.226  11.861  12.977  0.0010 -0.2814  0.4528
13126W        W29260   7.119   7.396  11.634 -0.1122 -0.2191 -0.3244
13127W        W29261  10.219  17.720   2.721 -0.2302  0.0974 -0.1866
13128W        W29262  16.430   4.620   9.876 -0.3552 -0.0863 -0.1087
13129W        W29263  16.785   0.665  11.827 -0.2539 -0.0817 -0.1475
13130W        W29264  12.507  15.393  10.488 -0.2334  0.1061  0.0409
13131W        W29265  13.657  15.138   1.733 -0.2462  0.0480  0.2808
13132W        W29266  12.532  15.067  10.832 -0.0255  0.2370  0.2570
13133W        W29267  18.448  18.727  12.643  0.1624  0.1233  0.0046
13134W        W29268  16.440   9.461  10.931 -0.2530 -0.0594  0.0096
13135W        W29269  11.624   4.138  11.998 -0.2838 -0.1709  0.3411
13136W        W29270   4.896   5.364   5.550 -0.1119  0.0230 -0.0432
13137W        W29271  15.365   2.550   3.226 -0.0869  0.1813  0.0092
13138W        W29272   6.960   1.968  10.774  0.2326  0.1637  0.0134
13139W        W29273   1.104   6.097  13.062  0.1337 -0.2189 -0.0070
13140W        W29274   9.430   5.438  14.856  0.2286 -0.1107 -0.1691
13141W        W29275   7.668  11.836   4.037 -0.3774 -0.4428 -0.1739
13142W        W29276   4.924  17.979  13.369 -0.0613 -0.2564  0.0678
13143W        W29277  11.811   2.631  12.489 -0.2467  0.0306  0.0166
13144W        W29278   3.163  15.309  14.802 -0.0753 -0.0453 -0.0148
13145W        W29279   0.826   9.970  11.596 -0.0044  0.3689  0.0990
13146W        W29280   9.359   3.071   4.729  0.0566 -0.1646  0.0143
13147W        W29281   3.681  14.906   1.966 -0.0678 -0.0895  0.0535
13148W        W29282  10.890   2.416   2.588 -0.0685 -0.0515  0.0476
13149W        W29283   9.360   7.252   0.589  0.2915  0.0586 -0.2207
13150W        W29284  12.928   3.338  12.153  0.1606 -0.2396  0.2028
13151W        W29285   9.872   2.543  11.748  0.1054 -0.0047 -0.0240
13152W        W29286  15.906  11.858  12.882 -0.0637 -0.1161  0.1858
13153W        W29287  12.114   4.388   2.455 -0.2089  0.0451  0.2499
13154W        W29288  12.604  16.849  10.121  0.1170 -0.3263  0.0981
13155W        W29289  17.926  10.111   3.754 -0.0662  0.0902 -0.0715
13156W        W29290  13.690   7.031   1.805 -0.1695  0.0118  0.0767
13157W        W29291  11.810  18.147  14.289  0.4127  0.0394  0.0048
13158W        W29292   8.984  14.406   3.200  0.1378  0.1960 -0.1726
13159W        W29293  11.236   8.812   1.573 -0.4456  0.2852  0.3265
13160W        W29294  15.336  13.192   1.083 -0.0562  0.4628  0.0597
13161W        W29295   0.281  15.205  10.273 -0.1773 -0.1610  0.1484
13162W        W29296  14.615   8.962   4.419  0.0206  0.4009  0.1702
13163W        W29297  14.029   4.477  11.134 -0.1628  0.0140  0.1073
13164W        W29298  10.686  11.966  11.491  0.0186  0.0041  0.3817
13165W        W29299   6.211   3.670  10.626  0.1443  0.2667 -0.0264
13166W        W29300  17.883  11.982  10.457 -0.0575  0.0891 -0.3125
13167W        W29301   5.044  16.529   2.466  0.0351  0.1170 -0.1486
13168W        W29302  14.993   6.205  13.565  0.1784 -0.4086 -0.0822
13169W        W29303   0.453   0.304  11.344 -0.0221 -0.0906 -0.1047
13170W        W29304  10.022   0.499   0.882 -0.0429 -0.1310  0.2498
13171W        W29305  15.983  15.122  12.169 -0.0312  0.1631 -0.0200
13172W        W29306   6.443  17.891  12.850  0.0148 -0.2140  0.1680
13173W        W29307   4.236   5.135  11.798  0.1004 -0.1094 -0.2060
13174W        W29308  12.463  11.702  11.621  0.4081  0.1958 -0.4561
13175W        W29309  11.211  18.444   5.387  0.1616  0.1897 -0.1574
13176W        W29310   3.475  13.060   5.846  0.0652 -0.0449 -0.0201
13177W        W29311  14.163  13.312  13.398  0.1495  0.2025 -0.2627
13178W        W29312  16.086  18.048   2.283  0.4379 -0.1496 -0.1122
13179W        W29313  12.318   6.393   3.836  0.0169  0.0504  0.0263
13180W        W29314   0.652  18.832   4.877  0.0288 -0.1522 -0.0383
13181W        W29315   5.707   3.085  12.598 -0.0039  0.0838 -0.0981
13182W        W29316  17.920  15.259   4.917  0.0948  0.0024  0.1718
13183W        W29317  18.210   9.764  10.389 -0.1916 -0.3788 -0.2648
13184W        W29318   4.342   9.937  13.917  0.2432 -0.1360  0.2711
13185W        W29319  10.539  17.879  10.468  0.1127 -0.4713  0.0205
13186W        W29320  16.147  14.814  10.352 -0.3324 -0.0802  0.1732
13187W        W29321   3.277   0.440  14.719  0.3613 -0.0960 -0.0896
13188W        W29322  15.610  13.377   3.120  0.0556 -0.0730  0.0048
13189W        W29323  18.737  10.082   0.369 -0.2733  0.1282 -0.2106
13190W        W29324   6.935   1.451   1.250  0.0008  0.2754  0.2259
13191W        W29325   9.595  15.342   0.948  0.0141  0.0816 -0.1553
13192W        W29326  17.285  15.785   5.678 -0.0753 -0.2367  0.1131
13193W        W29327  10.076   8.519  10.488 -0.1173 -0.0366 -0.1762
13194W        W29328   8.604  17.911  12.201 -0.0252 -0.0183  0.1621
13195W        W29329   1.210  18.363   8.993 -0.2875 -0.1461  0.0540
13196W        W29330  12.024   9.195  10.685  0.0458  0.2189 -0.0716
13197W        W29331   7.153  13.398  11.887  0.1320 -0.0813 -0.3041
13198W        W29332  13.841   8.852  14.899  0.3369  0.0044  0.0460
13199W        W29333   6.441   1.610  13.655  0.0688  0.1634  0.0040
13200W        W29334  16.150   2.895  10.536  0.0213 -0.0493  0.2485
13201W        W29335   1.411   8.989   4.568  0.0997  0.0870 -0.2161
13202W        W29336  16.322  11.974  12.537 -0.1656  0.0142 -0.1777
13203W        W29337  12.337  12.025  12.018 -0.1058  0.0982 -0.2992
13204W        W29338  13.853  10.358   2.098  0.2394  0.2124 -0.0494
13205W        W29339   0.843   2.450  11.427  0.1084  0.0107 -0.3112
13206W        W29340  15.709  11.905   3.614  0.1277  0.1907  0.1583
13207W        W29341  16.883  13.877   3.781 -0.3921  0.1191 -0.3510
13208W        W29342  17.347  16.168  11.203 -0.0383 -0.2476 -0.1085
13209W        W29343  11.417  14.132   1.281  0.0948 -0.1240  0.1042
13210W        W29344  18.004   4.823   2.843  0.2660 -0.1545  0.0625
13211W        W29345   3.389  15.799  10.741 -0.2606 -0.4386  0.0061
13212W        W29346  10.047   9.107  10.099 -0.0606  0.1048 -0.2557
13213W        W29347  10.802   1.928   1.947 -0.0892 -0.2858 -0.1474
13214W        W29348   0.467   2.518   2.143 -0.1103 -0.0903  0.0831
13215W        W29349   0.659  19.307   5.061  0.0977  0.2011 -0.0223
13216W        W29350  16.442   8.732  13.337  0.2250 -0.0713  0.0072
13217W        W29351   3.049   3.342   4.629  0.0656 -0.0309 -0.0885
13218W        W29352   3.655  12.006   4.046 -0.0648  0.0135  0.0137
13219W        W29353  15.478   3.584  14.634 -0.0258 -0.1946  0.3397
13220W        W29354  14.004  10.209  13.340  0.2722 -0.1197 -0.1894
13221W        W29355   9.594  16.379   4.139 -0.0303 -0.0144 -0.3027
13222W        W29356   4.536  10.079  14.939  0.0874 -0.3742 -0.3205
13223W        W29357   5.358  18.548   4.405 -0.2584 -0.0643 -0.0237
13224W        W29358  15.235   7.628  12.133  0.0161  0.0241 -0.1785
13225W        W29359  10.694  16.091   1.013  0.0068 -0.3009  0.2665
13226W        W29360   2.695   0.077   4.346 -0.3361 -0.0254 -0.1387
13227W        W29361  16.680   9.048   1.694 -0.4828 -0.1084  0.0293
13228W        W29362   8.966   6.572  11.501 -0.2603  0.1563  0.0439
13229W        W29363  11.898  14.041  12.135  0.2199  0.1696 -0.1448
13230W        W29364  14.543  16.759   3.318  0.2125 -0.3041 -0.1018
13231W        W29365   9.028   7.909  12.386 -0.0460 -0.0810 -0.3131
13232W        W29366   0.051   4.938   4.006  0.1127  0.1302 -0.1004
13233W        W29367   7.471   8.156  12.795 -0.0882 -0.0849  0.3005
13234W        W29368  11.125   3.544   2.344 -0.0359 -0.1796 -0.2154
13235W        W29369   4.711  15.838   5.347 -0.1903 -0.0372  0.2992
13236W        W29370   0.537   1.488  12.784 -0.0209 -0.0681  0.0721
13237W        W29371   6.994  16.514  12.085 -0.1980 -0.0269  0.2136
13238W        W29372  18.474  15.813  13.634  0.0924  0.3545 -0.3760
13239W        W29373   0.856   8.064  12.095 -0.0223 -0.1636 -0.1025
13240W        W29374  15.285  17.698   4.188  0.4153  0.3340 -0.0697
13241W        W29375  10.865   2.229   1.438  0.0889 -0.1010  0.0356
13242W        W29376  13.379  16.894   3.363 -0.0193  0.0300  0.2594
13243W        W29377  18.994   3.739  11.511  0.0633 -0.0590 -0.2294
13244W        W29378  17.669   5.356  13.327  0.3721  0.2086  0.0954
13245W        W29379  10.651   3.370   4.187  0.1010 -0.1862  0.1161
13246W        W29380  18.704  17.114  10.496  0.2112  0.1672  0.0691
13247W        W29381  14.005   8.715  14.290  0.2960 -0.1440  0.0655
13248W        W29382   1.239  17.610   0.002 -0.1394 -0.2232 -0.0406
13249W        W29383  14.173  15.343  11.465 -0.1710 -0.2227  0.0806
13250W        W29384   5.606  16.807   0.984 -0.1799 -0.0903 -0.1726
13251W        W29385   5.817   3.634   1.369  0.0521  0.1687  0.1242
13252W        W29386  13.039  12.172   0.849 -0.0810  0.1110  0.1064
13253W        W29387   1.815  15.733   0.399 -0.3716 -0.0963 -0.4564
13254W        W29388   5.714  12.699   2.863 -0.2436  0.1396  0.4197
13255W        W29389   9.078  16.041   1.231 -0.1279 -0.2933  0.2486
13256W        W29390  17.722  15.893  11.084 -0.1495 -0.1337 -0.0545
13257W        W29391   8.984  14.130   2.308  0.3495  0.3061  0.3557
13258W        W29392   8.597   4.252  12.850 -0.1402  0.0701  0.1284
13259W        W29393  16.349  19.128  13.147  0.0101  0.3105 -0.0478
13260W        W29394  16.233   9.078  11.136 -0.1373 -0.0022 -0.2554
13261W        W29395   8.231   7.749  12.827 -0.0824  0.2352  0.2885
13262W        W29396   8.084  14.930   9.889  0.2398 -0.1972  0.1768
13263W        W29397  13.389   4.955  10.783 -0.1440 -0.1904 -0.0437
13264W        W29398  19.072  14.805  13.193  0.2001 -0.1088 -0.1498
13265W        W29399   7.149  17.194  13.391 -0.0205 -0.2439  0.2389
13266W        W29400   3.837  13.547  11.039 -0.3610 -0.0288 -0.1242
13267W        W29401  14.240  16.383   4.410  0.0495  0.2843  0.3662
13268W        W29402  14.425   0.458   2.074 -0.0211  0.1119 -0.4534
13269W        W29403  16.916   6.763   2.242  0.0400  0.1100 -0.2058
13270W        W29404   0.424  18.412   4.596  0.0406  0.0396 -0.1002
13271W        W29405   6.147  15.685  11.627  0.3068  0.0319 -0.1972
13272W        W29406   9.759  14.885  14.077 -0.0450  0.1415  0.1099
13273W        W29407   3.529   5.768   1.379 -0.0325  0.0397 -0.3951
13274W        W29408   8.417  12.274  11.410  0.1986 -0.0086  0.0569
13275W        W29409   3.283   9.186   1.437 -0.0625  0.2707 -0.1045
13276W        W29410   6.994   9.000   1.862 -0.2369  0.2083 -0.0138
13277W        W29411  16.124   4.748   1.819  0.1827  0.4462  0.1639
13278W        W29412  11.709   0.645  14.912  0.4442  0.3043 -0.0729
13279W        W29413  16.924   3.208  11.114 -0.0162 -0.0602  0.0494
13280W        W29414  12.553  13.216   9.994 -0.0854 -0.1172 -0.0779
13281W        W29415   0.681   7.226  12.579 -0.2127  0.0395 -0.4848
13282W        W29416   7.135  10.897  11.157  0.1401  0.1799  0.0925
13283W        W29417   4.483  10.023   4.329  0.1260 -0.0580 -0.0750
13284W        W29418   6.271  13.760  13.480  0.1263 -0.0073  0.1079
13285W        W29419   6.891  11.056  12.573  0.0623 -0.3191 -0.2083
13286W        W29420   0.363   0.874   0.844 -0.0811  0.2397 -0.2914
13287W        W29421  17.103  10.756   2.832 -0.1103  0.2265 -0.0669
13288W        W29422  11.628   9.077  11.503 -0.0728  0.0416 -0.3199
13289W        W29423   5.304  18.048  14.187  0.0406  0.1513  0.1462
13290W        W29424   7.723  13.799   2.558  0.1812 -0.2102 -0.1624
13291W        W29425  17.394   3.241  10.927  0.0205 -0.1324  0.2050
13292W        W29426  14.508  10.829   2.482  0.0381  0.0125 -0.0374
13293W        W29427  18.499   0.484  10.298  0.1661 -0.0611 -0.3351
13294W        W29428  18.345  12.282   2.508 -0.0185 -0.0751 -0.2403
13295W        W29429   8.624  12.140   1.377  0.1996  0.3564  0.1143
13296W        W29430  11.872   3.072  12.718  0.1134  0.0700  0.1418
13297W        W29431  14.845  15.986  13.661  0.0437  0.2384  0.0367
13298W        W29432   6.943   2.117   2.336  0.3247 -0.0114 -0.1063
13299W        W29433  15.893   4.774   0.217 -0.1621 -0.0612  0.0054
13300W        W29434  10.471  10.577  12.007 -0.4345  0.3163 -0.1489
13301W        W29435   7.091   5.075   4.181  0.0541 -0.0064 -0.1886
13302W        W29436  15.659  11.422   3.586  0.1668 -0.0042 -0.2286
13303W        W29437   1.685   4.927  12.658  0.0573 -0.3029  0.0805
13304W        W29438   9.603  10.370   2.814 -0.0546 -0.0551 -0.1039
13305W        W29439  18.559   9.502  13.481 -0.1644 -0.1449 -0.4170
13306W        W29440   8.644  14.285   1.931 -0.1052  0.0307 -0.0506
13307W        W29441   8.941   3.792  10.666  0.0954 -0.3596 -0.2471
13308W        W29442   5.255  18.541   2.134 -0.2171 -0.0315 -0.0164
13309W        W29443  14.238   3.426   4.532 -0.0335  0.1361 -0.0176
13310W        W29444   1.174  13.620   5.234 -0.2958 -0.4094 -0.0302
13311W        W29445   4.751  16.925  12.348  0.0047 -0.1671  0.2159
13312W        W29446   9.112   2.607   2.269 -0.0532 -0.1604  0.3113
13313W        W29447  16.217  12.846  13.384 -0.2255 -0.0705 -0.0665
13314W        W29448  17.854  11.160   3.784  0.0122  0.1213  0.0965
13315W        W29449   9.757   2.583  10.609  0.1450 -0.0472  0.2221
13316W        W29450  11.839   7.739  11.898  0.0098  0.0499  0.0974
13317W        W29451   8.755  18.545   0.209 -0.4202  0.0862 -0.1973
13318W        W29452   1.085   6.082  11.124 -0.0655  0.1380  0.1586
13319W        W29453  19.110  17.523  10.666  0.1024 -0.4355  0.2623
13320W        W29454  18.393  14.593   3.172  0.3296  0.2488  0.1305
13321W        W29455  18.953  11.813  11.938  0.0845 -0.0639  0.2157
13322W        W29456   2.211  14.531  12.566 -0.1049  0.2021  0.2247
13323W        W29457  13.442  17.070   2.589 -0.2083 -0.1195  0.0151
13324W        W29458  14.226  18.326  12.782  0.1707 -0.0600  0.4794
13325W        W29459   6.264  17.368  13.567  0.0894 -0.1953 -0.0500
13326W        W29460   1.624   8.308   0.494  0.0225  0.1818  0.0320
13327W        W29461   4.395   2.596   3.674  0.0645  0.0363 -0.1674
13328W        W29462   4.034   5.804   5.107 -0.0194  0.0510 -0.1683
13329W        W29463  14.609   9.442  13.410 -0.0069 -0.0832  0.1369
13330W        W29464  10.521   3.583   2.024 -0.4039 -0.0574 -0.3951
13331W        W29465   4.830  17.619   3.315 -0.0941 -0.0987  0.3786
13332W        W29466  10.534   8.694  10.721  0.1293  0.2713  0.7572
13333W        W29467   9.627   3.053  12.645 -0.1614  0.0726  0.1639
13334W        W29468   6.950   0.972  11.934  0.1501 -0.0808 -0.2658
13335W        W29469   4.187  18.544   0.076 -0.1512 -0.1009 -0.1057
13336W        W29470  15.596  15.701   0.156 -0.2755  0.2808  0.2651
13337W        W29471  10.941   1.948   0.409  0.0478  0.2147 -0.0587
13338W        W29472   1.166   6.010   3.463  0.0515 -0.2083 -0.4472
13339W        W29473   1.068  16.512   4.670  0.1424 -0.1737  0.3154
13340W        W29474   3.170   4.524  14.026 -0.1327  0.0473 -0.1861
13341W        W29475   9.024   2.421  14.549  0.1430  0.2134  0.1775
13342W        W29476  16.526  18.108   1.934 -0.3035  0.0165 -0.0008
13343W        W29477  17.153  15.582  14.989  0.1136  0.2766  0.3517
13344W        W29478  11.180   9.935  14.161  0.2439  0.0226  0.0899
13345W        W29479   1.926   3.649  11.850  0.1393  0.1948 -0.2022
13346W        W29480  17.569   4.008   0.605 -0.1644 -0.1782  0.2019
13347W        W29481   0.731   9.378  13.340  0.2119 -0.0181 -0.0873
13348W        W29482  18.349   2.122  13.414  0.1413 -0.0259 -0.3672
13349W        W29483  15.631   6.286  14.233  0.0591 -0.0482  0.2166
13350W        W29484   7.909   0.159   4.485  0.0887  0.0463  0.0496
13351W        W29485   4.101  17.249   4.570  0.2122 -0.2541  0.1727
13352W        W29486   3.266  18.885   9.290 -0.0475  0.3703  0.0239
13353W        W29487  12.943   0.961   4.780 -0.1675 -0.0392 -0.1457
13354W        W29488   4.688  12.891  14.145 -0.0778 -0.0731  0.2624
13355W        W29489  10.996  10.109   3.693 -0.1748 -0.0540  0.0370
13356W        W29490   3.999  19.206   0.740  0.0497  0.2101  0.0597
13357W        W29491   8.107  17.754  10.465 -0.0976 -0.1390  0.1174
13358W        W29492   1.826  15.626  10.899 -0.2665  0.0402  0.0454
13359W        W29493   5.195  15.018   1.402 -0.2181  0.3029  0.0572
13360W        W29494  16.195  11.086  14.367 -0.1030  0.4526  0.1310
13361W        W29495   4.878   9.695  10.702 -0.1696 -0.0050  0.1776
13362W        W29496   3.679   5.346  10.339  0.0865 -0.2258  0.0742
13363W        W29497  10.013   2.177  14.311 -0.1169 -0.1609  0.0283
13364W        W29498   8.082   7.442   1.731 -0.0356 -0.1692  0.3589
13365W        W29499  17.259  14.502  11.239  0.4002  0.3061  0.3625
13366W        W29500   4.878  10.478   2.151 -0.1519 -0.3613 -0.0018
13367W        W29501  11.074  14.153   4.811  0.2319 -0.0435 -0.1209
13368W        W29502  16.954  16.075   5.363 -0.2347  0.1681 -0.0814
13369W        W29503  18.435  18.274   3.303 -0.3132  0.1098  0.1003
13370W        W29504  11.723   1.187   0.574 -0.0924 -0.4241  0.1309
13371W        W29505   5.813   3.880   4.020  0.0686 -0.2411 -0.0093
13372W        W29506  15.932  12.823   1.717  0.0796 -0.1034 -0.0478
13373W        W29507  11.280  15.606   2.119 -0.0150  0.0951  0.1798
13374W        W29508   9.892   9.004   2.503 -0.0324  0.1391  0.1204
13375W        W29509  11.022  15.439   0.509  0.0669  0.2064  0.2023
13376W        W29510   3.765   2.548  11.586 -0.0531  0.1407  0.1098
13377W        W29511  16.696  15.893   2.977  0.2658  0.2948 -0.1028
13378W        W29512  18.655   6.930   4.609  0.2461  0.4540  0.1382
13379W        W29513   8.803  14.044   1.328 -0.0588  0.4623 -0.1070
13380W        W29514   1.103   2.267   4.425  0.0495  0.2989 -0.1478
13381W        W29515   3.695  16.035  12.843 -0.0980  0.1402  0.0695
13382W        W29516   1.307  16.222  14.005  0.2693  0.0789 -0.0113
13383W        W29517   8.778   2.557   1.361 -0.2220  0.1258 -0.1377
13384W        W29518  13.514   4.318   1.222 -0.0971  0.1220 -0.1210
13385W        W29519   4.483   4.864   5.298 -0.0352 -0.0170  0.0160
13386W        W29520  15.514  17.021  14.136 -0.0360 -0.1540  0.3058
13387W        W29521  15.660  17.329   3.268 -0.0060  0.2088  0.4362
13388W        W29522   5.977   1.679  11.311 -0.0034 -0.0524  0.0869
13389W        W29523   6.219   4.824   3.955  0.1165 -0.1255 -0.0537
13390W        W29524  15.834   2.441   0.576 -0.0509 -0.2143  0.2687
13391W        W29525   1.176   0.472   3.994 -0.0281  0.3198 -0.0393
13392W        W29526   2.838  18.946   3.435 -0.2770 -0.1348  0.1234
13393W        W29527  16.973  13.735  11.795  0.2369  0.0403 -0.1332
13394W        W29528  14.299   2.239  14.523 -0.0333  0.1996 -0.1583
13395W        W29529  17.895   3.161  14.128  0.1969 -0.2332  0.0054
13396W        W29530  16.867  12.192  13.552  0.2286 -0.0269  0.0790
13397W        W29531   7.622  15.955  13.703 -0.2399 -0.2439  0.0853
13398W        W29532  13.664  15.712  13.497 -0.3647 -0.0188  0.4432
13399W        W29533   2.572  18.140   1.389  0.1009  0.1364  0.0982
13400W        W29534  15.123  11.387  14.888  0.0887 -0.1344 -0.1935
13401W        W29535   0.846   2.127   4.033 -0.2202  0.0060 -0.1429
13402W        W29536  13.910   7.076   0.225 -0.0735 -0.0152  0.1664
13403W        W29537   0.133   5.932   4.148 -0.1150 -0.3116  0.2374
13404W        W29538   9.489   1.757   0.266  0.2958 -0.1164 -0.0162
13405W        W29539  11.589   9.383   2.046  0.1866 -0.1328  0.2263
13406W        W29540  12.520  18.817  14.686 -0.0987  0.2126  0.1640
13407W        W29541  18.133  11.891   2.776  0.0112  0.2360  0.0437
13408W        W29542   5.941   0.857   3.566 -0.1460  0.3107 -0.5025
13409W        W29543  14.107  16.196  12.183 -0.1039  0.0085 -0.1276
13410W        W29544  13.466   2.844  11.597 -0.0850  0.1633 -0.2320
13411W        W29545  15.661   2.273   2.905  0.0519  0.0208  0.3959
13412W        W29546   0.499  13.165   5.363 -0.1067  0.1416 -0.0353
13413W        W29547   6.263  11.787  11.278  0.1271 -0.2418  0.0653
13414W        W29548  16.813   2.810   1.209  0.0057 -0.1462 -0.3210
13415W        W29549   6.914  16.171  14.248 -0.1374 -0.3398 -0.1542
13416W        W29550  14.062  19.045  10.522 -0.2190 -0.0466 -0.0372
13417W        W29551  13.982  15.432  13.775  0.3087  0.3013 -0.4096
13418W        W29552  15.668   6.178   3.577 -0.1036  0.2844 -0.3143
13419W        W29553  16.084   5.129  11.776 -0.2124 -0.1783  0.0288
13420W        W29554  10.057  13.702  11.502  0.2291 -0.0203  0.1696
13421W        W29555  15.424  15.273   3.274  0.0111  0.4205  0.0164
13422W        W29556  17.179  15.070   4.443  0.3573 -0.3485 -0.1748
13423W        W29557   0.999   8.377   4.959 -0.0722  0.2363 -0.0036
13424W        W29558  18.221   5.631  12.604  0.4273  0.1536  0.1721
13425W        W29559   6.885  12.325   2.568  0.0045 -0.1686 -0.1380
13426W        W29560   2.044   8.612   0.483  0.0523 -0.3093 -0.2883
13427W        W29561   3.071   6.877  14.497 -0.1643  0.0220  0.3800
13428W        W29562   1.759   7.092  13.537  0.1921 -0.1918  0.1893
13429W        W29563  16.264  10.622  14.043  0.4499  0.5029  0.1666
13430W        W29564  10.612  19.187  10.659 -0.2359  0.5510 -0.7027
13431W        W29565  18.146  10.797  14.344 -0.1465  0.0729  0.4114
13432W        W29566   1.737   3.945  10.472  0.1077 -0.3676  0.1018
13433W        W29567  12.325   6.965   2.812  0.1401  0.1264  0.1097
13434W        W29568  15.272   1.879   4.901 -0.2311 -0.1663  0.0090
13435W        W29569   8.184   4.050   1.546  0.1160  0.2318 -0.1070
13436W        W29570   1.108   1.268   3.382 -0.0145 -0.1114 -0.3849
13437W        W29571   9.683   1.948   2.024  0.1059  0.2343  0.1579
13438W        W29572   3.565   3.315   0.729  0.0445 -0.1779  0.3286
13439W        W29573   5.926  10.389   4.078  0.0124 -0.0042 -0.2780
13440W        W29574   2.349  17.201   2.146 -0.1640 -0.3563  0.1527
13441W        W29575   3.692  12.345   2.313  0.0125  0.1793  0.1484
13442W        W29576   2.224  11.649  10.239  0.2868  0.1615  0.1289
13443W        W29577  10.429  11.095  10.973 -0.3111  0.0731  0.3202
13444W        W29578  11.036  12.827   0.184  0.0147 -0.1348  0.1245
13445W        W29579  11.436  18.427   3.104  0.2519  0.3004  0.2258
13446W        W29580   1.198  18.939  11.542 -0.0877 -0.1846 -0.1802
13447W        W29581   4.827   8.552   3.589  0.1879  0.3868  0.1574
13448W        W29582  14.063  14.385  14.594 -0.2572  0.1089  0.1428
13449W        W29583  19.090  16.844  14.384  0.2542  0.1219 -0.2453
13450W        W29584  11.826  11.859   3.260  0.1122  0.3426 -0.0148
13451W        W29585  14.154   7.607  14.244 -0.1243 -0.2815  0.1361
13452W        W29586  12.092   9.793   3.286  0.2793  0.1031  0.2897
13453W        W29587   0.274   2.258   1.593 -0.1011 -0.0124  0.1079
13454W        W29588  15.811  16.566  10.316  0.0746 -0.4730  0.0331
13455W        W29589   4.490   8.914   1.543 -0.2075 -0.1635  0.2582
13456W        W29590  16.722   5.711   2.693 -0.0247 -0.0382 -0.3322
13457W        W29591   8.718   3.541  12.295 -0.0264 -0.0403  0.3943
13458W        W29592  17.510   5.159   0.083  0.0172  0.0078  0.0678
13459W        W29593   0.999  15.383  11.552  0.0854  0.2296  0.3352
13460W        W29594   3.704   2.525   2.447  0.2033  0.1334 -0.0726
13461W        W29595   8.218  16.796   0.560  0.2408 -0.2628  0.0452
13462W        W29596   9.370  12.056   1.788  0.4043  0.1882 -0.0919
13463W        W29597   0.899  15.591  14.869  0.2469  0.0144 -0.2750
13464W        W29598   9.194   5.220   3.158 -0.0225  0.0193 -0.2476
13465W        W29599  18.965   7.407  12.855 -0.0452 -0.0794  0.0214
13466W        W29600   7.021   1.355   3.254  0.0063 -0.0284  0.1362
13467W        W29601   5.785   4.223   2.761  0.0611  0.2032  0.4057
13468W        W29602  13.369  17.967   9.751 -0.1636  0.1825  0.0927
13469W        W29603   7.225   0.361   3.536 -0.3939 -0.2650 -0.0713
13470W        W29604   4.119   0.232  10.708 -0.0627 -0.0554 -0.0578
13471W        W29605  19.105  18.304   2.849 -0.1814  0.1011 -0.0714
13472W        W29606  13.230  13.509   3.548 -0.1034 -0.1409  0.3068
13473W        W29607  14.648  13.532   4.577 -0.2174  0.0885 -0.1695
13474W        W29608   6.448   5.977  12.847  0.0262  0.0256 -0.2552
13475W        W29609  10.449  16.933   2.461  0.1281  0.0130  0.0832
13476W        W29610  11.535   6.286  13.520  0.0325  0.1171  0.0135
13477W        W29611  17.954   0.646   1.561 -0.2107  0.0788 -0.2704
13478W        W29612   5.897   4.442   2.301  0.0769  0.1587 -0.0025
13479W        W29613   4.826  12.511  11.019 -0.3344 -0.1586  0.3103
13480W        W29614  15.842   3.255   3.464  0.4618  0.1530  0.1296
13481W        W29615   5.761  11.107  14.978  0.0414  0.3535 -0.0254
13482W        W29616  13.871  13.094   1.484  0.1865 -0.1552  0.1106
13483W        W29617  13.396  13.739   5.440  0.1217 -0.1051 -0.2477
13484W        W29618   8.035  17.006  13.631  0.2724 -0.1315 -0.3658
13485W        W29619   8.314  10.151   0.687  0.0406  0.1455  0.0708
13486W        W29620  11.062  14.856  12.079 -0.3510  0.0820  0.0167
13487W        W29621   4.704  18.710   1.301  0.1772 -0.2027 -0.2478
13488W        W29622   3.091  19.167  13.417 -0.2424 -0.1102  0.2254
13489W        W29623   3.516   9.354   0.517 -0.0214 -0.1259 -0.0665
13490W        W29624   8.021  14.655  14.233 -0.0357 -0.1415 -0.0077
13491W        W29625   8.640  14.920   3.841 -0.0148  0.0973  0.0885
13492W        W29626   0.780  13.862   9.950  0.3991 -0.0902 -0.1677
13493W        W29627  14.243  12.172  13.608 -0.0266 -0.1575 -0.1066
13494W        W29628   7.552  15.865  11.515 -0.2916 -0.0596  0.1079
13495W        W29629   8.422   0.365  10.859 -0.0111  0.3021  0.0335
13496W        W29630  16.229  18.844  14.479 -0.1610 -0.2020  0.3624
13497W        W29631   0.940  12.105   3.647 -0.2050 -0.0074  0.0239
13498W        W29632  18.786   7.353   0.013  0.1150  0.0687  0.1180
13499W        W29633   0.980   9.468   9.895 -0.2022 -0.2033  0.1489
13500W        W29634   7.469   8.229   9.878  0.2475 -0.0077  0.0390
13501W        W29635   0.697   3.946  10.756 -0.1401  0.0785  0.0485
13502W        W29636   5.135  16.910   3.285 -0.0883 -0.1666 -0.3049
13503W        W29637   0.565   1.313  13.696  0.2917  0.0464 -0.2833
13504W        W29638  16.630  18.483  13.602  0.1164 -0.2564 -0.2154
13505W        W29639   9.904   5.938   3.039  0.1471  0.3789 -0.1621
13506W        W29640  12.340   8.350   2.426 -0.2764 -0.0257 -0.0573
13507W        W29641   0.630  15.093  13.074 -0.3199 -0.1225 -0.2438
13508W        W29642  14.251  14.986   4.075  0.1741  0.2950 -0.0771
13509W        W29643   0.255   6.324  12.290  0.1831 -0.1762 -0.3041
13510W        W29644   7.670   4.865   1.204  0.0747  0.2419  0.1614
13511W        W29645   1.944   7.012   5.112 -0.0845  0.3373  0.1151
13512W        W29646  11.849  13.668   4.907  0.1609  0.0093 -0.1495
13513W        W29647   9.127   4.148  14.832  0.0131 -0.3061 -0.1870
13514W        W29648   7.207  17.072  10.703 -0.3899  0.2534  0.2588
13515W        W29649   3.163  12.507   0.585 -0.2142  0.0292 -0.0805
13516W        W29650   9.128  17.118   2.772  0.2500  0.3524 -0.0597
13517W        W29651   9.648  12.109   0.293 -0.0709  0.0324 -0.0593
13518W        W29652   8.035  18.281   0.778 -0.3748 -0.1688  0.0107
13519W        W29653  10.019   4.016   3.261 -0.5959  0.1878  0.1114
13520W        W29654   1.666   5.737  13.946 -0.2744 -0.1889  0.3593
13521W        W29655   2.664   2.675  11.708  0.0687 -0.1513  0.2205
13522W        W29656  10.770   5.976   0.592 -0.0256  0.1866 -0.0714
13523W        W29657   3.102  13.333  11.525 -0.2101  0.5332 -0.1399
13524W        W29658   9.285   4.200   0.652 -0.1173  0.1555 -0.1233
13525W        W29659  18.491  14.938   0.318 -0.0319  0.2353 -0.0379
13526W        W29660   4.951  10.738   0.444 -0.0024  0.0361 -0.1345
13527W        W29661   8.821  12.786  10.712  0.1850  0.1346 -0.2172
13528W        W29662   1.992  15.041   4.320 -0.3054 -0.1445 -0.2595
13529W        W29663  18.281  12.884  12.772  0.0550 -0.0668 -0.0349
13530W        W29664   2.353  12.889  10.646  0.2463 -0.0308 -0.0262
13531W        W29665  14.801   0.833  13.119  0.2079 -0.3244  0.0266
13532W        W29666   6.170  14.705   3.165 -0.1104  0.0035  0.0094
13533W        W29667  19.032   3.094  11.336 -0.0718  0.3243  0.1575
13534W        W29668  11.235   9.831   2.233 -0.2353 -0.3833  0.1981
13535W        W29669  10.322   1.086   1.505  0.3568 -0.4383 -0.1122
13536W        W29670   3.063   9.672  10.090 -0.3947  0.2073  0.0230
13537W        W29671   7.060   5.718  11.264  0.3947 -0.0074 -0.1138
13538W        W29672  10.224   4.653   3.697  0.1003  0.0384 -0.1095
13539W        W29673  17.641   6.611  13.915  0.0523  0.1809 -0.1815
13540W        W29674   6.862   9.225   0.579 -0.2436 -0.0033 -0.2023
13541W        W29675  14.094   3.225   2.654 -0.1171 -0.3064  0.0969
13542W        W29676  14.922  17.452  13.378 -0.0424  0.1815  0.2413
13543W        W29677   5.632   5.988   1.761 -0.2909  0.0253 -0.2168
13544W        W29678  15.818   1.468  11.355  0.1339 -0.0402 -0.1127
13545W        W29679   7.011  12.474  12.879 -0.3306 -0.1991 -0.1133
13546W        W29680  14.357  15.365  12.846  0.2307 -0.0103 -0.0163
13547W        W29681  19.232  11.840   1.929  0.3551  0.1966 -0.0532
13548W        W29682  10.461  17.716   3.210  0.2046  0.3011  0.1046
13549W        W29683   4.332   8.465  12.042 -0.0699 -0.2247  0.0549
13550W        W29684   5.151  11.036   5.261 -0.0064  0.0892  0.0992
13551W        W29685   7.473   4.669   5.141  0.0809 -0.0171 -0.1248
13552W        W29686   0.967   4.407   1.829  0.1178 -0.1618  0.3382
13553W        W29687  17.844  17.920   3.714  0.2420  0.0204 -0.1590
13554W        W29688   5.290  15.006  13.448 -0.2659  0.1062  0.2334
13555W        W29689   2.939  11.486   3.065 -0.0657  0.0566 -0.1308
13556W        W29690  14.368  18.911   2.483  0.0710 -0.1738  0.3107
13557W        W29691  13.011  15.819  12.765  0.2201  0.0809  0.4083
13558W        W29692  18.005   0.058   8.873 -0.1266 -0.1146 -0.2897
13559W        W29693   8.067   1.520   0.510 -0.1682  0.1869 -0.0557
13560W        W29694   9.725   6.870  13.072  0.0134  0.2854 -0.1783
13561W        W29695   8.744  15.327   4.964  0.1697  0.0322  0.0967
13562W        W29696  12.939  18.330   2.148 -0.0095  0.1868 -0.0947
13563W        W29697   2.228   8.098  12.872  0.0732  0.0938  0.0345
13564W        W29698  13.241  14.845   3.130  0.2286  0.0545 -0.0335
13565W        W29699  10.176  18.170   0.199 -0.1351 -0.0148  0.1398
13566W        W29700   8.061  10.797  13.008  0.2229 -0.2076 -0.1961
13567W        W29701  17.849   2.269   0.998  0.0006  0.1110 -0.1755
13568W        W29702   2.609   0.928   1.575  0.0405  0.3480  0.0925
13569W        W29703  10.933   9.402   1.105 -0.0372  0.2250 -0.3902
13570W        W29704   8.711  11.372   0.915 -0.0498  0.1679 -0.0198
13571W        W29705   9.295   2.225   0.403  0.1728  0.1441  0.1830
13572W        W29706  14.149  14.023   2.586  0.0535  0.2328  0.0013
13573W        W29707  11.734  16.349  12.144 -0.3187  0.0725  0.3189
13574W        W29708   5.984  13.590  11.311 -0.3900  0.1378  0.1798
13575W        W29709   3.618  17.304  12.145  0.4095 -0.1179 -0.4301
13576W        W29710  19.150   7.593  10.593  0.0894 -0.1313 -0.1457
13577W        W29711  14.655  16.505   2.420 -0.1761  0.0235  0.3456
13578W        W29712  19.180   0.560   3.524 -0.2614 -0.0380 -0.3251
13579W        W29713   6.237  11.064   0.506  0.0615  0.2305  0.1832
13580W        W29714   6.718  10.601   0.193  0.0628  0.0744  0.0008
13581W        W29715   3.726   5.474   0.551  0.1255 -0.1895  0.0143
13582W        W29716   1.576   4.242  14.341  0.1765 -0.0107  0.1578
13583W        W29717  19.138   3.069  10.509 -0.1211  0.4857  0.3006
13584W        W29718  19.338   4.518  10.497  0.0358 -0.2539 -0.2174
13585W        W29719   6.671  15.565  11.813 -0.0781 -0.2429  0.1855
13586W        W29720  14.403   4.661   5.171  0.1049  0.0125  0.0616
13587W        W29721   9.727  12.646  12.556 -0.0432 -0.2250  0.2630
13588W        W29722  15.654   7.505  11.659  0.2104 -0.2268  0.0383
13589W        W29723   1.272   5.856   3.048 -0.1281 -0.1650  0.0305
13590W        W29724  17.861  16.406   3.237 -0.3014  0.3287  0.0057
13591W        W29725   4.302  12.634   3.149  0.2027  0.0933 -0.1662
13592W        W29726  16.629  16.739  12.093 -0.0805 -0.0687  0.0534
13593W        W29727  10.426   5.271  14.909 -0.3547 -0.0089 -0.1860
13594W        W29728  19.039   3.335   4.493 -0.3740  0.0041 -0.1898
13595W        W29729  18.826  16.715   3.230  0.0816  0.3191 -0.2171
13596W        W29730   4.703   9.406   0.658  0.1562  0.1550 -0.0681
13597W        W29731   6.038  16.476   2.316  0.0766  0.1224 -0.1899
13598W        W29732  18.087   9.712   9.870  0.0241  0.0674 -0.1237
13599W        W29733  16.297  11.513   9.203  0.4524 -0.3105 -0.0729
13600W        W29734   3.200   1.795   3.552  0.0891 -0.2248 -0.0098
13601W        W29735   9.386  13.487   4.340  0.0231 -0.1568 -0.0471
13602W        W29736   9.565  11.238   1.956  0.1295 -0.1556 -0.0607
13603W        W29737   4.179  12.449   2.710 -0.0247  0.0314 -0.0271
13604W        W29738   6.820   0.354  13.542  0.1031 -0.2830 -0.0457
13605W        W29739   8.555  11.912   0.859 -0.1844 -0.1827 -0.3320
13606W        W29740   0.330  16.223  12.438 -0.0074 -0.0248  0.1837
13607W        W29741   7.884   0.344  13.033 -0.2515  0.3706  0.1403
13608W        W29742   9.351   2.792   3.490 -0.0053 -0.0727 -0.2687
13609W        W29743   6.852  12.906  13.679 -0.0982 -0.2020  0.1185
13610W        W29744   7.356   0.761  11.750  0.3949 -0.0301 -0.0639
13611W        W29745   9.668   5.474   3.885  0.2816  0.0688 -0.0529
13612W        W29746   1.202   5.284   2.965  0.0853 -0.2462 -0.0278
13613W        W29747   9.838  18.428   0.743 -0.0944  0.0165 -0.0006
13614W        W29748   4.617   8.881   2.780  0.1009 -0.1602  0.1208
13615W        W29749   9.297   8.144  14.749  0.0100 -0.1133 -0.0187
13616W        W29750  16.099   3.788   3.126 -0.0267 -0.0756 -0.1023
13617W        W29751   1.423  18.096   4.437  0.1639 -0.0240 -0.0742
13618W        W29752   0.957   1.084   0.639  0.1688  0.1452 -0.2310
13619W        W29753   3.319  15.487  11.541  0.1927  0.0711 -0.1044
13620W        W29754  17.492   1.269   2.162 -0.0318  0.0810  0.1710
13621W        W29755   8.809  15.569  12.331  0.0873 -0.1802  0.0796
13622W        W29756   2.620   4.325  12.085 -0.1070 -0.2537 -0.1579
13623W        W29757  15.291  18.605  13.952 -0.0652  0.0278 -0.1512
13624W        W29758  10.306   5.908   3.780 -0.0004 -0.2381  0.1111
13625W        W29759   3.435  18.069   2.922 -0.2756 -0.0149  0.0340
13626W        W29760   3.636  13.486   1.355  0.2321 -0.1404  0.1836
13627W        W29761   1.608  17.792   9.197  0.0808  0.3220 -0.0236
13628W        W29762  10.880  17.759  13.322  0.1537  0.1022  0.4484
13629W        W29763  13.573   3.878   0.868  0.0137 -0.0767  0.1752
13630W        W29764   3.607  19.319  13.663  0.2286  0.2154  0.1351
13631W        W29765   1.202  14.646  10.482 -0.1511 -0.2469  0.2161
13632W        W29766   0.680  17.920  14.321 -0.3849  0.2963 -0.1241
13633W        W29767  12.111  10.329  11.580 -0.0969  0.0406 -0.3221
13634W        W29768   9.610   0.825  12.103 -0.2480  0.0627 -0.1129
13635W        W29769  15.503   2.361  11.601  0.2372 -0.1429  0.3153
13636W        W29770   7.868   9.868   1.164 -0.1333  0.1005  0.1836
13637W        W29771  15.493   0.982  13.428  0.0590  0.0668 -0.3277
13638W        W29772  14.985   2.781   0.579  0.1161  0.2273 -0.3044
13639W        W29773  17.942  18.832   3.795 -0.1614  0.3056 -0.0770
13640W        W29774   9.421   8.936   3.927  0.0547  0.2528  0.1463
13641W        W29775   5.470  18.148   1.903  0.2160 -0.0551  0.2018
13642W        W29776   7.030  15.962   0.313  0.0598 -0.0686 -0.0200
13643W        W29777  16.102  15.604  13.973 -0.1209  0.0081  0.2100
13644W        W29778  14.903   4.933   4.476  0.0583 -0.1153  0.0130
13645W        W29779   5.562  17.037  12.316 -0.1389  0.0905 -0.3719
13646W        W29780  19.124   3.718  10.113  0.1003 -0.1953  0.2144
13647W        W29781   0.835   8.867  11.921 -0.1619  0.4164  0.0725
13648W        W29782   2.532   7.420  13.874  0.0520 -0.0161  0.0808
13649W        W29783  14.106   1.704   9.677 -0.0951  0.0654 -0.3712
13650W        W29784   6.317  15.247   3.541  0.5223 -0.2810 -0.2166
13651W        W29785  18.835  13.644   4.680  0.2811  0.0798 -0.2539
13652W        W29786  11.644  14.414  11.793 -0.0807 -0.1357 -0.0370
13653W        W29787  13.138   2.409  13.458 -0.0460  0.3417 -0.4492
13654W        W29788  18.065   0.416  11.756  0.2709  0.0867  0.0787
13655W        W29789  16.489  11.643  12.073 -0.1547  0.1467  0.0575
13656W        W29790  19.292   2.997   2.757  0.3294  0.5909 -0.1541
13657W        W29791   7.604   9.555   4.641  0.0424  0.1731 -0.1113
13658W        W29792  10.277  11.509   1.235  0.0457 -0.0826  0.1241
13659W        W29793  14.959   1.389  11.607 -0.2107  0.1461  0.2194
13660W        W29794   5.868  13.134   0.741  0.1422  0.2515  0.3304
13661W        W29795   6.502  14.306   3.579  0.2713  0.4230 -0.0699
13662W        W29796   5.245  11.877   3.246 -0.0989 -0.0880  0.0067
13663W        W29797   8.449   9.243   1.746 -0.0394  0.3316  0.0165
13664W        W29798  15.206  17.010   0.547 -0.1789  0.0687 -0.1773
13665W        W29799  16.177   5.334  13.918  0.0696 -0.3230  0.4898
13666W        W29800   4.222   2.301  14.210 -0.0268  0.1216  0.3879
13667W        W29801   7.317   7.228  12.501 -0.0849 -0.1071 -0.1505
13668W        W29802   3.816   3.793   2.564  0.2200 -0.1232  0.1999
13669W        W29803   3.937  11.654   2.830 -0.2055 -0.3514 -0.4130
13670W        W29804  16.317   7.365  11.368 -0.1519  0.0717  0.1369
13671W        W29805  13.943  18.508  13.368 -0.3093 -0.1485  0.3681
13672W        W29806   7.969   4.547  10.657  0.1065 -0.1903  0.0060
13673W        W29807   9.148   5.523  13.434 -0.3205 -0.0873 -0.3178
13674W        W29808  10.137   5.501   4.860  0.1378  0.1056 -0.0420
13675W        W29809   0.782   5.563   2.988 -0.3910 -0.1389 -0.1403
13676W        W29810   0.146  13.277   3.366  0.1509  0.1214  0.0570
13677W        W29811   9.813   6.793  14.963 -0.2025  0.2358  0.2577
13678W        W29812   0.326  19.065  14.312 -0.0762  0.3180 -0.2203
13679W        W29813   2.546  15.438  12.128 -0.1009  0.2093  0.3712
13680W        W29814  14.605   6.835  11.920 -0.0758  0.3155 -0.0855
13681W        W29815   9.993   5.620  11.120  0.2329  0.0337 -0.1161
13682W        W29816   1.142   4.633  12.460  0.2435 -0.1588 -0.1791
13683W        W29817  19.208  14.431  10.870 -0.2262 -0.1932 -0.2333
13684W        W29818  18.603   8.543   3.314  0.0426  0.5049  0.0082
13685W        W29819   3.430  13.891  10.827 -0.2446 -0.3573 -0.0009
13686W        W29820   6.149  14.501   0.537  0.0643 -0.1677  0.2334
13687W        W29821  19.033  16.083  12.217 -0.0245  0.2079  0.3447
13688W        W29822   3.341   5.982   0.858 -0.5705  0.0842 -0.3548
13689W        W29823  12.126   6.524   4.287  0.1392  0.2745 -0.0131
13690W        W29824   0.764   1.815  14.504  0.3252  0.1407  0.0352
13691W        W29825   6.865  13.344  14.712 -0.0104 -0.0767 -0.3921
13692W        W29826  17.904  18.413   0.369  0.0335  0.3396  0.2020
13693W        W29827   1.532   8.173   1.073  0.2892 -0.0429  0.1545
13694W        W29828   8.086   5.399  14.984  0.2913 -0.0920  0.3589
13695W        W29829   7.820  15.650  10.355  0.1827  0.0288 -0.0791
13696W        W29830   4.405   2.950   4.775  0.1419 -0.2462 -0.1518
13697W        W29831   6.391   1.378  11.218  0.0838  0.0931 -0.3070
13698W        W29832   3.021  13.344  10.066 -0.1976  0.0471  0.0406
13699W        W29833   1.724  16.898   4.268  0.2329  0.1187 -0.2152
13700W        W29834   6.755  10.341  14.144  0.0284 -0.1029 -0.0736
13701W        W29835   1.405  17.936   3.942  0.3627  0.0957  0.1714
13702W        W29836  10.422  15.749   2.047  0.1227 -0.0278 -0.3959
13703W        W29837  13.333  18.470  10.178  0.0130 -0.0008  0.0536
13704W        W29838   3.679   2.418   1.253 -0.1091  0.1084  0.0357
13705W        W29839   1.455  13.225  10.605 -0.3156  0.0598 -0.0073
13706W        W29840   0.291   5.672   1.046  0.0617  0.0145 -0.0392
13707W        W29841   3.678   9.887  10.771  0.1230  0.0858 -0.3195
13708W        W29842  15.388   4.459   3.060 -0.1440 -0.0859 -0.0364
13709W        W29843  18.547  15.964   2.507  0.0062 -0.0419 -0.4891
13710W        W29844   8.831   5.357   4.852  0.0252  0.1549 -0.3845
13711W        W29845  18.929   1.494  10.460 -0.1320  0.0796 -0.0454
13712W        W29846  14.494  18.761  12.706  0.2629 -0.1065  0.3115
13713W        W29847  18.640  12.470   9.871  0.4748  0.1049 -0.1668
13714W        W29848   7.279   3.535   0.552 -0.2049 -0.2203 -0.0822
13715W        W29849  17.736   6.928   4.860  0.2757  0.0785 -0.0500
13716W        W29850   7.278  10.996  10.638  0.4123  0.0764 -0.2527
13717W        W29851   9.881   7.713  12.085 -0.1741 -0.0609  0.3421
13718W        W29852   1.690  15.417  12.919 -0.2490 -0.2948 -0.1577
13719W        W29853  11.394  11.980   1.122 -0.0917 -0.1104  0.1038
13720W        W29854   4.181   6.907   3.230 -0.0166 -0.1342 -0.1600
13721W        W29855   4.570   9.971   9.595  0.1673 -0.1032  0.0129
13722W        W29856   3.372   0.614  10.367 -0.1119 -0.2197  0.4049
13723W        W29857  18.720   4.399  10.197 -0.0318 -0.1977 -0.1895
13724W        W29858   6.765   1.651   3.759  0.0205 -0.0268  0.2432
13725W        W29859   0.630  15.882  14.375 -0.0777 -0.0589  0.1255
13726W        W29860   1.821   1.722  12.919 -0.0951  0.0448 -0.1808
13727W        W29861  14.988   9.322   2.474  0.0406  0.0025 -0.0047
13728W        W29862  14.174   9.255   1.925 -0.1592  0.0100  0.4085
13729W        W29863  19.013  14.372  14.386  0.0871  0.2040 -0.1564
13730W        W29864  12.936   8.584  13.643  0.1996  0.0214  0.0632
13731W        W29865  11.855  11.259  13.176  0.2222  0.4037 -0.2647
13732W        W29866  14.497  10.976   1.506 -0.1361 -0.4467 -0.3764
13733W        W29867   6.876   1.854   3.251 -0.1178  0.0972  0.0539
13734W        W29868  18.027  17.962  10.841  0.0985 -0.3873  0.1190
13735W        W29869   9.586   0.370   3.401 -0.0950 -0.2191  0.0032
13736W        W29870   7.070   1.830   4.651 -0.0585 -0.2156  0.3407
13737W        W29871  17.820  14.453   3.352 -0.0277  0.2738 -0.1732
13738W        W29872  16.391   4.339  12.245  0.2564 -0.0959 -0.1525
13739W        W29873   4.551   3.423  10.850 -0.2413 -0.0017  0.0122
13740W        W29874   0.758   3.275   0.922  0.0678  0.0110 -0.0136
13741W        W29875   2.349  11.894   0.333  0.5331 -0.0485  0.1727
13742W        W29876   2.176  17.968   3.164  0.0546  0.1789  0.0832
13743W        W29877   8.648   4.559  12.257  0.1781 -0.0618  0.0319
13744W        W29878  14.126   4.307   4.226 -0.0966 -0.1735 -0.4058
13745W        W29879   0.259   0.349   0.105 -0.2616  0.0796 -0.1192
13746W        W29880   0.312   6.266   9.720 -0.1000 -0.1218  0.1459
13747W        W29881  15.763   9.434   1.418  0.2219 -0.0976  0.0543
13748W        W29882  16.682   5.169  13.986 -0.0603  0.1217  0.5290
13749W        W29883  15.199  14.196  13.054 -0.0049 -0.2121 -0.0105
13750W        W29884  11.941   0.833  11.902  0.3723  0.0709  0.1673
13751W        W29885  14.361  14.790   1.202  0.2744  0.0375  0.1264
13752W        W29886   6.458   2.854   3.412  0.0297 -0.1114  0.1206
13753W        W29887   4.590   5.506   0.525  0.3209  0.5772 -0.1764
13754W        W29888   6.081  15.396   2.506  0.1671  0.3298  0.4060
13755W        W29889  14.393  12.021   9.941 -0.2781 -0.1258  0.0265
13756W        W29890  15.150   2.529   0.150  0.6991 -0.1411 -0.0868
13757W        W29891   4.431   8.082   1.934 -0.2000 -0.0906  0.0149
13758W        W29892   9.908   7.506  12.546 -0.1328  0.2920 -0.0067
13759W        W29893   2.255   2.251   2.798 -0.2092 -0.2428 -0.0769
13760W        W29894  12.844  17.455   0.004 -0.0034 -0.0977 -0.1180
13761W        W29895  12.062   7.842  13.128  0.0009  0.0355 -0.0872
13762W        W29896   3.873  11.040   3.648 -0.2675 -0.2430  0.1715
13763W        W29897  15.789   4.942  11.007  0.0940  0.0496  0.2495
13764W        W29898   2.143   6.703   1.048 -0.0948  0.2699 -0.2171
13765W        W29899   9.904   9.037  13.350  0.2438 -0.1718 -0.2892
13766W        W29900  18.591   5.746   0.661 -0.1482 -0.1643  0.0549
13767W        W29901   9.775   3.201   5.913  0.1964 -0.0952 -0.0919
13768W        W29902   5.092   8.742  12.271 -0.0363  0.0496  0.0982
13769W        W29903  19.191   5.146   2.365  0.1924  0.1205 -0.0496
13770W        W29904  10.621   2.531   3.846 -0.0107 -0.3275  0.4300
13771W        W29905  11.814  18.692   0.118  0.2130 -0.1212 -0.1221
13772W        W29906  14.600   3.135   3.540 -0.3326  0.2322  0.1659
13773W        W29907   2.619  15.876   4.947  0.0006 -0.0368  0.2424
13774W        W29908  10.073   8.916   3.253 -0.2044 -0.0931  0.4577
13775W        W29909  14.773   5.359   4.017  0.0321 -0.1385 -0.3455
13776W        W29910   3.170   9.686  11.020 -0.1973  0.0092 -0.2810
13777W        W29911   4.986   9.309   9.888  0.0094  0.1733 -0.1364
13778W        W29912   0.673   2.892  14.003 -0.0409  0.4755  0.2112
13779W        W29913   5.343   5.232   0.280  0.2429 -0.0027 -0.2683
13780W        W29914   4.607   2.664  13.948 -0.5185  0.0653 -0.2874
13781W        W29915   4.165   3.504  13.881  0.1447  0.1350 -0.1338
13782W        W29916  18.532  10.587  11.850  0.2038 -0.1030  0.0511
13783W        W29917   0.156  16.181   4.835  0.0748  0.1639  0.0796
13784W        W29918   7.758  16.253  12.018  0.1268  0.4960  0.1284
13785W        W29919   8.923   4.624  14.918 -0.2034 -0.0280 -0.0265
13786W        W29920   0.547  11.195   2.892  0.2364 -0.1652 -0.2311
13787W        W29921   3.823   2.001   1.464  0.2170  0.1984  0.0647
13788W        W29922  16.082  17.243   0.947 -0.3762 -0.1833 -0.0165
13789W        W29923   1.026  15.828  13.499 -0.2159  0.0805  0.0531
13790W        W29924  16.516   4.168   1.428  0.1624  0.4156 -0.1714
13791W        W29925  12.679  10.786   3.318 -0.4765  0.0482  0.2463
13792W        W29926   9.747  10.011   2.139 -0.1114 -0.0573  0.0294
13793W        W29927   8.657   7.058  12.260 -0.0218 -0.1574 -0.1420
13794W        W29928  13.592   7.878   3.809 -0.2573  0.4649  0.2206
13795W        W29929   7.062   6.651  14.894 -0.0989 -0.6306  0.0475
13796W        W29930   0.163  17.856  12.461 -0.0590 -0.0144  0.0800
13797W        W29931   1.544   0.270  10.849  0.0350 -0.3859  0.1652
13798W        W29932   4.862   8.931  11.478 -0.1473 -0.2349  0.3186
13799W        W29933  15.403   7.461   2.786  0.1045  0.0938  0.1655
13800W        W29934   8.672   3.161   5.417  0.0094 -0.1454  0.0080
13801W        W29935   4.934  10.220  10.757 -0.0159 -0.4179  0.1598
13802W        W29936  14.403   6.616  13.657 -0.0628 -0.0351  0.0006
13803W        W29937   5.230   1.694   0.348 -0.3853 -0.1160  0.0934
13804W        W29938   8.653  17.557  11.843  0.0508 -0.0130 -0.0135
13805W        W29939  16.064  13.288   1.854 -0.1041  0.1077 -0.4185
13806W        W29940   2.798  11.848  11.606  0.0461  0.0069  0.4220
13807W        W29941   5.840   6.086   3.232  0.0398  0.2311  0.6131
13808W        W29942   4.482  18.397  11.900 -0.1796  0.1118  0.1905
13809W        W29943  11.617  11.417   2.935  0.1148 -0.2207  0.1112
13810W        W29944  14.614   5.125  14.967 -0.0771 -0.1866 -0.0231
13811W        W29945   0.092  17.251  14.349 -0.2976  0.0670 -0.5557
13812W        W29946  14.736  11.583   3.866 -0.2642 -0.3527  0.1649
13813W        W29947   6.019  14.799   1.887 -0.1782 -0.1050  0.0340
13814W        W29948   1.079  17.603   4.743 -0.0977 -0.6845 -0.0144
13815W        W29949   7.599  11.670   2.512  0.2224  0.3716  0.1483
13816W        W29950   3.262   3.642  10.838 -0.2053  0.0854 -0.0756
13817W        W29951   9.344   3.634   4.446 -0.2235  0.1845  0.1166
13818W        W29952  18.687   4.890  14.892  0.1086  0.0600  0.3329
13819W        W29953   0.758  16.308  11.940  0.3368  0.2230 -0.0991
13820W        W29954  10.930  16.340   4.681 -0.2895  0.1973 -0.0252
13821W        W29955  14.765  15.349   0.507 -0.0580  0.3822  0.2832
13822W        W29956   2.189   6.297  12.183  0.3234 -0.0412 -0.0959
13823W        W29957   3.665  10.421  13.051 -0.0127  0.5301  0.0982
13824W        W29958  14.791   4.243  10.574  0.0870 -0.4970  0.0093
13825W        W29959  11.664  14.893  12.044  0.1674  0.3546 -0.0090
13826W        W29960  17.163  10.736   0.589 -0.0336  0.2530  0.1778
13827W        W29961   9.710  10.655   4.171 -0.1775  0.0925 -0.1220
13828W        W29962   6.092   5.164  12.093 -0.0786  0.1259  0.0416
13829W        W29963   8.134  10.339   1.165 -0.4190  0.0907 -0.0387
13830W        W29964  13.122  15.309  12.624 -0.1498 -0.0159  0.0625
13831W        W29965  18.910  17.045  12.417 -0.0057  0.2666  0.0216
13832W        W29966  10.746   4.308  13.285  0.1800 -0.2720  0.0103
13833W        W29967   8.110  18.583  12.739  0.1602 -0.0520 -0.0678
13834W        W29968   6.931  11.493  12.856  0.1639  0.0463 -0.2184
13835W        W29969   8.409   5.212   3.500  0.0360 -0.1736  0.2536
13836W        W29970  11.894   5.942   3.367 -0.0090  0.0379 -0.1713
13837W        W29971   5.399   3.390   4.393  0.1498  0.2867 -0.3139
13838W        W29972  16.291   2.963  13.121  0.0889  0.2262 -0.0269
13839W        W29973   0.757   6.443  11.100  0.3090 -0.2895  0.0916
13840W        W29974  15.503  17.136   2.043  0.1270  0.1825 -0.0918
13841W        W29975  11.565  10.432   4.074 -0.1568 -0.2494 -0.0791
13842W        W29976   9.825  11.801   1.439 -0.0903 -0.3118  0.1642
13843W        W29977   1.296   5.338  10.507  0.0330 -0.0742 -0.0153
13844W        W29978  16.848  11.929   0.325 -0.0828 -0.0503 -0.3921
13845W        W29979  18.697  18.346   5.453 -0.2558  0.0544  0.2324
13846W        W29980  10.932   0.599   0.830 -0.1785  0.0443 -0.2011
13847W        W29981   6.156  18.366  14.037  0.0258  0.0253  0.2045
13848W        W29982   6.345   9.293  14.785 -0.0081  0.1428  0.0340
13849W        W29983  10.038   8.842   4.560  0.0971 -0.0821  0.0055
13850W        W29984  13.434   1.342   4.384 -0.0424  0.1107 -0.4121
13851W        W29985  13.204   7.016  13.567  0.1937  0.1215 -0.0166
13852W        W29986   9.782  15.737  13.077 -0.3912 -0.0053 -0.0488
13853W        W29987  16.328  14.281  10.289 -0.1566  0.1423  0.1386
13854W        W29988  11.828  14.698  14.948  0.1333 -0.5344 -0.5466
13855W        W29989   8.340   8.792   3.686 -0.0708 -0.1149  0.0899
13856W        W29990   2.689  16.650  12.869  0.1892 -0.2079 -0.0150
13857W        W29991   3.955   9.613  12.342  0.2163  0.0335  0.1922
13858W        W29992   6.138  16.902   3.202  0.0532 -0.0617  0.0216
13859W        W29993  18.392   5.396  11.909 -0.0128  0.1085 -0.4002
13860W        W29994  18.633  17.224   0.070 -0.2925 -0.0390  0.0416
13861W        W29995  17.980  14.346  13.296 -0.0920  0.3007  0.4143
13862W        W29996  15.837  13.554   2.287 -0.0892  0.2745  0.3671
13863W        W29997  16.507  13.183   3.013  0.0574 -0.0465 -0.1874
13864W        W29998  12.135   2.725   0.747 -0.2605  0.0606 -0.0288
13865W        W29999   8.709   1.677   5.378 -0.3999  0.1010  0.0979
13866W        W30000  15.706  13.543   9.293 -0.3280 -0.0083  0.1963
13867W        W30001  10.618   7.180  13.032  0.2195  0.3622 -0.1178
13868W        W30002  14.245  10.068  11.825  0.1826 -0.1621 -0.0386
13869W        W30003   2.685  18.774   2.097  0.3602  0.0743  0.0630
13870W        W30004   4.590  10.378   1.724 -0.2067  0.0767  0.1781
13871W        W30005   9.307  17.265  13.435  0.1750  0.1800  0.5229
13872W        W30006   8.493   8.626  14.281  0.2399  0.0007 -0.2307
13873W        W30007  12.480   4.375  13.906  0.0338 -0.2593  0.0471
13874W        W30008  13.755   0.002   1.400  0.1087  0.0752 -0.0162
13875W        W30009  18.017   9.928  12.170  0.2686  0.1816  0.3103
13876W        W30010  11.628  11.641  14.547 -0.2157  0.1828  0.1536
13877W        W30011   3.199   9.300  13.314 -0.2999  0.1568 -0.0832
13878W        W30012  12.914  15.578  14.659 -0.1490 -0.3598 -0.1887
13879W        W30013   8.926  18.404  12.258 -0.0767 -0.0202 -0.1792
13880W        W30014  17.647   8.372   5.096  0.1919  0.1670 -0.2764
13881W        W30015  10.783   1.282   5.043  0.1131 -0.3617 -0.1557
13882W        W30016  14.422  14.223  11.360 -0.1816  0.0530 -0.0943
13883W        W30017  11.343   6.489  14.742  0.0543 -0.1449  0.0404
13884W        W30018   3.286   3.747   1.137 -0.0725  0.2381  0.2135
13885W        W30019  13.774   5.719  12.080 -0.1473  0.2262  0.0053
13886W        W30020   0.653  12.774   5.149  0.0298 -0.3636  0.0187
13887W        W30021   3.636   6.449   4.735 -0.1473  0.3035  0.2951
13888W        W30022  13.001   9.328  11.686 -0.2028  0.3191  0.1866
13889W        W30023   2.521  14.628   0.129  0.0102  0.1372 -0.1371
13890W        W30024  19.298  10.151  14.502  0.0197  0.1260 -0.4201
13891W        W30025  14.499   5.648   5.297  0.0029  0.0866 -0.0013
13892W        W30026   0.656   4.448   3.273  0.3061 -0.2196  0.1374
13893W        W30027  12.642   5.017   1.265  0.0160  0.0008  0.1264
13894W        W30028  13.351   7.641   1.923  0.1071 -0.0752  0.3023
13895W        W30029   6.065   1.245   4.293 -0.0110 -0.3475 -0.0715
13896W        W30030   5.304  17.023   5.170 -0.1445 -0.0290 -0.2383
13897W        W30031   5.821  12.188   3.515 -0.0334 -0.1390 -0.0619
13898W        W30032   1.588   6.821   1.746  0.1549  0.1024 -0.0867
13899W        W30033  11.510  13.823   4.614  0.2384 -0.0536  0.2447
13900W        W30034   8.517   7.444  13.643 -0.0062 -0.0155 -0.0406
13901W        W30035  18.893   7.005   0.366  0.0303 -0.0235  0.0436
13902W        W30036  19.197   8.246  13.150 -0.1884 -0.0199 -0.4847
13903W        W30037  18.121   8.946   3.549 -0.1521 -0.0292  0.0492
13904W        W30038  18.208  14.418  14.088  0.0636 -0.0871  0.3107
13905W        W30039   5.531  17.941   0.158 -0.3700  0.0611 -0.1573
13906W        W30040   4.080   0.349   1.962 -0.1017  0.1475  0.0923
13907W        W30041  14.344  18.986   0.205  0.1461 -0.2807  0.4101
13908W        W30042   1.476  10.131   0.797  0.0735  0.3894  0.2257
13909W        W30043  15.244   5.437   1.225 -0.1113  0.3030  0.0544
13910W        W30044   8.984  13.607  11.371 -0.0534  0.2079 -0.0670
13911W        W30045  17.556   2.335   4.593  0.2278  0.0473  0.3134
13912W        W30046   2.582   9.683   3.879  0.2725  0.0228 -0.5308
13913W        W30047  17.658   2.217  10.038  0.0643 -0.4364 -0.1706
13914W        W30048  14.589   0.983  10.846 -0.0670  0.2688  0.1478
13915W        W30049  16.310  15.047   5.124 -0.0641  0.3275  0.1620
13916W        W30050  10.745   5.966  11.677 -0.2210  0.0273 -0.0593
13917W        W30051   4.642  12.819   0.818  0.1519 -0.0180  0.1241
13918W        W30052   7.131   8.251   0.561 -0.0522 -0.0868  0.0740
13919W        W30053   1.508   7.941  14.436  0.1641  0.0246 -0.0324
13920W        W30054  16.736   4.361  11.349 -0.0737  0.0121  0.0026
13921W        W30055   5.656   9.259  12.751  0.0468  0.1889 -0.2570
13922W        W30056   7.842   2.866   1.754  0.0633 -0.0605  0.1224
13923W        W30057  19.134  15.578  12.073  0.1441 -0.0820  0.2301
13924W        W30058  16.916  16.741   1.386  0.3155  0.3837 -0.0589
13925W        W30059  15.256   6.366   4.962 -0.1232 -0.2397 -0.0727
13926W        W30060   6.757  17.881   1.895 -0.1606  0.0173 -0.4173
13927W        W30061   4.128   4.407   4.642  0.1194  0.0855  0.0640
13928W        W30062   0.751  13.459   0.115 -0.0088  0.0038 -0.0023
13929W        W30063   7.280   8.590   2.247 -0.4223  0.0538  0.0187
13930W        W30064  10.197  12.035  13.319 -0.1427  0.3555 -0.0647
13931W        W30065   7.445   2.786   3.267 -0.5341 -0.2343  0.0352
13932W        W30066   0.400   9.903   1.523  0.0862 -0.3094  0.2278
13933W        W30067  10.780  10.225  12.875 -0.5277 -0.1058 -0.0017
13934W        W30068  14.491   8.266   3.402 -0.1718 -0.1923 -0.1581
13935W        W30069   7.508   0.361   4.938  0.3131  0.0020 -0.1047
13936W        W30070  11.966  18.093   0.071  0.0426  0.1615  0.0405
13937W        W30071  11.006   2.958  13.003 -0.0152 -0.0162  0.0335
13938W        W30072  16.204  17.444   0.423  0.2763 -0.2196  0.2832
13939W        W30073   6.243  17.980   4.599 -0.0778  0.2642  0.2332
13940W        W30074  10.493   9.796  12.941 -0.1435  0.0582  0.1769
13941W        W30075  10.300   3.935   0.433 -0.1210  0.0006 -0.1176
13942W        W30076   2.363  12.180   3.583  0.1048 -0.1004 -0.0476
13943W        W30077  11.089  15.091  11.103 -0.1027 -0.0653 -0.1841
13944W        W30078   5.914   3.850   3.212  0.0828 -0.1961  0.0944
13945W        W30079   2.420   3.749   5.578  0.2159 -0.0759 -0.0286
13946W        W30080  15.605  12.779   5.088  0.0937  0.2721  0.2011
13947W        W30081  10.778   9.624  14.636 -0.1217 -0.0435 -0.1939
13948W        W30082  16.650  18.715   3.812 -0.0566  0.0511  0.2640
13949W        W30083  16.442   9.936  10.725  0.2333 -0.1662 -0.3419
13950W        W30084  11.240   1.820   3.776 -0.0059  0.0324 -0.1210
13951W        W30085   0.656   1.365   3.475  0.0496  0.0224  0.0479
13952W        W30086   8.596   9.692  10.920  0.1541 -0.1728 -0.1119
13953W        W30087  13.254   0.431   4.645  0.3921 -0.0468  0.0095
13954W        W30088   4.408  15.633   3.685  0.1512 -0.0245  0.3149
13955W        W30089  17.817  13.044  14.820  0.1132  0.1724 -0.0240
13956W        W30090   5.168   2.737   2.615 -0.0201 -0.3168 -0.1617
13957W        W30091  14.154  17.925  10.495  0.0237  0.1852  0.3234
13958W        W30092  13.769   5.525   9.403  0.2084 -0.0838  0.0665
13959W        W30093   8.826   7.499  12.565 -0.2719  0.3632  0.1754
13960W        W30094   3.800   8.775   0.073 -0.0043  0.3077  0.0305
13961W        W30095   8.234   6.754  12.271  0.2015 -0.1022 -0.0869
13962W        W30096  14.165  12.882   4.317 -0.0014 -0.1539 -0.4851
13963W        W30097   8.688   8.920   0.875  0.0526  0.3503 -0.1166
13964W        W30098   4.067   4.051   0.471 -0.1767  0.2653 -0.0915
13965W        W30099  13.609  13.438   1.761  0.0859 -0.0086  0.1643
13966W        W30100   0.311  11.055  14.560 -0.1712 -0.0731 -0.0602
13967W        W30101  17.418   7.594  13.094 -0.1359  0.0236  0.1522
13968W        W30102   7.420   6.980  13.024 -0.1169 -0.0307 -0.0221
13969W        W30103  13.598   8.870   3.302 -0.1005 -0.0212  0.0858
13970W        W30104  16.600  10.894   1.517 -0.0808 -0.2094  0.3624
13971W        W30105   1.990   8.085  13.586  0.1441 -0.1558 -0.0110
13972W        W30106  16.090   9.452  10.171 -0.0047 -0.1221 -0.0741
13973W        W30107   8.528   1.220   5.855  0.0029 -0.0927  0.1157
13974W        W30108   8.358  16.124   3.171  0.1368 -0.3566 -0.4203
13975W        W30109   9.186   0.604  14.099  0.2108 -0.0541 -0.1017
13976W        W30110  14.322  16.281   5.571  0.2691 -0.0900 -0.1696
13977W        W30111  13.610   5.116  14.919 -0.1724 -0.2391 -0.1419
13978W        W30112   0.575  13.162  12.819  0.1100 -0.4906  0.0331
13979W        W30113   7.662  18.787  15.003  0.2322 -0.0982 -0.0879
13980W        W30114   7.725   6.655   4.419  0.1759  0.4937 -0.1476
13981W        W30115   6.812   6.614  10.991 -0.4890  0.2641 -0.0478
13982W        W30116  16.394   9.488   0.208  0.1568 -0.1005  0.0033
13983W        W30117  15.857  15.730  11.476 -0.0411  0.0488  0.0903
13984W        W30118   2.620   6.794   0.269  0.1507  0.0335  0.0661
13985W        W30119  17.586   1.682   0.791  0.0339  0.2319 -0.3526
13986W        W30120  18.020  18.635   3.270  0.0195  0.1202 -0.1931
13987W        W30121   5.286   2.445   3.003 -0.2171  0.0581  0.2464
13988W        W30122   2.418   0.793   2.027 -0.2605 -0.0114  0.0973
13989W        W30123   0.121  11.606  11.588 -0.1436 -0.2693  0.0441
13990W        W30124   4.540  16.202   0.734 -0.0829  0.1540  0.0832
13991W        W30125   1.294  16.356   5.113 -0.1142 -0.0905 -0.2225
13992W        W30126   8.712   9.321  13.720  0.3962 -0.2382 -0.2350
13993W        W30127  16.811   3.932  13.334  0.1536 -0.0000 -0.1873
13994W        W30128   9.871   7.957   3.565  0.2400 -0.1391 -0.0246
13995W        W30129  14.518   7.253  13.181 -0.2584 -0.0357  0.2031
13996W        W30130  18.749  15.691   3.921  0.0422 -0.2924  0.1716
13997W        W30131  15.395  18.943  12.889 -0.0286  0.1572 -0.1767
13998W        W30132   0.548  18.053  13.728  0.1456 -0.2499  0.2613
13999W        W30133   6.207  13.210   1.126 -0.0718  0.2089 -0.2379
14000W        W30134   3.025   5.877   4.507  0.1237 -0.0654  0.0488
14001W        W30135  14.376  10.383   3.409  0.2465  0.1669  0.1062
14002W        W30136  17.152   1.174   0.803  0.1026  0.1573 -0.0449
14003W        W30137  11.973  18.461  10.369  0.1484 -0.1122  0.1903
14004W        W30138   4.383   8.753  11.464 -0.2873 -0.0667 -0.0251
14005W        W30139   3.301   1.791   2.551 -0.0953 -0.3012 -0.0468
14006W        W30140   9.962  11.965   3.654 -0.0278  0.0696 -0.1105
14007W        W30141   8.677   8.029   4.226 -0.1214  0.1069 -0.0086
14008W        W30142   6.712  15.603   1.783 -0.0517 -0.1807  0.1572
14009W        W30143   1.540  17.536  14.552 -0.0878 -0.0356  0.1396
14010W        W30144   9.635   8.030   1.131  0.0991 -0.0203  0.3471
14011W        W30145  10.156   6.833   3.313  0.1081  0.0899  0.1031
14012W        W30146  13.525  16.660  10.938 -0.0922 -0.4982  0.2159
14013W        W30147  10.318  17.432   5.320 -0.4038  0.2511 -0.1471
14014W        W30148   6.363  14.908   2.693 -0.0937  0.1227  0.0175
14015W        W30149  14.204   9.504   3.644  0.2098  0.2765 -0.0070
14016W        W30150  17.168   5.311   3.350  0.0516 -0.3026 -0.0275
14017W        W30151  11.513   2.321  14.744  0.1723 -0.2278  0.2591
14018W        W30152  11.896  12.135  12.606  0.2759 -0.1682 -0.0765
14019W        W30153  14.488  10.738   4.144 -0.2903  0.0023  0.0881
14020W        W30154   6.549  10.434   4.923  0.0298  0.0268 -0.1957
14021W        W30155  12.519   6.118  12.809 -0.0092 -0.0193  0.1604
14022W        W30156   0.986  12.728   3.482  0.2479 -0.2635 -0.0325
14023W        W30157   5.182  11.282   1.610 -0.0552 -0.1986 -0.1605
14024W        W30158   2.557  14.938  13.536 -0.0296  0.0935 -0.1290
14025W        W30159   3.199  16.320  14.191 -0.2244 -0.0152 -0.0672
14026W        W30160   3.901  15.766   3.704  0.3117  0.4033  0.2488
14027W        W30161   6.517   2.479   4.580 -0.0609  0.0834 -0.2387
14028W        W30162   9.735  14.389  10.783 -0.1305 -0.0775 -0.1425
14029W        W30163  11.559  15.754   1.111 -0.1229 -0.1097  0.0109
14030W        W30164   5.507  17.906   5.315  0.3464 -0.1059 -0.1158
14031W        W30165   3.034  12.084   1.533  0.0024  0.0367  0.0980
14032W        W30166  11.022   9.593   3.815 -0.1322 -0.3136 -0.1303
14033W        W30167   9.779  16.278   0.989  0.0218 -0.0855  0.0607
14034W        W30168  10.074  16.460   3.290  0.4894 -0.2172 -0.0404
14035W        W30169  13.286   7.260  11.986  0.1144  0.1319 -0.0795
14036W        W30170   7.002   6.283   2.280 -0.2345  0.1780  0.1642
14037W        W30171   1.299   5.680  10.982 -0.2846  0.2452 -0.1152
14038W        W30172   1.665   2.025  14.347  0.1325 -0.0011  0.2193
14039W        W30173  14.370  12.931   5.068  0.1686 -0.1648 -0.0770
14040W        W30174  16.472  16.669   1.182  0.1752 -0.2230  0.0858
14041W        W30175  12.300   3.511  14.532 -0.1266 -0.2007  0.0549
14042W        W30176   8.279  12.444   1.479 -0.2249 -0.0973  0.0624
14043W        W30177   9.852   5.045   3.604 -0.1934  0.1331  0.1886
14044W        W30178   4.510  11.504   0.608  0.1024 -0.0056 -0.3855
14045W        W30179   9.777  14.143   3.570  0.0399  0.1060 -0.1242
14046W        W30180  14.477  16.375   0.269  0.1341 -0.0189  0.0902
14047W        W30181   9.932  18.842  13.256 -0.0635 -0.0877 -0.0371
14048W        W30182   3.047  18.432   3.952  0.5066  0.3508  0.0716
14049W        W30183   2.968   7.791   2.024 -0.1477 -0.0661  0.3292
14050W        W30184   0.688  18.708  12.085  0.0804  0.1078 -0.0888
14051W        W30185  13.581  14.796  15.009 -0.2135  0.3378 -0.1295
14052W        W30186  18.729   6.657  10.811  0.4032  0.1533 -0.2236
14053W        W30187  19.128   6.957   4.206  0.3089 -0.2011  0.1992
14054W        W30188   5.106   4.414   4.545  0.4493  0.1353  0.1515
14055W        W30189   7.222  12.980  12.901  0.3295 -0.1462 -0.0045
14056W        W30190  14.786  17.676   2.717 -0.2658  0.1205  0.1904
14057W        W30191   4.244   5.404   4.684  0.0867 -0.1729 -0.0426
14058W        W30192  14.026   1.961   1.340  0.2138 -0.0166  0.0368
14059W        W30193  17.230   5.181  11.291 -0.3161 -0.0741 -0.1155
14060W        W30194   2.560  12.444  14.166  0.0200 -0.1070  0.3507
14061W        W30195   4.182  13.643  12.935  0.1976  0.2428  0.0124
14062W        W30196  11.338   8.173  12.297 -0.0500 -0.3371 -0.1239
14063W        W30197  11.425  17.615   0.073 -0.0387  0.2552 -0.1849
14064W        W30198   8.553  16.368  13.419 -0.2140  0.2403  0.0066
14065W        W30199   6.651   4.497   2.877 -0.0088  0.1548  0.2376
14066W        W30200  14.866  17.193  11.642 -0.0779  0.1841  0.3574
14067W        W30201  12.196   7.407  12.887  0.1460 -0.2405  0.1760
14068W        W30202  16.820  11.840   2.937  0.0481 -0.1701  0.1065
14069W        W30203  18.354   6.460   2.580  0.1280 -0.2229  0.0688
14070W        W30204  16.713  15.930   2.052  0.3853 -0.1560 -0.3540
14071W        W30205   9.894  14.978   1.197 -0.1814  0.1677  0.1822
14072W        W30206   9.886   0.289   2.528 -0.2101 -0.1322  0.0043
14073W        W30207  15.052  13.928  11.952  0.0717 -0.0014  0.2776
14074W        W30208   8.647   2.143   0.352 -0.2128  0.0774  0.2292
14075W        W30209  16.220   7.057  14.205  0.0785 -0.0462  0.3703
14076W        W30210  16.197   4.491   3.747  0.4065  0.1555 -0.2489
14077W        W30211   4.099  11.780   4.024 -0.1299  0.0182  0.1094
14078W        W30212  11.347  18.906  13.070  0.0788 -0.1243  0.2094
14079W        W30213   6.966   7.223   2.772 -0.4547  0.1206  0.0337
14080W        W30214   5.793   9.596   3.229  0.2611  0.0999 -0.1817
14081W        W30215  19.012   3.013   2.311 -0.2023  0.1822 -0.3895
14082W        W30216  13.829   3.920  10.849 -0.2222  0.0870  0.1219
14083W        W30217  12.317  18.116   0.533 -0.1023  0.3757  0.2560
14084W        W30218   2.674  14.395  13.788 -0.1385  0.2458 -0.2824
14085W        W30219  11.128  18.877  14.260  0.0235  0.1637 -0.1777
14086W        W30220   0.376   7.474   2.487 -0.0058  0.2099  0.3155
14087W        W30221  15.588   8.820  14.309  0.1253  0.2171 -0.2036
14088W        W30222  16.835   5.914   0.850 -0.0411 -0.1055 -0.2551
14089W        W30223  12.409   6.576  10.498 -0.0651  0.3930  0.1014
14090W        W30224  10.639   7.029  10.931 -0.2365  0.1464  0.0324
14091W        W30225   4.076   1.596   3.988 -0.1543 -0.0625 -0.2240
14092W        W30226  13.831   0.994   4.232 -0.1609 -0.3739 -0.4360
14093W        W30227  15.194  17.103   1.314 -0.0679 -0.1660  0.1937
14094W        W30228   2.002  15.554  12.447 -0.0102 -0.1863  0.0320
14095W        W30229   4.847   0.851   2.629  0.0584  0.0234 -0.0367
14096W        W30230   4.358  12.053   2.968  0.1801 -0.0560 -0.1344
14097W        W30231   8.861   3.515   3.457  0.0850  0.0618  0.1956
14098W        W30232  16.445  15.846  12.105 -0.2892  0.1081  0.1242
14099W        W30233  13.223   0.138  12.477  0.0525 -0.2165  0.1121
14100W        W30234  11.502  13.875  11.757 -0.0705 -0.0124 -0.0984
14101W        W30235   5.468   0.943  13.819  0.0755  0.1672  0.0246
14102W        W30236   9.148  10.070   2.019  0.2085  0.1515  0.1691
14103W        W30237   7.980   5.711  12.579 -0.1656 -0.0588  0.0044
14104W        W30238  11.344  12.233   9.446  0.0466  0.0614  0.0068
14105W        W30239  13.291   5.857   3.951  0.2664  0.0697 -0.2698
14106W        W30240  10.499   3.054   0.240 -0.0077 -0.4285  0.1311
14107W        W30241   3.177   4.165   0.755  0.0821  0.0263  0.1014
14108W        W30242   5.739  14.502   5.282  0.0286 -0.2725  0.0129
14109W        W30243   7.145  12.165   1.765 -0.1537  0.3667  0.1169
14110W        W30244   7.055   9.185  12.281 -0.3848 -0.0258 -0.0731
14111W        W30245   1.190  17.836   2.068 -0.2240 -0.2568 -0.3545
14112W        W30246  17.062   5.521  12.013  0.1349 -0.4619 -0.2786
14113W        W30247   2.423  10.071  12.936  0.1503 -0.0424  0.2307
14114W        W30248  12.124  13.043   1.558  0.0340 -0.1602  0.0640
14115W        W30249  12.646  17.529   0.966 -0.1123 -0.0623  0.0966
14116W        W30250   7.051  15.582  12.191 -0.0496 -0.2464 -0.0361
14117W        W30251   2.380  16.517  13.641  0.3708  0.2880  0.1640
14118W        W30252  10.721   1.182  14.779 -0.2456 -0.2101 -0.3075
14119W        W30253   9.349  14.479   2.259 -0.2325 -0.2166  0.1037
14120W        W30254  10.925   5.148  11.371  0.1400  0.3232 -0.1129
14121W        W30255   7.941   0.938   9.678  0.0284 -0.2199  0.0181
14122W        W30256   6.639   8.198  10.718 -0.0332  0.1051 -0.1579
14123W        W30257   2.870  11.658   3.496 -0.1974  0.1485 -0.3713
14124W        W30258   5.196   8.958   5.420  0.1596 -0.2643 -0.1878
14125W        W30259   5.668   6.813   9.577 -0.0635 -0.1315 -0.0014
14126W        W30260   3.302   9.505   2.258 -0.0251  0.0899 -0.0792
14127W        W30261  12.398  14.825   4.151 -0.2755  0.1044  0.3375
14128W        W30262  17.121   7.435   0.825 -0.0763 -0.1631  0.4157
14129W        W30263   3.149  10.641  11.012 -0.1822 -0.0362  0.3950
14130W        W30264  14.837  13.638  13.948 -0.0779 -0.0117  0.1776
14131W        W30265   4.207  10.778   1.373 -0.1132  0.0096  0.0695
14132W        W30266  17.058  14.224  12.542  0.2601  0.0885  0.0220
14133W        W30267  15.870   4.157   2.368 -0.0915 -0.4057 -0.1468
14134W        W30268  18.200  10.639  12.849 -0.1375 -0.1407 -0.0571
14135W        W30269  13.339   7.273  10.076  0.2884  0.3618  0.0174
14136W        W30270  11.835  12.389   3.325  0.3521 -0.2132  0.0899
14137W        W30271  10.783   3.972   0.150 -0.2910 -0.1937  0.0585
14138W        W30272   3.658  19.140   2.695  0.1546 -0.0166  0.0378
14139W        W30273   8.052   6.340   1.248 -0.0797  0.0315  0.2350
14140W        W30274   6.351   6.355   1.755  0.1082 -0.0221  0.1255
14141W        W30275  11.881   4.732   3.685 -0.0511  0.3340  0.4273
14142W        W30276  10.886  14.614   3.462  0.2229  0.3957  0.0843
14143W        W30277   7.938   3.972  13.756 -0.0451 -0.2630  0.0840
14144W        W30278  14.410   4.853   3.398  0.2183  0.2794  0.0423
14145W        W30279   6.657  13.627   2.373 -0.1746  0.1502  0.0527
14146W        W30280  13.628  16.581  10.429 -0.0784 -0.2001 -0.2814
14147W        W30281  11.127  17.425  12.464  0.1580  0.1152 -0.0198
14148W        W30282  11.782  17.754   1.034 -0.3762 -0.0484  0.1137
14149W        W30283   4.580   1.681  10.722  0.1218 -0.1587 -0.1543
14150W        W30284   0.108   1.685   2.776  0.0531  0.1747  0.0200
14151W        W30285  16.139   8.052   0.831 -0.0260 -0.2050 -0.0403
14152W        W30286   3.409  17.593   2.388 -0.0166  0.0746  0.1138
14153W        W30287   0.421  13.734   3.385 -0.0076 -0.1209  0.0437
14154W        W30288  14.728  15.989  10.939  0.1507  0.2250 -0.0537
14155W        W30289  11.690   9.920   0.185 -0.0139  0.2243  0.2708
14156W        W30290   2.732  17.628   4.374 -0.0224 -0.1785  0.3702
14157W        W30291   2.082  16.308   2.010 -0.0005  0.0077 -0.0897
14158W        W30292   6.678  16.651  13.934 -0.2007 -0.1011  0.4917
14159W        W30293  10.000  19.314  13.482  0.0442 -0.1276  0.0063
14160W        W30294  12.381   0.370  12.545 -0.0223  0.0875  0.1585
14161W        W30295   9.073  10.982  12.866 -0.1323 -0.0647 -0.0511
14162W        W30296   3.791   5.700   0.103  0.1238  0.1084 -0.2412
14163W        W30297  12.602  16.903  10.922 -0.0745  0.0332  0.1248
14164W        W30298   8.123  17.483   9.986  0.1581  0.1061  0.1346
14165W        W30299  13.347   3.218  13.487 -0.0613  0.0355  0.3772
14166W        W30300  14.477   7.111   5.325 -0.0433 -0.0500  0.1468
14167W        W30301  10.313  13.038  14.329 -0.2324 -0.3367  0.1761
14168W        W30302   8.574  15.188  12.001 -0.1206  0.0941 -0.0085
14169W        W30303  13.692  17.577  13.479  0.1322  0.0668 -0.0415
14170W        W30304  14.273   3.056  10.377  0.1102  0.1765 -0.1780
14171W        W30305   7.142   4.128  11.836  0.2843 -0.2485 -0.1844
14172W        W30306   9.025   5.691  14.725 -0.0295 -0.0634  0.2398
14173W        W30307  10.741  14.083   0.346 -0.0776  0.0575  0.2859
14174W        W30308   9.888  12.968   0.110  0.0005 -0.0780  0.1181
14175W        W30309  14.116   1.243  11.651  0.0642 -0.0315 -0.0256
14176W        W30310   0.576   5.567   2.477  0.4626  0.0263 -0.0993
14177W        W30311  15.234   5.775   4.767  0.2292 -0.0977  0.0175
14178W        W30312   6.712  16.725   1.114 -0.2843 -0.0374 -0.1456
14179W        W30313   4.749   2.023  13.082 -0.0341 -0.0519 -0.0470
14180W        W30314  11.113  18.107   2.859 -0.2542 -0.1290  0.3116
14181W        W30315  10.422   5.786   0.893 -0.0959 -0.0225  0.0849
14182W        W30316   3.344  14.024   0.667 -0.1350 -0.2204  0.1955
14183W        W30317  10.608   4.817  13.110 -0.1250 -0.1219 -0.1226
14184W        W30318   6.185   9.767   1.126 -0.1551 -0.1533 -0.1064
14185W        W30319   7.577  13.003   1.401  0.0618 -0.0604  0.0589
14186W        W30320   5.373  14.382  10.519 -0.2064  0.1958  0.1718
14187W        W30321   0.379   4.179   2.787  0.1438  0.3424  0.3865
14188W        W30322   6.401  13.297  11.062 -0.1887 -0.2489 -0.1491
14189W        W30323  17.866  13.529   5.067  0.0736 -0.0783  0.3618
14190W        W30324   3.686   1.068   1.046 -0.0799  0.2785  0.4195
14191W        W30325   2.315   7.909  12.298 -0.0154 -0.0693 -0.0871
14192W        W30326  19.283   1.315  10.854  0.1669  0.1060  0.0770
14193W        W30327   1.294  17.589   9.578  0.4405  0.2672  0.0148
14194W        W30328   1.194  11.586   0.556 -0.1224  0.1979 -0.1590
14195W        W30329  11.618  16.561   5.110  0.0975 -0.1925  0.2449
14196W        W30330  14.469  16.878   1.493 -0.0513 -0.1483 -0.1093
14197W        W30331   5.194  17.281  11.931  0.1501 -0.0565  0.2372
14198W        W30332   4.834   5.580   2.087  0.2314 -0.2111 -0.0859
14199W        W30333   6.312   8.061  13.219 -0.0843  0.1687 -0.0368
14200W        W30334  16.579  13.164  11.975 -0.0833  0.2881 -0.3555
14201W        W30335   9.649  13.167  12.745  0.1542 -0.2298 -0.0617
14202W        W30336   2.070  13.356  12.030 -0.4040 -0.2270  0.0724
14203W        W30337   4.198   3.352  11.225 -0.6584  0.3405 -0.3059
14204W        W30338   1.535  12.823  10.854  0.0796  0.1889  0.2049
14205W        W30339  19.005   0.041  12.698  0.0664 -0.0470  0.0775
14206W        W30340  10.689   7.786   0.169 -0.1939  0.3994 -0.1653
14207W        W30341  13.663   6.984  11.788 -0.4146  0.0353  0.0868
14208W        W30342  10.278   7.325   4.710 -0.2468  0.1163 -0.0165
14209W        W30343  10.064  17.765  10.452 -0.0279  0.2487 -0.0411
14210W        W30344   4.757  15.914   2.375 -0.0096  0.1221  0.0833
14211W        W30345   6.877   4.426  10.991 -0.0821  0.1707 -0.2629
14212W        W30346   6.051  18.188   1.923  0.3312  0.2455 -0.0923
14213W        W30347   1.083   7.354   1.182  0.0483 -0.1785  0.1886
14214W        W30348   2.509   7.685   4.027 -0.0331  0.0101 -0.0764
14215W        W30349  10.556  14.121   4.119  0.1213 -0.2707  0.1493
14216W        W30350  11.378  12.802   5.193  0.1664 -0.0280  0.1758
14217W        W30351  12.634   3.099   4.533  0.0362 -0.0505 -0.3888
14218W        W30352   5.962  15.868   1.374 -0.1491 -0.2998 -0.1304
14219W        W30353   7.479   7.810   5.765 -0.2049 -0.2203 -0.0807
14220W        W30354  14.528   6.548  14.145 -0.1205  0.1659 -0.1062
14221W        W30355  14.579   1.914  14.723  0.0983 -0.0585  0.1225
14222W        W30356   2.379  18.846  10.261  0.0167  0.1965 -0.2114
14223W        W30357   3.841   9.252   0.099 -0.2544  0.3134 -0.1811
14224W        W30358   4.216  19.334   5.412 -0.0946 -0.2681  0.1875
14225W        W30359   0.286  12.734  14.665 -0.2390  0.0763 -0.3597
14226W        W30360   8.211   5.918  14.924  0.4464  0.1187  0.0044
14227W        W30361  14.927  10.605   2.291 -0.2788 -0.0457 -0.0939
14228W        W30362  17.072  17.611   0.304  0.0979 -0.1276  0.0716
14229W        W30363   0.752  18.307   4.959  0.1218  0.1973 -0.0074
14230W        W30364  13.428  10.460  14.885 -0.1032 -0.0990  0.1305
14231W        W30365   3.503  10.908  13.864 -0.1268  0.1364 -0.1442
14232W        W30366  18.239   0.533   4.237 -0.4201  0.0069  0.0100
14233W        W30367  18.528  14.078  12.625  0.1189  0.0864 -0.1555
14234W        W30368  14.095   2.295  12.842  0.0431 -0.2108  0.3533
14235W        W30369   6.352  11.861   0.242 -0.1875  0.0493 -0.2370
14236W        W30370  16.582   8.188   1.987  0.1087  0.3334  0.2454
14237W        W30371   2.817   1.419  11.842 -0.4111 -0.0075  0.3823
14238W        W30372   8.563  13.440   5.922 -0.0936 -0.0992 -0.1877
14239W        W30373  16.672  17.844   9.691  0.0772 -0.3780 -0.0832
14240W        W30374  12.991  17.972   1.697 -0.0639 -0.4344  0.0936
14241W        W30375   4.990  18.635   3.229  0.0960  0.1916  0.1217
14242W        W30376   6.860  19.252   4.387 -0.0440 -0.1345  0.3446
14243W        W30377   4.857  17.483  13.570  0.1717 -0.0233  0.0428
14244W        W30378  14.393   9.590  11.998  0.1239 -0.4872  0.1033
14245W        W30379  17.517  15.807  13.256 -0.2391 -0.0014 -0.4043
14246W        W30380  13.748   2.895  13.626 -0.1076 -0.3094  0.2018
14247W        W30381  17.813   5.689   2.017 -0.0036 -0.1740  0.0920
14248W        W30382  14.473  12.366   0.519  0.1554 -0.0258  0.2990
14249W        W30383  10.037  16.353   0.200 -0.1672 -0.1170 -0.0240
14250W        W30384   9.012   6.534   0.334  0.1083  0.2794 -0.1776
14251W        W30385   0.979   6.133   5.274  0.0073 -0.0768 -0.1649
14252W        W30386  10.483  13.650  10.795 -0.5477 -0.1025  0.1873
14253W        W30387   7.867   1.241   4.216  0.0384  0.0195 -0.2837
14254W        W30388   8.459   5.431  11.211 -0.0159  0.3739 -0.0826
14255W        W30389  10.391   7.180   3.534  0.0375 -0.0035 -0.1724
14256W        W30390   4.388   5.817  14.596 -0.2534  0.2009  0.0879
14257W        W30391   1.296   1.312  14.548  0.3737  0.3438  0.3883
14258W        W30392   9.383  10.863  10.497  0.2765  0.1861  0.0171
14259W        W30393  14.415   5.784   0.931 -0.0780 -0.2141 -0.3462
14260W        W30394  14.052   2.826  14.539 -0.4574 -0.1306  0.0615
14261W        W30395  10.707   5.472   1.170 -0.2495  0.0887 -0.1839
14262W        W30396   4.624   5.904  13.158  0.4408  0.0917  0.0426
14263W        W30397  13.011  18.321  11.120  0.1350 -0.0482  0.4827
14264W        W30398   9.613  14.428  12.615  0.1330 -0.1858 -0.0215
14265W        W30399  10.719   8.451   0.792  0.0075  0.1175 -0.1889
14266W        W30400  11.734  11.831  15.009 -0.0130  0.2176 -0.1070
14267W        W30401  17.896  17.833  12.547 -0.2174  0.0003  0.3198
14268W        W30402   5.205   4.753   9.050  0.1373 -0.2181  0.1764
14269W        W30403   0.995   0.566   0.842 -0.1587  0.0874  0.1904
14270W        W30404  10.847   5.828  14.150  0.0841 -0.0795 -0.2158
14271W        W30405   9.888  14.106   5.579  0.2807  0.1547  0.1846
14272W        W30406   0.024  14.489   5.331 -0.0547  0.0218  0.0839
14273W        W30407  16.927   5.894  13.254  0.2060  0.2899  0.0556
14274W        W30408   6.203  10.289   2.095  0.0907 -0.1683 -0.0767
14275W        W30409   7.784  15.722  10.875 -0.0036 -0.0854  0.4207
14276W        W30410  17.761  12.888  14.370  0.1014  0.1416  0.2710
14277W        W30411  10.839   4.497   5.389  0.1290  0.2419 -0.1513
14278W        W30412   5.496   6.389  11.686  0.1382 -0.1194  0.0136
14279W        W30413  17.019   8.089   1.582 -0.0096 -0.1304 -0.2261
14280W        W30414   7.912  15.999  14.964 -0.0691  0.1265  0.2874
14281W        W30415  12.444   8.853   1.161  0.2971  0.1122  0.1281
14282W        W30416  17.296  16.286   0.877 -0.1229 -0.0865  0.0019
14283W        W30417  18.871   4.556   4.526  0.1407  0.1880 -0.1780
14284W        W30418   5.630  13.462  13.123  0.1337 -0.1579 -0.0850
14285W        W30419   0.541  10.015  11.082  0.0037 -0.1475  0.0576
14286W        W30420   5.425   0.781   3.731  0.3594  0.2665  0.2480
14287W        W30421   6.290   4.432  11.769 -0.1002  0.3660  0.2011
14288W        W30422   3.814   6.266   4.079  0.0046 -0.1146 -0.0588
14289W        W30423  15.293   6.716   0.449 -0.2778 -0.3572  0.2138
14290W        W30424  16.033   6.319  12.151  0.0665  0.0712  0.1901
14291W        W30425  10.629   5.326   4.047 -0.1975 -0.2033 -0.2848
14292W        W30426   9.955   1.812   3.706 -0.2411  0.3912 -0.1898
14293W        W30427  12.931  18.743  13.473 -0.1190 -0.1269 -0.2512
14294W        W30428  19.306  11.280   2.155  0.1019  0.1810 -0.0557
14295W        W30429  10.695   7.362  12.495  0.0075 -0.0229 -0.2504
14296W        W30430  16.633   0.997   0.772  0.2072 -0.2417  0.0766
14297W        W30431  18.903  10.361   1.247  0.1402  0.2840 -0.0521
14298W        W30432   3.233  12.428   2.681  0.1306 -0.1365 -0.0359
14299W        W30433  13.542   2.442   5.023 -0.3516  0.2553  0.1860
14300W        W30434   3.462   0.647   2.943  0.4170 -0.0297 -0.2277
14301W        W30435   3.204  17.438   4.405  0.1042  0.1677  0.1298
14302W        W30436  10.262   6.917  11.205 -0.1223 -0.0561 -0.1275
14303W        W30437   9.117   9.753  12.204 -0.1869  0.1763  0.1354
14304W        W30438   1.737  18.492  13.227  0.0961  0.1363  0.2272
14305W        W30439  11.984   0.722   1.694 -0.2090  0.1220 -0.1004
14306W        W30440  18.522   0.017   0.898  0.0008 -0.0205 -0.0953
14307W        W30441   3.557  17.229   4.705  0.1834 -0.0254  0.0143
14308W        W30442   1.011   1.435   4.697 -0.2094  0.0959 -0.4707
14309W        W30443   3.501   9.686  13.622 -0.2254 -0.2715 -0.1829
14310W        W30444   2.410  10.550  14.879  0.1475 -0.1773  0.3461
14311W        W30445   7.459  18.400  13.871 -0.5886  0.0122 -0.0691
14312W        W30446  14.543   2.943   4.103 -0.1730 -0.3322 -0.0146
14313W        W30447  13.833  11.071   4.944  0.3035  0.1660  0.0636
14314W        W30448  14.734   2.089  14.268 -0.2077  0.0239 -0.1129
14315W        W30449  10.865   7.579  10.545 -0.0489 -0.1801  0.1878
14316W        W30450  19.033  12.157   1.568  0.2560 -0.2156  0.0599
14317W        W30451   2.181  15.906  14.351  0.2246  0.1184 -0.1029
14318W        W30452  12.510  15.526   2.312  0.3432  0.2164 -0.2624
14319W        W30453   8.916  18.074   1.683  0.2639 -0.0341 -0.1328
14320W        W30454   1.618   5.188   4.258 -0.0724  0.0590  0.0162
14321W        W30455   2.249   7.144   1.309  0.1591  0.0616 -0.3601
14322W        W30456   9.636   1.597   4.503  0.2904  0.3477 -0.0419
14323W        W30457   7.223  16.728  11.551 -0.1468  0.0258 -0.1284
14324W        W30458   6.238  13.987  11.329  0.0188  0.1322  0.2236
14325W        W30459  16.889   3.902   3.667 -0.1476  0.0473  0.1832
14326W        W30460  16.822  15.942  11.078  0.0937  0.0200  0.0201
14327W        W30461  18.027  15.676   0.683 -0.0793  0.0698  0.3165
14328W        W30462  18.918  16.351   1.894 -0.0808 -0.1123  0.0486
14329W        W30463  17.741  11.535   0.417  0.4647  0.0807 -0.2452
14330W        W30464   6.480   2.641  12.540 -0.0822  0.2206  0.1640
14331W        W30465   7.310  11.886  10.324  0.0250 -0.1795  0.0518
14332W        W30466   3.677  11.338  13.500 -0.0749  0.1397  0.0593
14333W        W30467   7.703  10.524  14.903  0.0684  0.1854  0.2148
14334W        W30468   0.479   4.480  14.322  0.2737 -0.0569  0.0770
14335W        W30469   0.084   2.840   0.406  0.3177  0.2626  0.3004
14336W        W30470   5.336   3.321  14.553  0.1695 -0.1605  0.0902
14337W        W30471  19.309   4.717   2.155 -0.1737 -0.1724  0.0473
14338W        W30472   2.249   1.014  14.075 -0.2617 -0.4328  0.1899
14339W        W30473  13.513   9.665   0.153 -0.0534 -0.0732  0.0477
14340W        W30474   7.265  13.343   1.168 -0.1087 -0.0075 -0.0023
14341W        W30475   8.224   2.697   0.022 -0.2336 -0.0594 -0.0647
14342W        W30476  18.757   3.012   0.122 -0.2626 -0.2652 -0.2975
14343W        W30477  11.277   4.122  11.640 -0.0290 -0.1931  0.0701
14344W        W30478   8.766   5.061   2.336 -0.0538  0.1982  0.2931
14345W        W30479   9.700   6.381   3.193 -0.3331  0.0110 -0.1221
14346W        W30480  16.167  10.340   3.030 -0.2515 -0.0320 -0.1808
14347W        W30481  10.827   8.629   2.704 -0.3912 -0.0725 -0.2123
14348W        W30482   7.110  17.021   3.852 -0.1184 -0.0126 -0.2540
14349W        W30483   2.679  18.360   3.188 -0.1780 -0.0828  0.1222
14350W        W30484   8.682   1.229   3.533  0.1745 -0.0787  0.3032
14351W        W30485   7.547   0.156   1.087  0.2262  0.0653 -0.0113
14352W        W30486   5.023   1.045  10.986  0.0408 -0.2800 -0.6642
14353W        W30487   0.113  17.985   3.598  0.0120  0.2628  0.3047
14354W        W30488   5.751   8.633  14.475  0.0828  0.4475 -0.1117
14355W        W30489  16.677   7.950  11.397 -0.0907 -0.0724  0.3802
14356W        W30490   5.576   3.822  11.879 -0.0582  0.0735 -0.3180
14357W        W30491   2.354   8.999   0.421 -0.2001  0.2536 -0.3733
14358W        W30492   9.109  11.511   9.494 -0.2989 -0.1453 -0.1043
14359W        W30493   6.144  12.657   3.647  0.2590 -0.1465 -0.1770
14360W        W30494   2.905   0.030   5.201  0.1315 -0.5091 -0.0730
14361W        W30495  13.506  15.822   1.033 -0.1826 -0.0700  0.1171
14362W        W30496  10.660   1.698  13.908 -0.0319  0.0723  0.1477
14363W        W30497   4.665  16.298   0.082  0.0126 -0.1350 -0.0101
14364W        W30498  17.616   6.269   9.292  0.1170 -0.0624  0.4617
14365W        W30499  10.400   8.937   2.839  0.0528 -0.0182 -0.4177
14366W        W30500   5.460  11.301   0.918 -0.1165 -0.1855 -0.2023
14367W        W30501  16.083  18.082  13.754  0.0020 -0.0083 -0.0789
14368W        W30502   6.266  13.485   2.978  0.2837 -0.1138 -0.2217
14369W        W30503  13.229   2.022  12.970 -0.2559  0.0708 -0.2345
14370W        W30504  10.985   2.540   2.040 -0.2888  0.0655  0.1856
14371W        W30505   2.855  11.302   3.955  0.2555  0.4677  0.0186
14372W        W30506  15.135   9.184   3.368  0.1131 -0.0691  0.1276
14373W        W30507   8.288   2.689  13.922  0.1584 -0.0182  0.2638
14374W        W30508   2.264   7.692  14.721 -0.3162 -0.0857 -0.5168
14375W        W30509  18.430  12.199  15.007 -0.1102  0.1363 -0.1476
14376W        W30510  11.126   9.451   4.686 -0.2944 -0.3889 -0.2520
14377W        W30511   1.738  13.797   5.392 -0.1149  0.2511 -0.0978
14378W        W30512   0.313  10.126   3.420  0.0428  0.2558 -0.2091
14379W        W30513  14.432  10.555   2.043  0.3543  0.0803  0.0923
14380W        W30514   2.932   5.000  10.691  0.1320  0.0687  0.0356
14381W        W30515  15.276  11.991   4.560  0.1898  0.3343  0.0105
14382W        W30516  10.087  10.908  13.691  0.3586  0.0611  0.0614
14383W        W30517  13.440  18.726   0.869  0.3843  0.1693 -0.1130
14384W        W30518   0.409   2.103  14.253  0.0785  0.0055 -0.2768
14385W        W30519  14.554  15.227   2.874  0.3848  0.2309 -0.3250
14386W        W30520  15.517  13.944   4.596 -0.1213  0.3086  0.0313
14387W        W30521   5.692   7.321  11.343  0.1985 -0.2651  0.1849
14388W        W30522   9.010  13.947   4.277  0.1524  0.2349 -0.3668
14389W        W30523   3.274   7.426   1.204  0.4899  0.2229  0.3397
14390W        W30524   8.180  17.012  10.830  0.0510 -0.1124  0.0739
14391W        W30525  13.218   3.944   4.744  0.4114  0.3318 -0.3778
14392W        W30526   1.466  16.045   0.652  0.1872 -0.1933  0.1279
14393W        W30527   4.057  18.407  13.752  0.1836 -0.0569  0.4808
14394W        W30528   1.917  14.044   3.546 -0.0267  0.1415 -0.0566
14395W        W30529   4.158  18.023   0.066 -0.0198 -0.0542  0.2957
14396W        W30530   5.522   5.044  12.195 -0.2260 -0.0722  0.2150
14397W        W30531   5.848  19.141   2.324 -0.1339 -0.0430  0.1621
14398W        W30532   3.021   1.372  13.723 -0.0288 -0.1212  0.0429
14399W        W30533  12.694   5.825   0.016 -0.2694  0.1772 -0.0339
14400W        W30534  17.083   7.855   3.435  0.2159  0.3892  0.0370
14401W        W30535  18.029   4.757  11.220 -0.1603 -0.2167 -0.0024
14402W        W30536   3.570  12.956  11.139  0.2383 -0.1531 -0.1084
14403W        W30537   8.188  10.912  11.677  0.2632  0.2493 -0.0301
14404W        W30538   9.645   3.111  11.908 -0.0984  0.0319  0.2259
14405W        W30539   9.227   5.082   2.159  0.0566  0.1256  0.3031
14406W        W30540   7.563  15.779   3.471 -0.1208 -0.0057  0.0219
14407W        W30541   5.598  18.444   3.934  0.2965  0.2411 -0.0582
14408W        W30542  10.593   4.058   3.358 -0.3157  0.0593 -0.0668
14409W        W30543   4.056  17.009   2.689  0.1900 -0.1171 -0.0790
14410W        W30544   4.454   9.134  13.507  0.1504  0.1578  0.1681
14411W        W30545   5.719  17.006   2.469 -0.0665  0.1076  0.2516
14412W        W30546  18.545  14.725   1.158  0.0749  0.0405 -0.0103
14413W        W30547   7.151  16.735  12.670 -0.0462  0.0919  0.0989
14414W        W30548   5.172   4.949  14.545  0.0041 -0.0958 -0.0143
14415W        W30549   9.147  16.863   0.702 -0.1139  0.0752  0.2381
14416W        W30550   6.102   9.656   2.825  0.2105  0.1240  0.3198
14417W        W30551   1.442   3.328  12.011  0.1252  0.3923  0.1023
14418W        W30552  11.893  16.040   3.342 -0.1360 -0.2655 -0.0794
14419W        W30553  13.477   2.552   0.543  0.1700 -0.1747 -0.1524
14420W        W30554   9.222  18.510   1.368 -0.3113 -0.0396 -0.0865
14421W        W30555   5.433   0.914   2.765 -0.0790 -0.0830  0.0589
14422W        W30556  10.779  18.712  12.185  0.0356  0.2415  0.1221
14423W        W30557   0.571   2.240  12.122  0.0960 -0.2109  0.0024
14424W        W30558  10.839   3.551  11.869  0.2911  0.0212  0.0321
14425W        W30559  14.021  11.785  14.552 -0.0796 -0.0565 -0.0709
14426W        W30560   3.775   3.137  12.984  0.3244  0.0898 -0.1168
14427W        W30561   8.450  17.823  13.033 -0.1843 -0.0050  0.1371
14428W        W30562   5.822   1.654  12.606 -0.0808  0.3700  0.0928
14429W        W30563  12.316  10.634   2.590  0.1344  0.0652  0.1598
14430W        W30564   6.620   7.292  13.069 -0.0365 -0.1806  0.1193
14431W        W30565   5.526   7.276   1.769 -0.0620 -0.2679 -0.0589
14432W        W30566  18.249  12.847   0.044  0.0200  0.2876 -0.2041
14433W        W30567   7.097  18.384   4.350  0.1218  0.1295 -0.1248
14434W        W30568  18.260   6.234   4.205  0.0676  0.0424 -0.1519
14435W        W30569  18.179   8.109   1.158 -0.0379 -0.0090  0.3433
14436W        W30570   8.387  11.157  13.968  0.2841  0.3074 -0.3458
14437W        W30571  14.626   2.956   4.612  0.1089  0.1989  0.3264
14438W        W30572   5.060  15.004   1.884  0.0503 -0.3305  0.1031
14439W        W30573   2.551  18.703  13.404  0.1230  0.1480  0.1345
14440W        W30574  13.672  17.229  12.711 -0.4566 -0.0767 -0.1861
14441W        W30575   1.434   6.408  11.732  0.2504 -0.0876  0.3697
14442W        W30576   9.783   7.360   3.375  0.0149  0.1474 -0.2516
14443W        W30577   5.632   6.873  11.602 -0.4291 -0.0063  0.3238
14444W        W30578  16.831  16.799   0.309 -0.0792 -0.1978  0.2879
14445W        W30579   1.670  16.683  14.971 -0.0510 -0.2445  0.2201
14446W        W30580  17.096   7.066  11.747 -0.2232  0.0546  0.1838
14447W        W30581   5.189  19.160   2.567  0.0523 -0.0474 -0.0534
14448W        W30582   8.419   3.156   3.019 -0.0435 -0.2186 -0.2354
14449W        W30583  16.053  11.407  13.065 -0.2062 -0.0299 -0.3422
14450W        W30584   2.937   1.321   1.903  0.2416  0.1220  0.1835
14451W        W30585   9.804  17.314  12.404  0.1339  0.1282  0.2211
14452W        W30586  15.438  13.514   1.990 -0.0579 -0.0442  0.1108
14453W        W30587  15.006   3.790   3.682  0.0297 -0.1462  0.3211
14454W        W30588  13.637   3.228  11.876 -0.2550 -0.0812  0.0479
14455W        W30589   5.237   3.850   2.048 -0.1350  0.2511  0.0306
14456W        W30590   0.517  16.281   1.392  0.0130 -0.0219 -0.0844
14457W        W30591   6.064  12.682  12.810  0.1533  0.0662  0.0668
14458W        W30592  14.795   8.112   4.478 -0.1238  0.0644 -0.3696
14459W        W30593   3.896  13.633  13.636 -0.1905 -0.0997 -0.2213
14460W        W30594   5.147  15.611   5.444  0.0153  0.0898 -0.2193
14461W        W30595  12.287  13.880  13.968 -0.1218 -0.1877  0.2419
14462W        W30596  11.555  13.330   1.401 -0.0725  0.3740 -0.0172
14463W        W30597   6.580  14.665   1.895  0.1381 -0.1197 -0.0107
14464W        W30598  10.932   2.073   4.935 -0.0853 -0.0077  0.1389
14465W        W30599   5.759  13.325   9.905  0.0682  0.1606 -0.2223
14466W        W30600  18.313  10.508   9.192 -0.2089  0.3897 -0.0260
14467W        W30601   5.192  17.769  13.757 -0.2605  0.1556  0.1193
14468W        W30602   9.033   9.905   3.485 -0.2575 -0.0947 -0.1273
14469W        W30603  18.469   5.929  11.959  0.0553  0.0474 -0.0024
14470W        W30604   6.347   4.138   2.766 -0.3521 -0.2544  0.0280
14471W        W30605  16.769   8.776  11.638 -0.0062  0.1495 -0.3895
14472W        W30606   5.853  11.182   4.082 -0.2597 -0.1885  0.0567
14473W        W30607  14.270  11.012   1.027 -0.0178 -0.0719  0.1590
14474W        W30608   8.800   4.107   2.667 -0.1781 -0.1875  0.2851
14475W        W30609   7.115   7.161   2.271  0.0757  0.0348 -0.2032
14476W        W30610   1.006   4.437  14.247  0.1434 -0.0740 -0.2319
14477W        W30611   1.345  17.082  10.434  0.3386  0.0405  0.4082
14478W        W30612   7.229  18.805  12.326  0.2765 -0.3142 -0.0009
14479W        W30613   7.079  10.222  12.021  0.2305  0.0798  0.1500
14480W        W30614  16.492   2.341   1.169  0.0169 -0.0866 -0.0971
14481W        W30615   0.411  11.709   2.135 -0.2325 -0.1035 -0.1023
14482W        W30616   8.454  13.603   1.228  0.1684 -0.0988 -0.0112
14483W        W30617   4.290  11.965  13.419  0.2888  0.1745  0.1652
14484W        W30618   4.698   0.681  11.898 -0.1420 -0.0660 -0.3925
14485W        W30619  15.841  11.872   0.683  0.0587  0.2609 -0.3819
14486W        W30620  16.054   9.741  12.529  0.3706 -0.2561  0.3022
14487W        W30621  12.674   5.096   0.456  0.0341  0.1195  0.1749
14488W        W30622   1.562   2.382  10.704 -0.0996  0.0659  0.1363
14489W        W30623  13.200  16.659   2.049  0.0688  0.1035  0.0122
14490W        W30624  19.029   2.824   4.499 -0.0117 -0.0299 -0.1145
14491W        W30625  13.348   6.725  13.188  0.0963 -0.1129 -0.0480
14492W        W30626   6.065   5.808   0.765 -0.3245 -0.0644 -0.2507
14493W        W30627   2.374  11.290  13.813  0.2948  0.2556  0.1289
14494W        W30628  11.073  18.175  13.503  0.0206  0.1006 -0.0139
14495W        W30629  14.597  16.741   1.979  0.0219  0.0760 -0.4101
14496W        W30630   8.249  14.890  12.974 -0.2494  0.2338 -0.1846
14497W        W30631  18.399  18.687   1.937  0.1241 -0.3887  0.0233
14498W        W30632   0.190   0.500  10.448 -0.0198 -0.1243 -0.0422
14499W        W30633  13.599  16.956  12.262 -0.4318 -0.1081 -0.1331
14500W        W30634  15.243  10.291   0.008  0.2296  0.0628  0.0280
14501W        W30635  14.533   2.884   1.830 -0.0182  0.3135 -0.0637
14502W        W30636  18.074  11.056   2.798  0.1723  0.0159  0.0534
14503W        W30637  10.877  19.215  12.244 -0.1695  0.0942  0.0900
14504W        W30638   4.723  16.966   4.030 -0.1290 -0.1558 -0.0872
14505W        W30639   5.467  10.131   2.496 -0.2891 -0.1775 -0.2536
14506W        W30640   5.833   8.913   5.360 -0.0321  0.0006  0.1872
14507W        W30641   2.177   6.887  14.587  0.0709 -0.0596  0.1328
14508W        W30642  15.205  11.454  12.564 -0.1355  0.1416 -0.2156
14509W        W30643  14.326  18.483   0.469  0.1709  0.1361  0.1041
14510W        W30644  11.801   1.534   0.188 -0.0954  0.0892 -0.1215
14511W        W30645  17.110   6.985   5.441 -0.0799 -0.2561  0.3315
14512W        W30646  18.563  17.685  11.783 -0.2953 -0.2776 -0.3859
14513W        W30647  18.329  19.138   0.480 -0.2167 -0.2547  0.3579
14514W        W30648  13.387  10.081   0.869  0.2418 -0.3259 -0.1996
14515W        W30649  13.485  14.705   1.534  0.1759  0.0917  0.0870
14516W        W30650  11.718   9.577  14.503 -0.3708  0.0222 -0.0673
14517W        W30651   8.153   7.877   4.150 -0.0654  0.2553  0.0116
14518W        W30652   1.894   5.460  12.752 -0.0608  0.2097 -0.2884
14519W        W30653  17.685  15.688   4.178 -0.1823  0.2715 -0.1865
14520W        W30654   0.229  13.601  11.081  0.1973  0.7259 -0.0972
14521W        W30655   7.074  10.013  11.191 -0.1478 -0.2816  0.2478
14522W        W30656   8.977  13.873   3.528  0.0594  0.0949 -0.3329
14523W        W30657   7.610   6.360   3.076  0.0889 -0.0347 -0.3080
14524W        W30658  16.675   2.055   4.958  0.1034 -0.3692  0.1272
14525W        W30659   2.613   8.961  12.257 -0.0033 -0.1438  0.1611
14526W        W30660   7.826   5.760  11.810 -0.0721  0.1381 -0.2396
14527W        W30661   4.839   8.029   4.229 -0.1661 -0.2429 -0.1938
14528W        W30662   2.422  16.359   1.529  0.0122  0.0815 -0.4798
14529W        W30663   9.181   0.785  11.743  0.2395 -0.0438 -0.0758
14530W        W30664   2.148  18.357   1.203  0.0051 -0.0579 -0.2148
14531W        W30665  16.526   0.146  13.495 -0.1921 -0.0751  0.1769
14532W        W30666   7.546  16.799  11.024  0.1210  0.0693  0.1041
14533W        W30667  18.374   7.945   0.700 -0.0048  0.0599 -0.0359
14534W        W30668   8.022   0.223  14.713  0.0550 -0.2442 -0.3731
14535W        W30669   9.285  18.332  13.644  0.0450 -0.1217 -0.2828
14536W        W30670   9.684   6.880   0.444  0.0287  0.2714 -0.0946
14537W        W30671   4.124   2.164   4.168  0.2216  0.1624  0.1136
14538W        W30672  12.457  15.251  12.366  0.0384  0.2163 -0.1180
14539W        W30673  12.587   8.319   9.221 -0.1047 -0.0007  0.1048
14540W        W30674   2.058   9.984  14.875  0.0299 -0.0293  0.1256
14541W        W30675   1.620   7.300   2.027 -0.2794  0.2737  0.2091
14542W        W30676  15.451  18.964   9.152 -0.1578  0.1401 -0.4851
14543W        W30677  17.640  16.431   9.961  0.0723  0.1735 -0.1545
14544W        W30678   6.135   5.688   3.443 -0.0554 -0.0466  0.0541
14545W        W30679  18.863  10.769   0.248  0.2193  0.0878 -0.0114
14546W        W30680  11.196  14.559   1.014 -0.1460  0.2809 -0.3970
14547W        W30681  16.722   8.294   3.516  0.3373 -0.0616 -0.1164
14548W        W30682  17.368   0.583   3.873  0.3543  0.2951 -0.0982
14549W        W30683   4.120  10.115  12.158 -0.1076  0.0943 -0.1754
14550W        W30684   3.031   0.478   4.388  0.0391 -0.0824 -0.1182
14551W        W30685   9.867   9.413  14.457  0.3086  0.3743 -0.1140
14552W        W30686   2.456   8.954  13.700  0.0743 -0.3346 -0.0311
14553W        W30687   6.869  16.699  14.614  0.2562  0.3191  0.0923
14554W        W30688  15.383   4.956   1.285  0.2673  0.1800  0.2513
14555W        W30689   5.392  14.844   0.921 -0.5181 -0.3540  0.0347
14556W        W30690   1.343   1.217  14.002  0.1167  0.3271  0.3182
14557W        W30691   3.105  13.928  11.385  0.1422 -0.1077 -0.1601
14558W        W30692   2.874   3.823   4.274 -0.4206 -0.0973 -0.0347
14559W        W30693  18.786  14.258   1.948 -0.0378 -0.3253  0.0936
14560W        W30694  12.467  13.392  13.933  0.4904 -0.2044  0.3918
14561W        W30695  13.092   0.558   1.668  0.0286 -0.1704 -0.0419
14562W        W30696  15.757   4.464  10.361  0.0141  0.0026 -0.2012
14563W        W30697   4.208   7.952  11.690 -0.1224  0.3328  0.1025
14564W        W30698  13.618   6.088  11.738  0.1349  0.1663 -0.1494
14565W        W30699   5.548   1.056  14.360 -0.3221  0.0542 -0.1500
14566W        W30700   7.685  17.877  13.860  0.2534 -0.2435 -0.2780
14567W        W30701  11.124   9.974   4.198  0.0241  0.0111  0.0205
14568W        W30702  15.741  12.277   2.607  0.4218  0.0456 -0.1285
14569W        W30703  11.827   6.432  13.954 -0.1493 -0.2757 -0.2891
14570W        W30704   0.981   1.611   2.025  0.4382 -0.0062 -0.0877
14571W        W30705   8.251  16.960  14.195  0.1810  0.0526  0.1121
14572W        W30706   7.236   7.163  14.517 -0.0286  0.2078 -0.2883
14573W        W30707   8.344   7.415  10.263  0.0613 -0.0811 -0.1909
14574W        W30708   0.769  15.899   0.533  0.0779  0.1261  0.2208
14575W        W30709   0.453   8.669  14.875  0.0529 -0.1904 -0.0419
14576W        W30710  14.376   5.828  12.919  0.1001 -0.0723 -0.1180
14577W        W30711   8.251  11.673   2.993 -0.1102 -0.1512 -0.0063
14578W        W30712   0.861  16.193  14.763  0.0345 -0.1859 -0.2328
14579W        W30713  19.006  17.662   2.895  0.1754 -0.0544 -0.1708
14580W        W30714   2.653   6.275   3.326  0.1097  0.1402 -0.2589
14581W        W30715   2.975   4.585  12.708 -0.0861  0.3123 -0.0725
14582W        W30716   1.858   7.505   1.516 -0.1257  0.1194  0.1418
14583W        W30717   6.797   4.502  13.838 -0.1157  0.0826 -0.3106
14584W        W30718  12.458   0.391   1.372 -0.4135  0.1145  0.1231
14585W        W30719   1.368   6.421   3.645  0.0174  0.0312 -0.3227
14586W        W30720  17.060  19.304  15.000  0.0056 -0.1063  0.2713
14587W        W30721  11.855   7.137  11.813 -0.0118  0.1923  0.0402
14588W        W30722   6.837   6.969  13.390 -0.0033  0.3553 -0.0812
14589W        W30723  18.221  11.189  14.709  0.0823 -0.3422 -0.0734
14590W        W30724  10.002  12.736  10.956  0.0124 -0.1136 -0.0450
14591W        W30725  13.523   5.335  12.393  0.1616  0.0671  0.2125
14592W        W30726  12.543  15.629   3.510  0.0562 -0.2125  0.1798
14593W        W30727   8.178  17.766   0.799  0.2189 -0.1500  0.2111
14594W        W30728   2.371   0.674   4.429  0.1900 -0.1840  0.0022
14595W        W30729   7.767   4.539   4.684  0.0879 -0.1519 -0.2245
14596W        W30730   0.941  12.658   5.677 -0.0654  0.1317  0.4824
14597W        W30731   6.464  16.296  10.551  0.1791 -0.2954  0.0514
14598W        W30732   7.964   2.845  10.738  0.3938  0.1793 -0.3382
14599W        W30733   5.796  13.134  12.363 -0.0018 -0.2643 -0.1812
14600W        W30734   6.480   4.880   4.817  0.2166  0.0129 -0.0460
14601W        W30735   3.035   7.593  11.122  0.1618 -0.1090 -0.0147
14602W        W30736   7.756  17.682   3.908 -0.2819  0.0246  0.1769
14603W        W30737  18.942  18.303  14.551 -0.2146 -0.0159 -0.0771
14604W        W30738   5.464   9.880  13.764 -0.1102  0.1253 -0.1465
14605W        W30739  13.647   2.833  14.115 -0.0858  0.1066 -0.1143
14606W        W30740  10.668   1.771  11.179  0.0364  0.5024 -0.3274
14607W        W30741   5.994  12.426   4.471  0.1161  0.0573  0.1807
14608W        W30742   1.668   5.216   2.411 -0.1480 -0.1002 -0.0147
14609W        W30743  17.534   7.908   3.179 -0.0660  0.1991  0.1212
14610W        W30744   4.001  14.917  10.428  0.2436 -0.2237  0.2758
14611W        W30745  14.320   2.632  12.517  0.0729  0.2377 -0.0078
14612W        W30746   3.767   9.351  13.329 -0.0583 -0.2585  0.1089
14613W        W30747  15.223  16.704   5.353  0.3157 -0.0628  0.1095
14614W        W30748   5.230   1.949  12.299  0.2220  0.0479 -0.2474
14615W        W30749  13.904  18.978   2.260 -0.2291  0.1094 -0.1636
14616W        W30750  18.608   1.640   0.851 -0.0991  0.2348  0.0806
14617W        W30751   5.581   1.705   3.093 -0.1124  0.3622 -0.1549
14618W        W30752  17.865  15.404  14.796  0.2069 -0.1236  0.3303
14619W        W30753   0.393   6.784  13.423 -0.0538  0.5502 -0.2104
14620W        W30754   1.795  14.834   0.180 -0.1769 -0.2385 -0.1777
14621W        W30755   8.020  17.426  14.771 -0.1510  0.1025 -0.0742
14622W        W30756  15.769  17.520  12.779  0.0805 -0.0928 -0.2293
14623W        W30757   6.642  10.572   2.858  0.0867  0.1939  0.0499
14624W        W30758  19.097  15.659  14.842  0.1879 -0.2761 -0.1537
14625W        W30759   5.154   0.521  12.074  0.1303  0.1263 -0.3263
14626W        W30760  16.235  15.882  11.152  0.0269 -0.1769 -0.1097
14627W        W30761  12.057   3.517  13.678 -0.1205  0.1576 -0.2824
14628W        W30762  12.398   2.778   5.029 -0.0158 -0.3432 -0.3093
14629W        W30763   9.351  13.506   0.024 -0.0984  0.0410  0.0956
14630W        W30764   9.727   3.673   3.445  0.1779  0.5676 -0.0414
14631W        W30765   1.229  16.059  12.171 -0.0850  0.0778  0.0073
14632W        W30766   0.225   4.712  12.985  0.1164 -0.2339  0.0539
14633W        W30767  14.355   6.457  11.673 -0.0918  0.1745 -0.0639
14634W        W30768  11.835   5.611   1.141 -0.0829 -0.0976 -0.0016
14635W        W30769   3.518   4.672   2.996  0.1325 -0.3857 -0.2661
14636W        W30770   4.681   2.833   0.219  0.0200 -0.0018 -0.1278
14637W        W30771   1.270   4.969   1.265 -0.1095 -0.0972 -0.1119
14638W        W30772  10.579   8.365   5.570  0.3685 -0.0547 -0.2740
14639W        W30773   5.897  12.643   4.056  0.0469  0.1185  0.1613
14640W        W30774  11.427  15.882   3.063  0.3198 -0.1387 -0.0643
14641W        W30775   5.816   0.030  10.601  0.0660 -0.0150  0.1382
14642W        W30776  16.243  14.412   4.383 -0.2811 -0.5103  0.2794
14643W        W30777  11.423   8.907   2.051  0.2289  0.1564 -0.0567
14644W        W30778   2.301  14.898  10.674  0.2058  0.1826  0.2709
14645W        W30779   4.672   2.374   0.059 -0.2506  0.1294  0.2657
14646W        W30780  17.805   6.992   1.196 -0.3715 -0.5242  0.1544
14647W        W30781   4.315  15.680   5.618  0.0269  0.1665 -0.2274
14648W        W30782  10.808   3.236   4.715 -0.2933  0.1284 -0.1477
14649W        W30783   7.826   0.132   2.512 -0.0205 -0.1571 -0.1783
14650W        W30784   1.364   9.538   2.603 -0.0726 -0.0281  0.0308
14651W        W30785   6.753  11.869  11.355 -0.1633  0.0842 -0.1015
14652W        W30786   9.968  18.400   9.603 -0.1035 -0.4561 -0.0275
14653W        W30787   9.295  18.186   4.068  0.0187  0.2151 -0.0816
14654W        W30788  14.961  17.266   0.903  0.0989  0.1828 -0.4149
14655W        W30789  14.046  19.166  14.064 -0.3569 -0.2107 -0.0850
14656W        W30790   2.800   9.528   2.287  0.0474 -0.3195  0.0178
14657W        W30791   9.601   4.113  14.762 -0.1440 -0.2309  0.0139
14658W        W30792   4.153  13.718   3.079 -0.2229  0.1011 -0.0508
14659W        W30793   3.493   1.327  11.008  0.1144  0.3819  0.0856
14660W        W30794   2.075  14.505   0.441  0.0009 -0.1122 -0.0326
14661W        W30795   4.432  11.967   0.426  0.0252 -0.2590  0.0559
14662W        W30796   5.906   8.765   4.867  0.3215  0.1767 -0.0585
14663W        W30797   4.867  11.749   5.528 -0.2438  0.0542 -0.0830
14664W        W30798   2.831  11.147   0.279  0.2258 -0.1975 -0.4107
14665W        W30799  13.270  16.255   3.677 -0.0648  0.2046 -0.1369
14666W        W30800   2.942  11.265   1.022 -0.2070 -0.0411  0.2391
14667W        W30801   5.921   5.902   4.182  0.0716 -0.2464  0.3454
14668W        W30802  16.116  15.560  12.406  0.0527  0.0147 -0.2101
14669W        W30803   5.980   5.680  14.750 -0.1252  0.1591  0.2129
14670W        W30804   8.931   1.373  11.609  0.0477 -0.1865 -0.1675
14671W        W30805  10.339  10.158   4.852 -0.0559 -0.3535  0.0902
14672W        W30806  12.810   8.663   3.262 -0.1407 -0.2998 -0.0372
14673W        W30807   2.491  10.714   4.736  0.1754 -0.0610 -0.1344
14674W        W30808   3.176   8.423  13.392  0.1554 -0.0806  0.0662
14675W        W30809   2.281   1.496  14.287  0.0950 -0.2894  0.2010
14676W        W30810   8.124  19.125  11.367 -0.0648 -0.0310 -0.0605
14677W        W30811   2.759  17.215   1.120 -0.3567  0.1153 -0.1728
14678W        W30812  15.801  12.053   4.784  0.1260  0.2336  0.1460
14679W        W30813   9.368   6.024   5.115 -0.2307  0.0562 -0.1472
14680W        W30814   3.442   1.789   0.314  0.0911  0.3364  0.0633
14681W        W30815   0.784   9.457   0.015 -0.1277  0.1724  0.1185
14682W        W30816  15.015   3.351  13.802  0.1025  0.0774 -0.3298
14683W        W30817   6.429   0.664   2.100 -0.0347  0.0771 -0.2136
14684W        W30818  14.961   5.850  10.922  0.0070  0.1800  0.2927
14685W        W30819  14.024   0.767   1.973  0.1745  0.1642 -0.1778
14686W        W30820   7.041  16.776  11.112 -0.1088  0.1344  0.2480
14687W        W30821   0.800  19.187   2.696  0.1745 -0.1374  0.3052
14688W        W30822  13.282   1.891   5.740 -0.0006  0.0754  0.1743
14689W        W30823  12.020  10.254   2.276  0.1959 -0.1002  0.3670
14690W        W30824   6.627  11.183  14.322  0.5321  0.5954 -0.3485
14691W        W30825  11.886   6.040  12.669 -0.1011  0.1079 -0.2500
14692W        W30826   4.351  12.209   3.958 -0.2192 -0.0932 -0.3493
14693W        W30827  14.865  16.268   1.769 -0.0867 -0.1318  0.1147
14694W        W30828   1.276  18.496   3.130 -0.0616  0.1401 -0.1686
14695W        W30829  18.038  10.147   2.117 -0.0901 -0.0492 -0.1681
14696W        W30830   9.604  15.322   2.547 -0.0024  0.0617 -0.0929
14697W        W30831  12.989  17.261  13.990  0.0079 -0.0502  0.0361
14698W        W30832  17.361   5.289   1.577 -0.1499 -0.3807  0.1644
14699W        W30833  13.198   1.938  12.185  0.1869 -0.2272 -0.2030
14700W        W30834   7.767  11.823  10.972 -0.0480  0.2141 -0.1766
14701W        W30835   0.491   1.627  14.101 -0.1269 -0.0461 -0.1297
14702W        W30836  14.957   2.843  14.303  0.0277  0.1664  0.0830
14703W        W30837  18.643  19.142  14.380  0.1601 -0.1434 -0.1266
14704W        W30838  11.138  15.929  14.294 -0.0747 -0.1836 -0.0280
14705W        W30839   1.611  12.039  14.096 -0.3062 -0.0442  0.1896
14706W        W30840   5.158   9.202   2.935 -0.2742 -0.1206  0.2121
14707W        W30841  15.049  10.791   1.337 -0.3781 -0.1335 -0.1552
14708W        W30842   2.887  13.207   3.288 -0.1683 -0.1585 -0.3314
14709W        W30843   6.809   0.826   5.581 -0.1529  0.0878 -0.0026
14710W        W30844   5.094  13.645   2.254 -0.4791  0.2083  0.5121
14711W        W30845  15.767  15.350   4.941 -0.1243 -0.0859 -0.0726
14712W        W30846   4.000  17.148   3.169  0.0559  0.2116 -0.2210
14713W        W30847   5.626   6.838   2.019 -0.2754 -0.1957 -0.3336
14714W        W30848   9.123  12.514  11.054  0.3917 -0.1899 -0.0337
14715W        W30849  13.165  14.954   1.913 -0.1104 -0.2154  0.0705
14716W        W30850   0.770  11.036   3.816 -0.0274  0.2071 -0.0458
14717W        W30851   3.491   9.420  12.300 -0.2262 -0.0670  0.1229
14718W        W30852  13.111   1.261   3.425  0.0915  0.1099 -0.6020
14719W        W30853   1.298  19.128   2.632  0.0472 -0.7707 -0.1489
14720W        W30854   0.961  18.441   2.747  0.2474 -0.0452  0.2027
14721W        W30855  11.250   1.309   4.863 -0.1806 -0.1254  0.0002
14722W        W30856  14.398   8.169  11.876 -0.0366 -0.1201  0.0662
14723W        W30857  18.035  14.066  13.702  0.0429  0.0103  0.0115
14724W        W30858  18.745   9.824   5.080 -0.3183  0.0508  0.3980
14725W        W30859   1.205   7.542   2.082 -0.2540 -0.0918 -0.0931
14726W        W30860   6.982  11.150   0.658  0.1949  0.1725 -0.0500
14727W        W30861  19.108   4.615  12.722 -0.2452  0.3572 -0.0292
14728W        W30862   3.075   6.903  13.790 -0.0761  0.4023  0.1021
14729W        W30863  14.805   2.376   2.435 -0.0780  0.1936  0.3059
14730W        W30864  14.075   8.035   1.114 -0.0054  0.0320 -0.3237
14731W        W30865  10.780   3.733   1.582 -0.0950  0.1502 -0.0935
14732W        W30866   3.217  14.302  11.952 -0.0791  0.2012 -0.0723
14733W        W30867   4.620   3.839  13.244 -0.0149  0.0715  0.2136
14734W        W30868  15.239   3.722  12.437 -0.3110 -0.2923  0.0010
14735W        W30869   7.782   7.102   0.879 -0.3415 -0.0990  0.1973
14736W        W30870   9.673   9.349  14.010  0.0427  0.1747 -0.1630
14737W        W30871   3.961   0.734   2.798 -0.2619 -0.0609 -0.3409
14738W        W30872   3.185   2.344   2.556  0.1982  0.3244 -0.1060
14739W        W30873   2.635  15.041   2.963 -0.2000 -0.1434 -0.1028
14740W        W30874   3.172   9.712   5.132  0.3751  0.2094  0.2931
14741W        W30875   7.505   8.580   0.200 -0.0059  0.0257 -0.0002
14742W        W30876   7.373  15.971   3.093  0.1242 -0.0964  0.0747
14743W        W30877  15.693   0.880   2.217  0.3789  0.1136  0.1482
14744W        W30878   3.699  17.700   4.559 -0.0120 -0.0444 -0.1342
14745W        W30879  10.637  12.192  12.443  0.0397  0.0315  0.0898
14746W        W30880   3.250   0.378  13.588  0.0756 -0.0535 -0.2165
14747W        W30881  12.977  12.262   2.241  0.4482 -0.0449 -0.2967
14748W        W30882   7.194   6.706   2.062  0.0048  0.0611  0.0708
14749W        W30883  13.287   9.578   1.051  0.0117 -0.0085  0.0853
14750W        W30884   2.590   7.817   2.929  0.2647 -0.3066 -0.1418
14751W        W30885   5.863  18.429   0.835  0.0109  0.1078 -0.1449
14752W        W30886  19.259   8.604   2.672  0.0260 -0.2587  0.0990
14753W        W30887  10.496   2.176   3.403 -0.0240  0.2504  0.0659
14754W        W30888   3.021  15.085   0.307  0.0957  0.0211 -0.1667
14755W        W30889   9.260   6.502  10.691  0.0923  0.0837  0.1534
14756W        W30890   8.578   2.926   2.278 -0.0611  0.2181  0.3130
14757W        W30891   9.951  11.631  14.031 -0.0292 -0.0575  0.1235
14758W        W30892   5.542  13.031   3.967 -0.1202 -0.2380 -0.0233
14759W        W30893  14.932   5.774   1.261  0.0905 -0.0974 -0.0997
14760W        W30894  17.641  10.721  14.437  0.0227 -0.1686  0.0159
14761W        W30895   0.788  10.295   4.593 -0.2584 -0.1565  0.2552
14762W        W30896  12.423  18.209   1.515 -0.0502  0.0113 -0.3585
14763W        W30897   4.717  16.329   3.203  0.0791 -0.0433  0.3030
14764W        W30898   7.536   5.395   4.187 -0.1999  0.0189  0.3410
14765W        W30899   2.231  15.926   4.580  0.0183  0.0073  0.2743
14766W        W30900  11.912   0.067  13.088  0.1417 -0.1883  0.1128
14767W        W30901   5.072   3.851  13.519 -0.0583 -0.0488  0.0564
14768W        W30902  16.059   1.377   2.077 -0.0244  0.2826  0.0207
14769W        W30903  16.667   4.499   3.108 -0.4102  0.1314 -0.1811
14770W        W30904  10.872  18.537   5.691  0.1523  0.2502 -0.1710
14771W        W30905   8.649   4.220  14.925 -0.1787  0.0245 -0.1133
14772W        W30906  10.102  12.811   4.077  0.0223  0.0015  0.2724
14773W        W30907  11.727   5.174  13.679  0.0807  0.3021  0.0975
14774W        W30908   4.175  14.173   0.058 -0.3470 -0.0125 -0.0698
14775W        W30909   4.194   7.891  10.094 -0.0919 -0.5978  0.2389
14776W        W30910   2.960  17.519   3.313 -0.0544  0.0082  0.1754
14777W        W30911  12.425   4.690   3.829 -0.2222  0.0957  0.2110
14778W        W30912   1.401  11.469  14.776  0.2827 -0.0857  0.1838
14779W        W30913  10.020   5.277   5.928  0.3303  0.0658 -0.0715
14780W        W30914  15.306   3.490   4.482  0.2306 -0.3009  0.1990
14781W        W30915   7.690  10.871   4.392  0.1758 -0.0167  0.1082
14782W        W30916   9.589   1.969  14.078  0.0069  0.0235  0.0951
14783W        W30917   5.226   9.178   1.963  0.4371 -0.0681 -0.0882
14784W        W30918  16.555   1.346  13.956  0.0982  0.2362  0.3852
14785W        W30919   7.039  17.518  12.066  0.0675 -0.4301 -0.3468
14786W        W30920   6.959  12.033   1.135 -0.0035 -0.4146  0.1955
14787W        W30921   7.823  14.235   1.452  0.0520 -0.0494  0.0189
14788W        W30922  16.918   3.084   1.671 -0.0046 -0.0449 -0.3414
14789W        W30923  14.378  19.234  12.694 -0.0197 -0.0985  0.2592
14790W        W30924  12.988   4.793   5.275  0.6016 -0.2941  0.1195
14791W        W30925   6.604   5.044   2.364 -0.0340  0.0017 -0.3996
14792W        W30926   6.637  17.841   4.877  0.3607 -0.1884  0.0897
14793W        W30927  17.683   8.998  13.143  0.1767 -0.0859 -0.0682
14794W        W30928   4.759  18.239  12.895  0.2744 -0.2813 -0.1400
14795W        W30929  18.099  10.389  11.536  0.0076 -0.1137 -0.2665
14796W        W30930  14.779  10.070  12.616  0.0137  0.0771 -0.1415
14797W        W30931  16.775   6.045  10.838  0.0381  0.2479 -0.0597
14798W        W30932   1.261   4.627  11.102  0.0179 -0.0574  0.2710
14799W        W30933   7.860  17.877   0.411 -0.0523  0.0340  0.1091
14800W        W30934  13.069  13.007  13.943  0.1509 -0.4342  0.0932
14801W        W30935  13.773   0.127   4.260 -0.0429 -0.1353  0.0898
14802W        W30936   6.216   3.883  12.732  0.2952  0.4339 -0.2342
14803W        W30937  14.902  11.024  12.765  0.4405  0.1229 -0.1698
14804W        W30938   8.393  15.560  11.109 -0.2982 -0.3404 -0.1056
14805W        W30939  17.057   4.304  14.193 -0.2015  0.0663  0.0402
14806W        W30940   1.635   4.817   4.770 -0.0991  0.1263 -0.1122
14807W        W30941   5.874   0.708  13.409  0.1057  0.0809  0.2114
14808W        W30942  12.482   8.889   4.326  0.0383 -0.0894 -0.0336
14809W        W30943   3.012  10.129   4.832  0.1841 -0.0840 -0.3022
14810W        W30944  15.004   2.041   0.026  0.0644  0.1014  0.0735
14811W        W30945  18.086  13.404  14.199 -0.0001  0.1773  0.1025
14812W        W30946   0.223  18.285  12.275  0.3130  0.2496  0.0488
14813W        W30947  11.944  14.537  14.526  0.1762  0.1731 -0.0597
14814W        W30948  12.603  16.024  13.522 -0.3883  0.1455  0.1353
14815W        W30949   8.243  19.206   1.256 -0.3471  0.1468 -0.1663
14816W        W30950  16.261   6.850  10.615 -0.0237 -0.4140  0.0471
14817W        W30951  10.121   8.020   0.415 -0.1413 -0.0359 -0.0942
14818W        W30952  17.373  12.414  13.853 -0.1424 -0.0086  0.1258
14819W        W30953  14.236   5.524  12.380  0.0471  0.1936 -0.2955
14820W        W30954  11.485  14.614   2.756 -0.0945 -0.1088  0.2532
14821W        W30955   8.934   9.021  11.757  0.0926  0.3287  0.1233
14822W        W30956  17.936   3.153   3.445 -0.0301  0.2156  0.4579
14823W        W30957   9.416  18.824   1.906 -0.0036  0.0516  0.3107
14824W        W30958   3.712   9.327  12.760 -0.0667 -0.0775 -0.0994
14825W        W30959   9.116   4.825   4.143  0.3716  0.2793  0.1114
14826W        W30960  17.036   4.283  12.426  0.2848 -0.4278  0.0185
14827W        W30961  10.404   5.198   4.554  0.2241 -0.1966 -0.2160
14828W        W30962  11.335   7.616  10.680 -0.0833 -0.0044 -0.0160
14829W        W30963   5.273  10.808   2.277 -0.0052 -0.3068  0.2424
14830W        W30964   6.597  15.733   1.301 -0.1004 -0.1917 -0.0493
14831W        W30965   0.628  13.441  10.215 -0.0706 -0.2928  0.3349
14832W        W30966  10.000   4.294   4.679  0.0454 -0.1513 -0.2439
14833W        W30967   9.400  19.164  12.103 -0.0062  0.2383 -0.0190
14834W        W30968   2.199   0.736  12.304  0.1596 -0.4667 -0.1772
14835W        W30969   4.681   7.284   4.670 -0.2167 -0.4012 -0.3359
14836W        W30970  16.327   0.654  14.297  0.0074  0.1492 -0.4035
14837W        W30971  14.386  17.786   1.910 -0.0755 -0.1388 -0.2825
14838W        W30972  13.014  19.083  12.289 -0.6230 -0.1166  0.2089
14839W        W30973   5.592   2.133   4.873  0.2389  0.0305  0.1212
14840W        W30974  18.781  13.856  11.508  0.0797  0.0414 -0.0401
14841W        W30975  16.877   6.649   4.517  0.2613  0.1057  0.1696
14842W        W30976   5.117  14.564   2.574 -0.1981 -0.3324 -0.0277
14843W        W30977   9.248   1.756   3.762  0.2958 -0.0614 -0.2876
14844W        W30978  14.113   4.936   4.729  0.0407  0.2591 -0.0249
14845W        W30979   5.003  10.082  14.615  0.2075 -0.0801 -0.1093
14846W        W30980  11.670   7.879  11.437  0.3506  0.0707  0.1159
14847W        W30981   2.147   6.844  14.034  0.3006 -0.2420 -0.1227
14848W        W30982  11.902   3.681  11.824 -0.0937 -0.1599 -0.0191
14849W        W30983  11.930  11.616   1.796 -0.1662 -0.1572  0.1099
14850W        W30984   0.629  14.711  12.662 -0.2601  0.1247 -0.0813
14851W        W30985  17.731  14.677   0.539 -0.1551  0.1792  0.1854
14852W        W30986  15.926   5.621   0.683  0.2367  0.0535 -0.1254
14853W        W30987  17.592   0.356   2.442 -0.3096  0.1648 -0.1308
14854W        W30988   0.111  14.660   3.088 -0.0752  0.1733 -0.1563
14855W        W30989   0.996  13.407  10.565 -0.1604  0.1599 -0.1199
14856W        W30990   9.025   6.306  13.593  0.2208 -0.0969  0.0856
14857W        W30991   4.838   4.513  12.766  0.2275 -0.0450  0.1689
14858W        W30992  18.955  18.958   1.887  0.0156  0.5316  0.0189
14859W        W30993   5.110   1.379   1.716 -0.0524 -0.0007  0.1770
14860W        W30994   8.571  17.963   3.237 -0.1811 -0.2024 -0.0559
14861W        W30995   1.522  10.100  14.787  0.3255  0.1755 -0.2636
14862W        W30996  14.041  15.176  10.091  0.1047  0.1438 -0.2913
14863W        W30997  11.767  17.220   4.558 -0.0547 -0.1474  0.0396
14864W        W30998   6.673   4.276  14.370  0.1132 -0.0051  0.2742
14865W        W30999  12.864  16.536   5.324  0.2566  0.2529 -0.0724
14866W        W31000  11.034   2.035   0.952 -0.1888 -0.1950  0.1493
14867W        W31001  10.289   3.826   0.947  0.1537 -0.0591  0.4379
14868W        W31002  16.411  18.609  13.185 -0.0978  0.0313  0.4416
14869W        W31003   9.489  15.628   0.076 -0.1925  0.2102 -0.0405
14870W        W31004  15.674   5.410   1.509  0.0277  0.0043  0.1782
14871W        W31005  16.388   7.228  13.007  0.1047  0.0279 -0.0166
14872W        W31006  17.143  12.184   3.822 -0.0473  0.3082 -0.1164
14873W        W31007  16.874   4.052  10.404  0.0760 -0.4009  0.0586
14874W        W31008   0.881   0.322  11.020  0.1414  0.0104  0.0258
14875W        W31009  18.684  13.734   5.175 -0.0755  0.0127  0.0918
14876W        W31010   3.656   8.841  12.868  0.1154 -0.0827  0.0917
14877W        W31011   7.870   0.109   1.520 -0.1681 -0.1572 -0.1633
14878W        W31012   5.878  13.034   1.861  0.2236  0.5181 -0.1664
14879W        W31013   8.953  17.350   5.328 -0.1888 -0.0610 -0.1996
14880W        W31014  17.842   2.566   0.117 -0.0161  0.1643  0.4128
14881W        W31015   3.394   0.729  10.905 -0.0539  0.0041  0.3292
14882W        W31016  12.657  12.750   0.201  0.1709 -0.1526 -0.4676
14883W        W31017   0.951  13.990   2.506  0.1283 -0.1193 -0.1680
14884W        W31018   6.968  14.043   3.398  0.1769  0.2460 -0.3475
14885W        W31019   6.824  10.609   3.306 -0.1168  0.3388 -0.3426
14886W        W31020  17.286  13.534   2.817 -0.0415  0.1208 -0.0960
14887W        W31021  16.612   5.338  11.794  0.1405  0.1917  0.2477
14888W        W31022  14.253   8.384  13.777  0.2584  0.1302  0.0008
14889W        W31023   9.920  18.488   5.083 -0.0767 -0.3850  0.0255
14890W        W31024   1.000  17.293   1.372 -0.1539 -0.2371 -0.0622
14891W        W31025   4.042   7.757  12.610 -0.3037 -0.1874  0.1502
14892W        W31026   4.882  16.652  12.783 -0.1156  0.2162  0.0673
14893W        W31027  17.042   3.374   9.202 -0.1910  0.0507 -0.0717
14894W        W31028  16.110   1.399  10.046  0.2877  0.1897  0.2281
14895W        W31029  15.266  11.733   2.856  0.1606  0.1166 -0.0920
14896W        W31030   2.414   7.271  14.849 -0.0625 -0.2537 -0.0634
14897W        W31031   1.802  17.610  13.645 -0.1209 -0.3183  0.1464
14898W        W31032   4.774   1.534  14.805  0.1567  0.1940 -0.2236
14899W        W31033  12.577  13.073   3.420  0.0253  0.0061  0.2257
14900W        W31034   1.622  18.681   0.593  0.0990 -0.2277 -0.1439
14901W        W31035  12.750  18.693   4.339  0.0943 -0.3768  0.1399
14902W        W31036   4.144   4.251  14.493 -0.1244 -0.2028 -0.0510
14903W        W31037  10.548  13.470  14.657  0.3661  0.1416 -0.0544
14904W        W31038   0.512  15.198  14.915  0.0386  0.2562  0.1218
14905W        W31039  18.713  16.873  11.759  0.3019  0.0925 -0.1034
14906W        W31040  18.672  17.090  13.637  0.1257  0.1374  0.1425
14907W        W31041  11.636  14.285   3.695  0.2678  0.0034  0.0315
14908W        W31042   7.161  18.720   0.685 -0.2221 -0.0904  0.0090
14909W        W31043   7.634  10.389   3.893 -0.1825  0.1059  0.1139
14910W        W31044   6.294   3.352  10.223 -0.0177  0.1938  0.3984
14911W        W31045  18.281  13.897   0.097  0.2165  0.2370  0.1359
14912W        W31046   1.062  10.101   1.095  0.1941 -0.0169 -0.0016
14913W        W31047   4.937  13.946  13.235  0.2045 -0.0675  0.1280
14914W        W31048  12.939   1.898  13.706  0.1087  0.0547  0.1147
14915W        W31049   2.147  17.258  10.724  0.2267 -0.0716  0.0834
14916W        W31050  17.572  13.138   0.764 -0.2420  0.0775 -0.3872
14917W        W31051  19.072  17.356  13.899 -0.3382 -0.2260  0.3039
14918W        W31052  16.343  14.489   3.481 -0.2611 -0.0245  0.0957
14919W        W31053  13.785   7.898  10.698 -0.0403 -0.0572 -0.0641
14920W        W31054  17.744  13.789  11.381 -0.0844 -0.0881 -0.0113
14921W        W31055  14.486   7.752   0.745  0.0282  0.1339  0.0150
14922W        W31056  16.803   9.051  13.038  0.0086  0.2929  0.2103
14923W        W31057  14.038  12.615   0.029  0.3378 -0.4108 -0.2074
14924W        W31058   7.818  13.626  13.852  0.0072  0.1237 -0.0461
14925W        W31059   9.493   2.902   1.358 -0.1193  0.2596 -0.0049
14926W        W31060  14.492   1.280  15.004  0.1585 -0.0028  0.1684
14927W        W31061  11.074   4.060  14.229 -0.0236 -0.0711  0.3058
14928W        W31062   9.438  17.074   0.256 -0.0784 -0.2570  0.0678
14929W        W31063  19.172  12.422   4.193  0.2041 -0.1837 -0.0177
14930W        W31064  19.016  11.709  11.409 -0.2919 -0.0888  0.3486
14931W        W31065   2.409  13.464   1.445  0.0187 -0.1643  0.0535
14932W        W31066  14.311  13.263   0.672  0.1448 -0.0701 -0.0410
14933W        W31067   3.659   3.884   0.740 -0.2647  0.4861 -0.0538
14934W        W31068   5.497   6.596   3.343 -0.0815 -0.0761  0.0405
14935W        W31069  14.484  11.008  13.899 -0.0488 -0.1853  0.1537
14936W        W31070   7.313  13.855   4.520  0.2087  0.1436  0.0007
14937W        W31071   7.328  13.773   3.207 -0.1303 -0.2027  0.0469
14938W        W31072   7.582   1.230   0.019 -0.0724 -0.1284  0.6355
14939W        W31073  18.576  19.025  11.355  0.4046  0.0072 -0.0321
14940W        W31074  17.155   6.971  12.297 -0.0242 -0.1119 -0.1062
14941W        W31075  18.859  19.229   0.542 -0.1829  0.0401 -0.1455
14942W        W31076   3.267   7.353   4.103 -0.2479 -0.2257  0.3359
14943W        W31077   1.802  14.090   1.236 -0.0729 -0.0376 -0.0369
14944W        W31078  17.639   5.504   4.069  0.1684 -0.0402  0.2618
14945W        W31079   0.032  11.102  12.173 -0.0308  0.0953  0.4410
14946W        W31080  11.464   6.371  11.072 -0.4057  0.2107  0.2684
14947W        W31081  19.151  13.009   1.152  0.0606 -0.0656  0.1756
14948W        W31082  10.369   3.295   2.836  0.3528 -0.0735  0.1533
14949W        W31083   5.205  10.615   4.274 -0.2583  0.0097  0.1934
14950W        W31084   0.960  15.836  10.664 -0.0261  0.0107 -0.0891
14951W        W31085   3.915   4.324   2.032  0.1273  0.3026 -0.0526
14952W        W31086  12.085   1.436  14.826  0.0688 -0.2774 -0.0203
14953W        W31087  18.554  11.362   1.460 -0.0082  0.0090  0.2773
14954W        W31088  18.082   5.859  11.203 -0.2013  0.3918  0.0538
14955W        W31089  10.473   6.272   1.947 -0.1059 -0.0757 -0.0266
14956W        W31090  16.016  10.496   1.109 -0.0835 -0.0217  0.1269
14957W        W31091  13.777  14.994  11.433 -0.2247  0.0426  0.1271
14958W        W31092   5.571   3.171  11.320  0.1702  0.0269  0.0944
14959W        W31093  17.692  14.981   1.059  0.0914  0.0423 -0.1443
14960W        W31094  14.171  16.537  13.958 -0.0705 -0.0113  0.1369
14961W        W31095  19.237   4.183  10.146  0.0037 -0.0924 -0.2821
14962W        W31096   0.331   6.317  13.859 -0.1221  0.4907  0.1310
14963W        W31097   8.003   9.824  11.359  0.0867 -0.2522  0.2217
14964W        W31098   5.602   9.631  13.325 -0.1021  0.4680  0.3824
14965W        W31099  11.412  11.038  10.275 -0.2243  0.0409 -0.1369
14966W        W31100  16.795  16.226  14.312  0.0430  0.2968  0.2789
14967W        W31101   2.169   0.235  13.571 -0.1933 -0.0545 -0.0690
14968W        W31102   4.892  17.557  13.060  0.0952  0.2473 -0.0603
14969W        W31103   7.917  15.784  12.316  0.0952 -0.0570 -0.0551
14970W        W31104  17.387  19.232   4.341  0.3464 -0.1299 -0.0805
14971W        W31105   0.438   8.753   3.755 -0.0479  0.0160 -0.3125
14972W        W31106   7.841   0.449  12.341 -0.2291  0.0254  0.0239
14973W        W31107  19.205  10.827   1.072 -0.0757  0.1483  0.0780
14974W        W31108  16.253  18.593  14.945 -0.1407  0.1696  0.0639
14975W        W31109   1.263  18.901   9.835 -0.2382 -0.0972 -0.3206
14976W        W31110   7.268  13.234   3.987  0.1864 -0.2783  0.0460
14977W        W31111  11.845   8.095   1.688  0.1618 -0.0963  0.1966
14978W        W31112  15.982   5.727   3.481  0.2294  0.2707 -0.3955
14979W        W31113  15.906  10.821  10.876  0.1079 -0.1274  0.2083
14980W        W31114  17.560  18.501  11.890 -0.1616  0.0910  0.3440
14981W        W31115   5.094  10.412   2.663 -0.2073 -0.0758 -0.1506
14982W        W31116  12.545  16.690  11.344 -0.1346  0.4580  0.0048
14983W        W31117  13.616   6.251  13.897 -0.1089  0.3801  0.3127
14984W        W31118   8.659  13.328   2.405  0.2077 -0.2627  0.1076
14985W        W31119   6.973  19.060   2.364  0.2058  0.2889 -0.3667
14986W        W31120   8.208   4.553  13.652  0.0183  0.0948  0.1178
14987W        W31121   0.917   4.565   0.454  0.0509  0.1322  0.0817
14988W        W31122  10.398  13.627  10.281 -0.0511 -0.4859  0.0676
14989W        W31123   2.869  13.542   4.003  0.0179  0.0764 -0.3120
14990W        W31124   2.292   3.522  14.162 -0.1252 -0.0267  0.1786
14991W        W31125  10.196  12.811   1.868 -0.1761 -0.0199 -0.1120
14992W        W31126  19.247  13.531  13.649  0.1274 -0.2575  0.1522
14993W        W31127  11.577  10.697  13.020  0.1165  0.2006  0.0406
14994W        W31128  16.222   5.724  12.054  0.1871  0.1375  0.0685
14995W        W31129  15.591   8.177   0.036  0.1782 -0.2305 -0.0320
14996W        W31130   0.620  11.266   4.791  0.1468  0.0355 -0.0824
14997W        W31131  12.679  14.574   1.786  0.2469  0.3052 -0.1456
14998W        W31132   9.204   8.746   1.132  0.0326 -0.1613  0.0878
14999W        W31133   1.637   4.613  12.257 -0.0498  0.1438  0.0078
15000W        W31134  14.451  10.949   5.159  0.1082 -0.1496  0.3695
15001W        W31135   4.652  17.876  10.853  0.0882 -0.1618  0.5559
15002W        W31136  14.280  10.115   2.916 -0.1109  0.2070 -0.1077
15003W        W31137   2.877  13.850   2.511 -0.2327 -0.0249 -0.0658
15004W        W31138   3.283   6.019  11.503 -0.0837 -0.0281  0.0142
15005W        W31139  12.607  16.163   2.372  0.2566 -0.0179  0.0706
15006W        W31140   0.904  17.411   3.394  0.0118 -0.1315  0.3955
15007W        W31141   8.714   2.500   4.045  0.1208  0.0321 -0.2115
15008W        W31142   0.111   3.744   2.077  0.0974  0.2922 -0.2969
15009W        W31143  17.100   7.096   4.888 -0.1526 -0.0018  0.0583
15010W        W31144  12.850   3.724  14.075 -0.4179 -0.0205 -0.1631
15011W        W31145  10.880  10.294   0.609  0.2361  0.1335  0.1009
15012W        W31146  11.040   6.543   3.118  0.1512  0.2984  0.0448
15013W        W31147   4.996  14.091   3.517  0.3443 -0.0334 -0.0061
15014W        W31148   4.983  11.207  11.620 -0.3617  0.0141  0.0209
15015W        W31149  17.490  16.667  12.225 -0.2167  0.2081  0.2275
15016W        W31150  15.532   2.722   2.703 -0.4942  0.4451 -0.1387
15017W        W31151  17.850  13.717   1.531  0.0153  0.1781 -0.0991
15018W        W31152  11.090  15.283  12.361 -0.0516  0.3494 -0.3578
15019W        W31153  15.409  14.636   3.341  0.0843 -0.3686  0.1145
15020W        W31154   7.236  16.832  13.669 -0.2170 -0.1435 -0.3145
15021W        W31155  18.070   8.370  10.501 -0.2647 -0.1272 -0.0074
15022W        W31156  15.844   6.678  13.306  0.0312 -0.0719 -0.2665
15023W        W31157  11.498  14.550   3.286 -0.0782  0.2293  0.2751
15024W        W31158  15.693  16.500   3.779  0.2388 -0.0847 -0.4298
15025W        W31159   1.765   4.227  11.939  0.3964  0.4698  0.1578
15026W        W31160  15.820  19.140  14.469  0.0696 -0.1581 -0.2512
15027W        W31161   2.593   9.206   4.102  0.1743  0.4340  0.0031
15028W        W31162   7.311   5.285  10.168  0.3765 -0.0632 -0.1485
15029W        W31163   6.733  17.235  10.928  0.2987 -0.0078 -0.0895
15030W        W31164   6.489  16.443   2.917  0.0448  0.1001  0.0430
15031W        W31165   3.826   2.354  10.597  0.0617  0.2828  0.1962
15032W        W31166   9.392   0.883   3.524 -0.0357  0.1614 -0.1918
15033W        W31167   9.113  12.052   0.310 -0.1562 -0.1071  0.2434
15034W        W31168  11.351  18.485   2.597 -0.0840  0.0469  0.0685
15035W        W31169   2.108   8.166  11.535  0.1359  0.2431 -0.3267
15036W        W31170  14.774  13.222  10.492 -0.0837 -0.1050 -0.0395
15037W        W31171  15.442   4.982  14.999  0.2418  0.1203  0.1194
15038W        W31172  13.958   0.201  10.732  0.0765 -0.2680 -0.1426
15039W        W31173   5.017   0.631   3.085 -0.0902 -0.4265  0.3502
15040W        W31174  18.795  12.703   5.381 -0.1931  0.0075  0.2308
15041W        W31175   6.210  12.794  13.347 -0.0603  0.0590  0.2284
15042W        W31176   8.241  17.638   2.777  0.2029  0.2324 -0.0592
15043W        W31177   8.891  18.134   0.433  0.0837  0.0841 -0.0156
15044W        W31178  17.585  10.658   1.988  0.2696 -0.0362  0.0133
15045W        W31179  11.890   5.741   2.898  0.2728 -0.2403 -0.0433
15046W        W31180   0.246  12.122   1.534 -0.3002 -0.2418  0.0210
15047W        W31181  11.522  16.313   3.466  0.0214 -0.2011  0.0416
15048W        W31182  18.742   5.426   2.331  0.3513  0.2297  0.2849
15049W        W31183   8.311   0.814   1.524 -0.0218  0.0518  0.0032
15050W        W31184   0.981  15.115  14.655  0.2156  0.2178  0.0200
15051W        W31185  17.169   4.027  11.910  0.0595  0.1054 -0.0649
15052W        W31186  18.275   4.164  10.237  0.1844  0.0719 -0.0456
15053W        W31187   6.745   0.165   2.805 -0.0356  0.0053  0.2598
15054W        W31188  12.616   9.053  13.427 -0.3109 -0.0646 -0.0172
15055W        W31189   3.351  16.338  10.942 -0.1503 -0.2847 -0.0087
15056W        W31190  17.010   9.626   1.944  0.4129  0.0852  0.2485
15057W        W31191   1.550  15.264   4.200  0.1150 -0.1167 -0.0611
15058W        W31192   2.727  13.187  13.051  0.4132 -0.0567 -0.1884
15059W        W31193  17.070   5.425  13.380  0.0088  0.1147 -0.2761
15060W        W31194   7.607  13.100   9.893  0.2006  0.3648  0.0176
15061W        W31195  17.946   9.538   4.138  0.1468 -0.0257 -0.0969
15062W        W31196  16.777  13.690   1.658  0.1371  0.0965 -0.0719
15063W        W31197   9.694   9.226   0.314  0.2901  0.1610 -0.1793
15064W        W31198   9.489   7.640   0.310  0.1312 -0.0730  0.0149
15065W        W31199  17.874  16.523  13.277 -0.1850 -0.0267  0.1968
15066W        W31200  18.631  10.521  10.877  0.1185 -0.0321 -0.2044
15067W        W31201   2.232  15.052   4.758 -0.1077 -0.2685  0.3122
15068W        W31202  17.771  13.005   3.642 -0.2730 -0.0769 -0.0868
15069W        W31203  15.166   1.789   0.427 -0.3338  0.2203  0.0446
15070W        W31204   7.532   3.624   3.319 -0.0814 -0.2039 -0.0829
15071W        W31205  18.617   3.622   1.366  0.2928  0.2119 -0.2587
15072W        W31206   9.763   7.692   1.852  0.0502  0.2517 -0.3527
15073W        W31207   0.258   8.334  12.388  0.1630 -0.3553  0.0333
15074W        W31208   7.545   4.515   4.060  0.0755  0.3290 -0.0716
15075W        W31209   1.404  10.558  12.120  0.3150  0.0938  0.0403
15076W        W31210   7.341   9.310   0.675  0.2060 -0.1859 -0.0243
15077W        W31211  17.987  15.699   2.868 -0.3596 -0.3059  0.1388
15078W        W31212  16.625   9.860  11.332  0.0615  0.0085 -0.4051
15079W        W31213  13.489  11.013  13.157  0.1643 -0.0272 -0.0466
15080W        W31214   5.185   7.421  13.463 -0.0651 -0.1298 -0.1618
15081W        W31215   8.293   4.554   0.033  0.1333  0.3610 -0.1021
15082W        W31216  14.533  10.246  13.397  0.2750  0.0797 -0.1448
15083W        W31217   5.368   7.981   4.737  0.1969  0.1622 -0.4617
15084W        W31218   0.024  12.570  10.288  0.2130  0.1735  0.1091
15085W        W31219  15.723   8.570   4.491  0.3818  0.0046 -0.1582
15086W        W31220  13.074  16.815  14.719  0.0018  0.0905 -0.1150
15087W        W31221   1.791  11.819  11.869  0.1063 -0.0111 -0.2556
15088W        W31222   8.629   2.331   4.895  0.0177  0.0159 -0.2357
15089W        W31223  16.204  10.042   0.113  0.1670 -0.2446  0.2212
15090W        W31224  18.617  16.100   3.427  0.0573  0.0716  0.0260
15091W        W31225   0.755   7.126  13.690 -0.2530  0.1906 -0.0959
15092W        W31226   3.060   4.928  13.068 -0.1452 -0.0698 -0.2088
15093W        W31227  16.248  10.232   2.176  0.0091 -0.0306 -0.0393
15094W        W31228  12.814   5.480  11.518  0.0626  0.1740 -0.3144
15095W        W31229   5.153  15.951   3.422  0.2171  0.1391 -0.2579
15096W        W31230   5.679   2.194  13.356 -0.4372 -0.3920 -0.0032
15097W        W31231  18.717  16.008   5.219 -0.0042  0.2744  0.1526
15098W        W31232   9.348  14.693  13.245 -0.0606 -0.3050 -0.1648
15099W        W31233  15.144  18.944  12.008 -0.4922 -0.2901 -0.0659
15100W        W31234  14.305  12.822   1.386 -0.0262 -0.0882  0.1388
15101W        W31235   3.450   6.071  12.071 -0.0162  0.2101 -0.3512
15102W        W31236  13.779  13.182   0.538  0.1425  0.5368 -0.5917
15103W        W31237   0.278   8.548   3.294  0.0745 -0.1317  0.2932
15104W        W31238   3.882   0.632   2.320  0.2623 -0.0776  0.1969
15105W        W31239  17.550   9.928  13.945  0.1380 -0.0444  0.0592
15106W        W31240   1.444  18.928  13.423  0.2791  0.1840  0.1107
15107W        W31241   5.564  16.963  10.691 -0.4329  0.1295  0.2044
15108W        W31242   9.847   6.630  12.613 -0.0446 -0.2580  0.1991
15109W        W31243   4.520  13.309  11.216  0.0743  0.0342 -0.3975
15110W        W31244  17.841  14.551  13.728 -0.1741 -0.0842  0.3217
15111W        W31245  17.449  11.385  12.709 -0.1234 -0.2872  0.0831
15112W        W31246   4.220   1.957   0.655 -0.2167 -0.0723  0.2797
15113W        W31247   3.087   8.826   2.908 -0.1415  0.2706 -0.2890
15114W        W31248  11.398   9.238   1.358  0.0303 -0.3253  0.2510
15115W        W31249  15.645   7.473   4.682  0.0901  0.2875 -0.0652
15116W        W31250   1.729  18.002  11.258 -0.0922  0.2199  0.1957
15117W        W31251  15.075  18.694  10.666 -0.0193 -0.1331 -0.0998
15118W        W31252   5.152   4.278   3.125 -0.0985  0.0595  0.2239
15119W        W31253   2.995  14.009   4.904 -0.0312  0.1649  0.1955
15120W        W31254   9.394  12.878   2.860  0.1969 -0.1572  0.0580
15121W        W31255  10.033   2.136   4.645 -0.1936 -0.0790 -0.0128
15122W        W31256   7.430   3.833  13.539  0.0451  0.3420 -0.0512
15123W        W31257   2.184  10.884   4.342 -0.3867  0.2832  0.1841
15124W        W31258   1.326  11.256   2.003  0.1513  0.0028 -0.1957
15125W        W31259   2.193  16.718   4.263 -0.0452 -0.2574 -0.2319
15126W        W31260   5.551  14.991   5.139  0.3944  0.3081  0.1637
15127W        W31261   4.507  11.324   9.575  0.3118  0.1117  0.0951
15128W        W31262  14.041  17.459   1.726  0.2455  0.0008 -0.0077
15129W        W31263  11.867   1.106   3.675 -0.3115 -0.0831 -0.1657
15130W        W31264  18.622  10.241   3.084 -0.2116  0.0340  0.0836
15131W        W31265  16.646   3.489  12.952 -0.3646  0.0460  0.0216
15132W        W31266   0.816   0.950   5.501  0.0941  0.0913  0.2266
15133W        W31267  16.663  19.096  12.472 -0.2607  0.1525 -0.0042
15134W        W31268  13.110   1.764   4.560 -0.1886  0.0675  0.0243
15135W        W31269  11.469   9.471  11.790 -0.1639 -0.3208  0.4061
15136W        W31270  16.526   5.203  12.699  0.4610  0.1626  0.0073
15137W        W31271   7.377   1.901   2.579  0.0842  0.2745 -0.0184
15138W        W31272   7.429   2.984  10.695  0.0586 -0.4099  0.3806
15139W        W31273  14.774   1.981   3.786 -0.1066 -0.0453  0.1146
15140W        W31274  13.702  17.357   4.358 -0.3541 -0.0902 -0.0762
15141W        W31275  14.392   2.424   3.348  0.1350 -0.1367 -0.1679
15142W        W31276   8.628  12.509  14.156  0.0945 -0.2816  0.1603
15143W        W31277   8.385   6.082   4.080  0.4543  0.0631  0.0440
15144W        W31278   6.472  11.792  11.895  0.0413  0.0635  0.3821
15145W        W31279  12.889   8.044   1.480 -0.4660 -0.1948  0.2551
15146W        W31280   3.196   8.183   4.509 -0.0009  0.0962 -0.1281
15147W        W31281   1.201  12.654  14.862  0.0138 -0.1035  0.0591
15148W        W31282   6.048  17.617  13.095 -0.1102  0.1472 -0.1516
15149W        W31283  13.378  17.500  14.222  0.0271  0.0087  0.2307
15150W        W31284   0.707  14.466  14.363  0.1617 -0.0068  0.0444
15151W        W31285   1.986   0.496  14.299  0.3669 -0.2712 -0.0026
15152W        W31286   4.675  13.950   1.461  0.2921 -0.1664  0.5352
15153W        W31287  19.003  14.597   4.162 -0.1830 -0.2309 -0.0916
15154W        W31288  16.672  17.900  14.262 -0.4722  0.0249 -0.0549
15155W        W31289   8.094  11.512  10.827 -0.1002 -0.0994  0.0202
15156W        W31290   4.677   5.878   2.801  0.0488  0.1008 -0.1033
15157W        W31291  13.913   0.244  14.321  0.0694  0.0951 -0.2423
15158W        W31292   1.380   6.491   2.150 -0.1174  0.2312  0.0443
15159W        W31293   0.932  18.031   0.267  0.0555  0.0173 -0.3956
15160W        W31294  13.625   5.544   3.767 -0.0901  0.2601  0.3033
15161W        W31295   6.307   3.025   0.204 -0.0729  0.0459 -0.2569
15162W        W31296  15.433  12.522   0.256 -0.1741 -0.1564  0.3455
15163W        W31297  16.066   4.424   1.404 -0.0584 -0.0380 -0.0315
15164W        W31298   0.031   1.238   0.629  0.0815  0.1368  0.1851
15165W        W31299   9.132  17.586  14.491  0.2829  0.1561 -0.2546
15166W        W31300   0.092   6.776   0.470 -0.2189  0.0609  0.2755
15167W        W31301  14.522   2.779   5.888  0.2535 -0.0377 -0.2534
15168W        W31302  17.114   2.909  14.972 -0.2272  0.1303  0.2066
15169W        W31303  10.170  13.700   2.913 -0.1112  0.0098 -0.0470
15170W        W31304  10.231  16.769   1.737 -0.1782 -0.1343 -0.0831
15171W        W31305  14.070  15.889   4.260  0.2119 -0.0636 -0.0199
15172W        W31306   7.362   6.972  11.629 -0.1241  0.1939 -0.0464
15173W        W31307   3.622   0.206  14.972 -0.2266  0.0058 -0.1214
15174W        W31308   1.880  14.887   5.134 -0.0596 -0.1127  0.2523
15175W        W31309  13.705   4.487  14.365  0.0580  0.1274 -0.0337
15176W        W31310   0.929   3.474  10.902  0.0436  0.2061  0.0185
15177W        W31311  19.205   9.156  12.151  0.1265 -0.0339  0.1482
15178W        W31312   5.817   5.628   2.952 -0.1324 -0.0213  0.3283
15179W        W31313  15.790   2.422   1.057 -0.0593  0.0164  0.2019
15180W        W31314  13.970  11.989  10.725  0.3033  0.2656  0.1666
15181W        W31315  15.077   2.389  14.430  0.1260  0.2333 -0.0342
15182W        W31316  14.105   6.992  11.553  0.1642  0.3149  0.0531
15183W        W31317  16.167   9.862   5.041 -0.3578  0.0554 -0.0134
15184W        W31318   1.244   1.485  13.550 -0.0391 -0.1400  0.1135
15185W        W31319   1.777  17.313  10.326 -0.1011  0.2572  0.2262
15186W        W31320   0.226  14.291   0.365  0.1666  0.0534  0.0429
15187W        W31321   1.624  17.692   4.680 -0.0291  0.0945  0.3191
15188W        W31322  15.511  11.732   1.039 -0.0728 -0.0056 -0.4192
15189W        W31323   4.583   4.064  11.006 -0.2524  0.1224 -0.1119
15190W        W31324   8.841  15.667   0.014 -0.1037 -0.0242 -0.2170
15191W        W31325  16.842  17.948   4.318 -0.4161 -0.1408  0.1190
15192W        W31326   9.855  10.454  12.840  0.3435 -0.0305  0.1650
15193W        W31327  10.409  16.238   4.669 -0.2054 -0.2149  0.0643
15194W        W31328  12.317  18.285  14.637  0.0409  0.2163 -0.0305
15195W        W31329   5.021   1.084   0.687  0.0767 -0.1550  0.1310
15196W        W31330   2.575   9.785  12.385 -0.2074 -0.1517 -0.1388
15197W        W31331   9.064  15.226   0.063  0.1678  0.0963 -0.1686
15198W        W31332  13.502   7.345   2.305 -0.1431 -0.2940 -0.1832
15199W        W31333   0.634  18.327  11.154 -0.0098 -0.0986 -0.1353
15200W        W31334   1.091  14.114  14.270  0.3302  0.1258  0.0279
15201W        W31335   7.198  12.054  13.540  0.1152 -0.1240 -0.1865
15202W        W31336   8.101  16.056   1.350  0.3877 -0.0884 -0.1613
15203W        W31337  10.164   5.032  12.568 -0.0862  0.1480 -0.0973
15204W        W31338   8.837  14.020  13.874 -0.0841 -0.0612 -0.1343
15205W        W31339  12.648  18.947  11.969 -0.2186 -0.0857  0.1228
15206W        W31340  12.481   0.095  11.811  0.0096 -0.1457 -0.3237
15207W        W31341   1.703   8.352  14.014 -0.3850 -0.1731  0.2175
15208W        W31342   8.397   4.893  12.675 -0.4249  0.3091 -0.0318
15209W        W31343   1.790  18.445   3.124  0.1534 -0.3325 -0.2392
15210W        W31344   1.071  16.066   4.463  0.1190  0.1168 -0.1242
15211W        W31345   8.117   7.663  11.784  0.3316 -0.2338  0.1357
15212W        W31346   8.098  19.198  13.851 -0.0235 -0.1520  0.0443
15213W        W31347   1.329  14.429  10.883 -0.0737 -0.0895  0.0918
15214W        W31348   4.364   2.461  13.012 -0.1951 -0.1467  0.0796
15215W        W31349  15.376  11.262   3.181 -0.1636 -0.2204 -0.1337
15216W        W31350   7.250  10.150  13.042  0.3606 -0.0200 -0.0597
15217W        W31351  11.516  18.562   2.097 -0.0354  0.2265  0.2145
15218W        W31352   4.405  13.109   4.872 -0.1022 -0.0838 -0.1963
15219W        W31353  11.189   7.309   4.835 -0.0205 -0.0899 -0.0108
15220W        W31354   8.148  11.582   4.029 -0.2484  0.1537 -0.0203
15221W        W31355  14.648   4.103   4.551  0.2770  0.2955  0.0938
15222W        W31356  13.817   7.760   4.352 -0.3063  0.2821  0.1514
15223W        W31357  17.671  14.329  12.867  0.1438 -0.1947  0.0807
15224W        W31358   0.581   6.374  12.622 -0.1368 -0.2508  0.1496
15225W        W31359   4.990   6.348  10.410  0.2103  0.1204  0.2121
15226W        W31360   4.491   2.907  10.289 -0.1120  0.0373  0.0482
15227W        W31361  14.472  14.347  14.308  0.2684 -0.2694 -0.0518
15228W        W31362  13.693   3.368  10.929  0.3352  0.0657 -0.0959
15229W        W31363  18.826  15.256   0.097  0.1718  0.3325  0.1270
15230W        W31364  19.054   3.215  10.026 -0.0573 -0.1748  0.1167
15231W        W31365   1.774   6.191   9.732 -0.0370  0.2818  0.0263
15232W        W31366   2.228   5.124  10.900 -0.0180  0.2965 -0.1705
15233W        W31367   8.140   1.669  12.698 -0.0757 -0.0005 -0.3552
15234W        W31368   2.790   2.017   4.740  0.1122 -0.0909 -0.0065
15235W        W31369   0.775  14.369  10.761 -0.0637 -0.1582 -0.2263
15236W        W31370   7.426   2.606  13.507 -0.1740  0.2487 -0.0851
15237W        W31371  15.582   8.094   9.407  0.1049 -0.0609 -0.1954
15238W        W31372   3.051  18.643  13.370 -0.2295  0.1536 -0.1717
15239W        W31373  11.762  12.121  14.605 -0.1809 -0.2180 -0.1738
15240W        W31374  10.720  18.368  14.942 -0.1231  0.1149  0.1850
15241W        W31375  16.119  13.076  13.964 -0.0442  0.2562  0.0201
15242W        W31376  14.151   0.119   3.190  0.0234 -0.1233 -0.0931
15243W        W31377  14.698  17.673   3.540  0.2882  0.0986 -0.2366
15244W        W31378   5.040  18.545  13.581 -0.1226  0.0060  0.2335
15245W        W31379  10.474  11.598  14.977 -0.2592  0.2330 -0.1047
15246W        W31380   9.369   3.842   9.869 -0.1486  0.0150  0.1653
15247W        W31381  11.739   6.516   0.767  0.2569  0.2756  0.1024
15248W        W31382   5.504   3.812  14.405 -0.2181 -0.0097  0.0688
15249W        W31383  18.424   1.109  14.340  0.3158  0.4641 -0.4008
15250W        W31384   8.099   5.865   4.639  0.0061 -0.0137 -0.1492
15251W        W31385   5.028   2.883  13.323 -0.2921  0.2787  0.0793
15252W        W31386   8.082  10.643  10.398 -0.3274  0.1570  0.0684
15253W        W31387   8.578  10.009  10.356 -0.1145 -0.1273  0.3621
15254W        W31388  17.090   3.419  14.955  0.1560  0.2339 -0.0087
15255W        W31389  10.516   9.615  13.957 -0.2019  0.2155 -0.1576
15256W        W31390  13.306   4.062  12.387 -0.0481  0.1648  0.0275
15257W        W31391   6.996   3.052   3.951  0.4524 -0.0484  0.1074
15258W        W31392   1.856   7.313   0.489 -0.1673 -0.1968  0.0466
15259W        W31393   9.075  15.606   3.976 -0.0176 -0.0275 -0.1377
15260W        W31394  15.758   5.457  10.464  0.1721  0.0944  0.3324
15261W        W31395   5.318   8.651  14.766  0.0844  0.0379 -0.0617
15262W        W31396  18.564   6.441   4.558  0.0321 -0.0496  0.0365
15263W        W31397   8.325  17.367  14.419 -0.1632  0.0919 -0.0539
15264W        W31398   1.009  14.478   1.116  0.1846  0.0461 -0.3270
15265W        W31399  15.317  10.016  12.693 -0.0580  0.1280  0.4285
15266W        W31400  18.323   3.382   4.388 -0.0416  0.2844 -0.1349
15267W        W31401  13.302   1.529  12.987  0.0126 -0.1187 -0.3717
15268W        W31402   9.518   6.874   1.978  0.2841 -0.3466  0.2965
15269W        W31403  14.497   8.791   3.287  0.0877  0.2178  0.0389
15270W        W31404   9.915   2.474  13.397 -0.0170  0.0294  0.3819
15271W        W31405   1.560   2.737   4.538  0.3119 -0.0045  0.0008
15272W        W31406   3.407  18.408   1.900  0.0602  0.0377  0.0975
15273W        W31407   1.510   4.476  11.563 -0.0658  0.0092 -0.0648
15274W        W31408  12.227   7.515  10.927 -0.0494  0.1350  0.2672
15275W        W31409  15.574  14.887   2.898  0.0249 -0.3684  0.0732
15276W        W31410   6.692  10.306   1.369  0.1234 -0.2362 -0.5199
15277W        W31411   8.675  13.427   3.507 -0.1285 -0.1079 -0.0358
15278W        W31412   5.005  14.304  12.508  0.3205  0.1070  0.1477
15279W        W31413   6.137  12.987  12.045 -0.3417  0.2588 -0.0518
15280W        W31414   4.948   4.823   3.007  0.2689  0.0687  0.1601
15281W        W31415  17.565  10.442  13.766 -0.4546  0.3298 -0.0282
15282W        W31416  10.440   0.147   5.607 -0.0870 -0.4067 -0.0904
15283W        W31417   5.373   7.399  12.627 -0.0304 -0.5906  0.1561
15284W        W31418  10.327  18.010   3.605  0.0978 -0.4012  0.1923
15285W        W31419  14.452   6.451   1.550 -0.2918 -0.0848 -0.1285
15286W        W31420   1.239   1.342  12.155 -0.2430  0.1721 -0.2703
15287W        W31421  12.311  15.071   2.617  0.2526  0.0396 -0.0068
15288W        W31422   7.247   3.696   1.901  0.0057 -0.3364 -0.0137
15289W        W31423  17.254   1.909  10.693  0.1694  0.0239  0.3566
15290W        W31424  13.958  17.355   2.974  0.2263 -0.0553  0.0330
15291W        W31425  14.573  13.915  11.705  0.0768 -0.0799 -0.1171
15292W        W31426   9.559  14.766   0.039  0.0021 -0.0994 -0.0036
15293W        W31427  12.836   0.758  11.228 -0.2443  0.3784 -0.2003
15294W        W31428   4.602   4.182   9.789  0.1763  0.1026  0.1266
15295W        W31429  13.109  19.323   2.123  0.0599 -0.0580 -0.1387
15296W        W31430   4.163   2.040  14.579 -0.0204 -0.0751 -0.2415
15297W        W31431   2.290  15.962   1.190 -0.0958 -0.0686 -0.2014
15298W        W31432   1.038   7.679  11.169  0.1515  0.2057 -0.3097
15299W        W31433  13.471  17.417  12.093 -0.0178 -0.0521  0.3420
15300W        W31434   6.722   3.494   4.053  0.0830  0.0716  0.0709
15301W        W31435   5.817   4.967   2.634  0.0436 -0.0911  0.1951
15302W        W31436  11.250  10.664   0.774 -0.0011 -0.1993  0.1312
15303W        W31437   6.787  11.937  13.716 -0.0023 -0.3719  0.1737
15304W        W31438   6.661   1.088   0.775 -0.1499  0.0300 -0.1658
15305W        W31439  15.273   8.392   4.236 -0.2908  0.1783  0.2703
15306W        W31440   8.490  15.346  14.141 -0.0008  0.0254  0.1332
15307W        W31441  14.898   2.451  10.982 -0.0087 -0.1906  0.1326
15308W        W31442  12.870  16.326   4.567 -0.2431  0.0007 -0.1635
15309W        W31443   5.035   0.112  11.567  0.2106  0.2335  0.0624
15310W        W31444  18.230   4.949  12.662 -0.1000 -0.1395 -0.3497
15311W        W31445  15.659  17.675  11.171  0.1915 -0.1144  0.2429
15312W        W31446   4.431  13.218  14.477  0.1288 -0.2452  0.1684
15313W        W31447   6.436  17.558   1.368  0.2612 -0.3464  0.2357
15314W        W31448   5.084   9.808  11.437  0.3011 -0.1371  0.0080
15315W        W31449  12.158  11.430   0.423 -0.2940  0.1499  0.1968
15316W        W31450  11.129  18.927   5.190  0.3221  0.0542 -0.2845
15317W        W31451  15.735   8.759   2.293  0.0336  0.2736 -0.0542
15318W        W31452   5.798  15.178   0.451  0.0982  0.5372  0.0352
15319W        W31453   0.986   9.382   4.773 -0.0237 -0.0366 -0.0919
15320W        W31454  11.056   5.194   3.423 -0.2350  0.0815  0.2087
15321W        W31455   8.800  19.045   4.010 -0.2438 -0.2537 -0.0589
15322W        W31456  13.560  12.255  14.343  0.3290  0.1547  0.0206
15323W        W31457   7.785   7.673   0.151 -0.0441  0.2826 -0.2198
15324W        W31458  11.241  10.389   4.493  0.2561  0.1865 -0.1386
15325W        W31459   9.390   6.634  11.279 -0.0464  0.2091  0.0759
15326W        W31460   1.122  14.308   3.568  0.1071 -0.0162  0.2236
15327W        W31461  16.589  17.492   0.080 -0.3559  0.0485 -0.3356
15328W        W31462  19.233   6.125   2.732 -0.1378 -0.1939 -0.0077
15329W        W31463   3.880   6.227   9.471  0.0681  0.0739 -0.0908
15330W        W31464   8.919   0.970   1.217  0.1846  0.1409 -0.0295
15331W        W31465  13.894   7.996   3.462 -0.2242 -0.0265 -0.1252
15332W        W31466  10.103   9.321   4.784 -0.0604  0.1586 -0.0455
15333W        W31467  11.428   4.853   2.408 -0.1542 -0.2617  0.1554
15334W        W31468   9.540  16.753  12.575 -0.4926  0.4248  0.1125
15335W        W31469   3.162  14.484  13.016  0.2123 -0.3495  0.1576
15336W        W31470   0.398  17.737  13.124 -0.0557  0.0883  0.0876
15337W        W31471  10.387  11.908  14.600  0.0834  0.0983  0.2881
15338W        W31472   4.243  16.016  10.667  0.1073  0.1319  0.1285
15339W        W31473  14.182  13.754  11.967  0.1346  0.1035 -0.0352
15340W        W31474  12.441   8.247   3.366  0.1778 -0.1644  0.0835
15341W        W31475   8.889   3.507  13.526 -0.1235  0.0059 -0.1995
15342W        W31476   1.047   7.234   1.684  0.5937  0.0974 -0.1768
15343W        W31477  15.046   9.520   0.776 -0.0160  0.0182  0.1221
15344W        W31478   0.861  18.658  12.985 -0.0895  0.1947  0.1078
15345W        W31479   7.749   3.409   1.822  0.1430  0.0066  0.0550
15346W        W31480  14.772  13.518  11.265 -0.2841  0.0092 -0.0792
15347W        W31481  18.425  11.802  11.525  0.0477 -0.0301 -0.2204
15348W        W31482  17.290   1.795  11.254  0.1747 -0.0798 -0.0215
15349W        W31483   2.304  18.157   5.025 -0.0490 -0.1743 -0.0254
15350W        W31484   0.895   4.784   3.634  0.2141  0.1271 -0.0943
15351W        W31485   6.726   3.915   3.780  0.2423  0.1392  0.1210
15352W        W31486   2.842  18.437  10.593  0.0485 -0.0416 -0.0184
15353W        W31487  15.334   7.607  13.572  0.0184 -0.1524  0.0043
15354W        W31488  18.171   0.287   0.543 -0.0121 -0.2454 -0.0057
15355W        W31489  16.974   6.934   9.451  0.4103  0.0845  0.3406
15356W        W31490   0.023   1.523   2.238 -0.0902  0.1495 -0.0825
15357W        W31491  10.272  18.983  10.954  0.0512  0.0481  0.0445
15358W        W31492  15.965  16.434   4.187  0.1782 -0.4669 -0.0788
15359W        W31493   9.412   7.838   2.138 -0.2735  0.1189 -0.4286
15360W        W31494   3.432  18.190   4.908  0.1940  0.4071  0.1180
15361W        W31495   7.971   8.541  14.303 -0.0139 -0.1069 -0.1526
15362W        W31496   1.212   3.190  12.953 -0.0307 -0.2985 -0.3191
15363W        W31497  14.972  16.168  14.125 -0.0552 -0.0730  0.0476
15364W        W31498   6.405  17.043  14.583  0.2239 -0.2487  0.1520
15365W        W31499  14.899  15.854   4.867 -0.0816 -0.1466  0.0671
15366W        W31500  10.837   9.242  11.562 -0.0126  0.3967  0.1512
15367W        W31501   8.140  16.512  14.334  0.2119 -0.0139 -0.0655
15368W        W31502  10.901  16.092  13.903 -0.3042 -0.0526 -0.0559
15369W        W31503  17.965  11.978   2.056  0.0036  0.5048 -0.1644
15370W        W31504  12.705   4.907  15.001 -0.1873 -0.0784 -0.2549
15371W        W31505  11.330   5.829  11.054 -0.0959 -0.4812 -0.0338
15372W        W31506  16.093   1.867   1.902 -0.1185  0.0148 -0.2664
15373W        W31507   6.310  17.115  13.151  0.0150  0.1264  0.2080
15374W        W31508  14.617  17.123   0.539  0.0880 -0.1394 -0.0733
15375W        W31509   3.322  14.666   2.510 -0.1608 -0.1008 -0.1219
15376W        W31510  11.057   8.553  13.353  0.4057 -0.0510  0.1078
15377W        W31511   6.797  16.788   2.260 -0.0482  0.1918  0.1016
15378W        W31512   6.180  13.500  12.997 -0.1129 -0.1427  0.3487
15379W        W31513  11.051   3.999  14.705 -0.0339 -0.0986 -0.0309
15380W        W31514  17.431  16.141  12.130 -0.1130  0.1159  0.0218
15381W        W31515   7.864   1.824   4.388 -0.0451 -0.1139 -0.4618
15382W        W31516   0.784   3.201  13.202  0.0971 -0.0518 -0.0398
15383W        W31517   4.072   8.793   2.583  0.2510 -0.1678  0.3883
15384W        W31518   4.043  14.390   0.600 -0.1861  0.5751 -0.0988
15385W        W31519   1.071  19.243  12.037 -0.0484  0.2509  0.1091
15386W        W31520  13.265   6.344   0.580  0.0112  0.2675  0.1792
15387W        W31521  14.453   5.414   9.811 -0.0567  0.1893 -0.0408
15388W        W31522  15.197  16.110   4.511  0.0371  0.2063  0.2557
15389W        W31523  18.415   4.872   1.908  0.0271 -0.0263 -0.0756
15390W        W31524   0.913   6.602  14.524 -0.3105 -0.0042  0.1599
15391W        W31525  17.575  17.535   4.645  0.3633  0.0606 -0.0376
15392W        W31526   0.863  13.114  11.577 -0.0855  0.4969 -0.0770
15393W        W31527  13.143  11.808  13.037 -0.0477  0.0436  0.0759
15394W        W31528   4.009  12.260  14.160 -0.0442  0.0496 -0.0467
15395W        W31529  17.704   3.397  11.373  0.3317 -0.2275  0.2763
15396W        W31530   0.548  17.496  14.736 -0.1161  0.2315  0.0318
15397W        W31531   6.458   1.947   2.501 -0.2545  0.0092 -0.1357
15398W        W31532  18.457   8.215   2.793 -0.0433 -0.2398 -0.2638
15399W        W31533  17.687   1.629  13.890  0.0592  0.0040 -0.1376
15400W        W31534  12.174   9.724   3.806  0.0007  0.2120  0.0640
15401W        W31535  14.973  18.702  12.959 -0.0327  0.1800 -0.0081
15402W        W31536   5.736   8.154   2.529 -0.1279  0.1625 -0.0545
15403W        W31537   0.564  17.611  12.163  0.1841 -0.0188  0.3077
15404W        W31538   0.327  15.925   9.409 -0.1265  0.1034 -0.1053
15405W        W31539   1.586  10.631  12.945  0.0962 -0.0860  0.2036
15406W        W31540   9.314   3.310   3.552 -0.1396  0.0908  0.0924
15407W        W31541   4.087   3.384  14.384  0.0269  0.1279 -0.1132
15408W        W31542   7.857  13.090   4.353  0.1846 -0.0063 -0.1582
15409W        W31543  16.204   5.528  14.736 -0.1158 -0.0692 -0.0265
15410W        W31544   7.145   5.187   9.125 -0.1675  0.1166  0.1461
15411W        W31545   1.376  17.841  11.647  0.1866 -0.0045 -0.1523
15412W        W31546   1.020  18.791   2.413  0.1838 -0.1821 -0.1744
15413W        W31547   9.471  12.182   4.459 -0.0019 -0.0098 -0.0325
15414W        W31548   5.908   0.854   2.692  0.1599  0.0809 -0.1652
15415W        W31549  11.738  11.015   3.301 -0.0466 -0.3404 -0.4276
15416W        W31550  13.795  13.734   9.552  0.1450  0.1266  0.1835
15417W        W31551  11.517  11.398  12.210  0.3331  0.1278  0.1558
15418W        W31552   9.636  16.652   0.429  0.1097  0.1108 -0.1705
15419W        W31553   8.744   5.880  14.342 -0.1903  0.0473  0.1048
15420W        W31554  17.953  15.051   3.664 -0.1394 -0.2823  0.0164
15421W        W31555   8.278  18.759   2.320 -0.0533  0.0651 -0.0776
15422W        W31556  16.203   7.763   1.856 -0.0495  0.0253 -0.1858
15423W        W31557   3.953  19.337   1.266 -0.1867 -0.0016  0.1266
15424W        W31558  15.103   3.314   3.490  0.1006  0.0153  0.0891
15425W        W31559  17.623  15.982   6.060  0.2942 -0.1434 -0.0877
15426W        W31560   4.295   6.645  11.435 -0.3749 -0.0841 -0.1404
15427W        W31561  15.936  17.692   9.599  0.3663  0.0208 -0.2877
15428W        W31562   7.176  18.784  10.070  0.1774 -0.3012  0.3054
15429W        W31563   3.422  12.886   5.388  0.0350 -0.1572 -0.0677
15430W        W31564  11.757   5.953  11.259 -0.1557  0.0256  0.2236
15431W        W31565   2.515   5.810  13.472  0.1791  0.1342 -0.1852
15432W        W31566  14.273   9.879   4.483  0.0300  0.1587 -0.3714
15433W        W31567  17.585   0.314  11.591 -0.3738 -0.2592 -0.1363
15434W        W31568   4.238   5.750   2.220  0.1736 -0.2441  0.2244
15435W        W31569  10.918   0.160  10.361 -0.0981  0.1343 -0.2641
15436W        W31570   3.201   2.356   0.452  0.0428 -0.2142 -0.2606
15437W        W31571   6.611   1.554  13.002 -0.3733 -0.3712 -0.1969
15438W        W31572   7.803  12.830  11.152 -0.1807 -0.1062 -0.0528
15439W        W31573   7.699   8.747   2.525 -0.0525  0.3139  0.3210
15440W        W31574   2.943   5.774  14.752  0.0341 -0.1132  0.2353
15441W        W31575   6.369  18.793   5.049  0.1053 -0.0249  0.1381
15442W        W31576   9.296  15.289   0.543  0.1760  0.0922 -0.1172
15443W        W31577  16.550   5.107   4.558 -0.3504  0.0925  0.0998
15444W        W31578  10.220  14.842   1.985  0.1505 -0.2714 -0.1169
15445W        W31579   9.645   4.819   4.919  0.1052  0.2896  0.1988
15446W        W31580   4.085   2.792  14.323 -0.0094 -0.1130 -0.0480
15447W        W31581   6.759  13.385   3.897  0.0658  0.3229  0.1325
15448W        W31582   9.386  17.628  10.902  0.1099  0.1903  0.1028
15449W        W31583  18.907   8.271   1.526  0.0789  0.4194  0.3390
15450W        W31584   8.559   6.222  12.221 -0.0201  0.5357 -0.1969
15451W        W31585  18.631  13.147  13.190 -0.0534 -0.1265 -0.1459
15452W        W31586   3.533  14.397   1.371 -0.1794 -0.3627 -0.0667
15453W        W31587   6.586   9.579   0.349 -0.1561 -0.1491 -0.1333
15454W        W31588   5.280  13.395   0.504  0.0824 -0.4164  0.0184
15455W        W31589   4.411   9.245  11.512 -0.1687 -0.0995  0.4390
15456W        W31590   5.292   9.582  11.873 -0.0529 -0.1542 -0.3791
15457W        W31591   6.326  17.150   0.175 -0.1373  0.1184 -0.0010
15458W        W31592   5.845  14.152   2.490 -0.1153  0.1285 -0.0016
15459W        W31593  13.457   6.153  11.312  0.2109  0.2261  0.0869
15460W        W31594   2.478  16.857   4.677  0.1551 -0.2534 -0.2918
15461W        W31595   4.526   9.829  14.465  0.2470  0.0016  0.1390
15462W        W31596   0.188   7.262   3.578  0.1713  0.0393 -0.3169
15463W        W31597  11.375   7.439   0.509 -0.0082 -0.1841 -0.2444
15464W        W31598   4.217   2.321  11.341 -0.1873 -0.1100  0.0731
15465W        W31599  18.563   6.561  12.522 -0.1960 -0.0068 -0.0678
15466W        W31600  14.075   7.250   1.636 -0.0817 -0.1895  0.1561
15467W        W31601  11.421  13.622   2.641  0.1559  0.3980  0.0145
15468W        W31602   5.367   5.199  13.498  0.2581  0.0985  0.4434
15469W        W31603   2.121   2.017   2.423  0.2613  0.0790  0.1047
15470W        W31604  16.525   2.146  14.425 -0.0098 -0.0854  0.1876
15471W        W31605  15.382   6.297   1.622  0.0072  0.0751 -0.0692
15472W        W31606   9.011  11.169   3.006  0.3114  0.2309 -0.0823
15473W        W31607   7.407  19.161   2.630 -0.4673 -0.1014 -0.1672
15474W        W31608   4.857   7.614   1.269  0.0895  0.2552 -0.1201
15475W        W31609   4.962  12.475   9.569 -0.0370  0.0220  0.0158
15476W        W31610   1.894   0.824  10.263 -0.1761  0.0198 -0.1192
15477W        W31611   1.941  13.601   1.211  0.4207 -0.0787  0.0420
15478W        W31612  15.790   4.775  12.929 -0.0042 -0.0301 -0.1602
15479W        W31613  12.197  18.638   1.341  0.0888  0.1127  0.0880
15480W        W31614   2.109   6.955  10.972 -0.0556  0.0648  0.0810
15481W        W31615  17.030   5.312   0.295  0.3396  0.0454 -0.2486
15482W        W31616  15.726   4.075   2.896 -0.0191  0.0431  0.1422
15483W        W31617  14.449  14.123   3.745  0.0707  0.0797  0.1952
15484W        W31618  15.479  13.596  10.292 -0.1345 -0.1307 -0.0558
15485W        W31619   4.211  18.833  13.980  0.3847 -0.5609  0.3169
15486W        W31620   5.739   2.201   3.124  0.1108 -0.0321  0.3571
15487W        W31621   7.314   3.929   4.295 -0.0854 -0.2526  0.3817
15488W        W31622  11.450   2.697   4.116  0.2623 -0.2291  0.4178
15489W        W31623   0.514  10.975  10.555  0.0482 -0.0808  0.2614
15490W        W31624  11.868   7.397   0.393 -0.1319 -0.2104  0.1289
15491W        W31625  19.067   8.161   0.436  0.0676 -0.0286  0.1445
15492W        W31626   7.990  19.095   5.571 -0.2217  0.3472 -0.1045
15493W        W31627  13.715  16.091  10.610 -0.0341 -0.0684 -0.0930
15494W        W31628  14.559   8.578  12.707 -0.0780 -0.0625 -0.4706
15495W        W31629   6.982   7.753   1.248 -0.0380 -0.0624 -0.2725
15496W        W31630  11.643   3.553  13.362 -0.0188 -0.0705  0.1035
15497W        W31631  11.775   9.552   3.622 -0.0708  0.1584 -0.0337
15498W        W31632   2.512  15.592   0.294  0.2920  0.0543 -0.0175
15499W        W31633  11.460   0.965   5.157  0.3415  0.0933 -0.1884
15500W        W31634  13.424  12.902  13.318 -0.4082 -0.1151  0.1435
15501W        W31635   9.506  12.178   0.746 -0.1508  0.1242  0.0856
15502W        W31636   3.865   0.720  11.501  0.0103  0.0753 -0.2819
15503W        W31637   1.172   6.958   3.947 -0.1799  0.1214 -0.1565
15504W        W31638   0.474  13.345   0.581  0.2190 -0.1404 -0.1350
15505W        W31639   4.532   1.378   3.929  0.0867  0.1224  0.0077
15506W        W31640  13.354   6.230   1.557 -0.4426 -0.1534 -0.1328
15507W        W31641  15.187  17.860  11.467 -0.3000 -0.1178 -0.0231
15508W        W31642   3.709   1.866   3.667 -0.2157  0.0917 -0.0461
15509W        W31643   9.904   0.766   1.789 -0.1674 -0.0014  0.0506
15510W        W31644  17.429   5.630   4.530 -0.0987 -0.0144  0.0687
15511W        W31645   4.413   7.374   1.045 -0.0476  0.0862 -0.0392
15512W        W31646  11.887  13.274   0.406 -0.1371  0.1062 -0.1910
15513W        W31647  12.647   0.686  12.969  0.1932 -0.2782 -0.1151
15514W        W31648  18.686  11.593   0.734  0.2248 -0.1224  0.3489
15515W        W31649   9.281  17.111  14.329  0.1537  0.2741  0.2187
15516W        W31650  18.164  17.378  11.288  0.0061 -0.1623  0.4346
15517W        W31651   3.017  18.279   0.985  0.3029 -0.1313  0.2296
15518W        W31652  15.494   7.595  14.699 -0.0936  0.2221 -0.5077
15519W        W31653   8.928  10.484   2.206 -0.1080  0.1836 -0.2142
15520W        W31654  10.757  13.755   5.621  0.0604  0.0638  0.1073
15521W        W31655   8.120  15.094   3.014  0.0906 -0.0591  0.1723
15522W        W31656  12.815   1.735   2.670  0.0908 -0.3872 -0.3428
15523W        W31657   1.063  14.952  11.324  0.0096  0.0446  0.3351
15524W        W31658   4.914  15.352  12.369  0.2670 -0.4248 -0.1696
15525W        W31659   0.403  12.685   0.639 -0.2764 -0.1566  0.0392
15526W        W31660  17.957  16.092   4.297 -0.0502 -0.1970  0.3364
15527W        W31661  16.294   5.970   1.000 -0.1691  0.1283  0.1636
15528W        W31662   0.676   0.762  14.514 -0.2784 -0.0640  0.1440
15529W        W31663  18.334  10.244   3.497  0.0381 -0.0528  0.0166
15530W        W31664   6.830   3.773   0.533 -0.0738 -0.1005 -0.2405
15531W        W31665  16.558  15.917  12.757  0.2789  0.1032 -0.0676
15532W        W31666  10.461   9.243  11.959 -0.0573 -0.1012  0.1958
15533W        W31667   3.848   2.887   0.481  0.1248  0.0117 -0.1251
15534W        W31668  12.901  12.604   1.838 -0.0396  0.1692  0.1564
15535W        W31669  16.956   0.939  14.917  0.1038  0.0914  0.1542
15536W        W31670  12.847   4.952  13.439  0.0957 -0.1909 -0.0005
15537W        W31671   4.876   8.469   2.563 -0.0467  0.0264 -0.0343
15538W        W31672  12.763   8.374   2.848 -0.0176  0.1085  0.3883
15539W        W31673  12.702  13.140  14.830  0.2136  0.0232 -0.0506
15540W        W31674  17.518   8.141  11.268  0.1835  0.0764 -0.3220
15541W        W31675  18.021   4.522   1.082  0.2889 -0.0831 -0.1677
15542W        W31676  18.098   6.359  12.807 -0.0901 -0.0713 -0.1515
15543W        W31677   2.408   5.502   0.080  0.2533  0.1297  0.1023
15544W        W31678   6.669  10.399  10.197  0.1819  0.2539 -0.1326
15545W        W31679  17.622  15.895   0.969  0.1786 -0.0963 -0.1904
15546W        W31680  19.186  10.552   5.504 -0.2105  0.1770 -0.1369
15547W        W31681   9.412   1.834  13.191  0.0243  0.0657 -0.1625
15548W        W31682   5.313   3.100  14.998 -0.0424  0.0477  0.3937
15549W        W31683  13.102  10.880  12.864 -0.1454  0.0899  0.1309
15550W        W31684  14.756  14.882   1.597 -0.0349 -0.1754  0.0189
15551W        W31685   5.029   9.497   3.602 -0.0934  0.0807  0.1488
15552W        W31686   8.223   6.750   2.975  0.0511 -0.0107 -0.2862
15553W        W31687   3.690  17.794  14.792 -0.1844  0.0429 -0.0506
15554W        W31688  10.812  12.334   3.189  0.2733 -0.1515 -0.1375
15555W        W31689  18.542  18.288  11.215  0.1731 -0.1702 -0.2507
15556W        W31690  16.152   6.106   0.526  0.2822 -0.1733 -0.0452
15557W        W31691  16.607   3.141  10.362  0.2646  0.1468 -0.0749
15558W        W31692  16.901  17.557   1.291 -0.1212  0.1064  0.1527
15559W        W31693  14.508   0.456   5.107  0.0838  0.1162 -0.3844
15560W        W31694   1.129  13.002  14.247  0.0331  0.0711  0.3911
15561W        W31695   4.981  13.405  12.511  0.0334 -0.1787  0.1562
15562W        W31696  11.612  11.094  12.735 -0.1704 -0.2336 -0.0719
15563W        W31697   4.894  14.607   4.238 -0.0455  0.1839  0.2174
15564W        W31698   0.234   2.566  13.323  0.2239 -0.0602 -0.0841
15565W        W31699  13.421  14.614  11.499  0.0753  0.2209  0.0937
15566W        W31700  17.844  13.263   5.526 -0.0166  0.0201 -0.2206
15567W        W31701   9.586   9.226  12.997  0.1026 -0.1818  0.1484
15568W        W31702   2.798   3.169  11.474 -0.0201  0.4224 -0.1604
15569W        W31703   9.402  15.132   2.044 -0.2047  0.0450 -0.1184
15570W        W31704   1.129  13.752  14.990 -0.1305 -0.2910  0.1313
15571W        W31705  19.225   2.079  14.140  0.1341  0.0873 -0.0173
15572W        W31706   1.100   6.574   5.011 -0.0243 -0.0674 -0.1084
15573W        W31707  19.264   1.652  12.432  0.2587  0.0124  0.2017
15574W        W31708  11.578   1.052   4.106  0.4258 -0.2405  0.1059
15575W        W31709   8.551  19.124   0.817 -0.1622 -0.2756 -0.0640
15576W        W31710   5.910  10.680  12.441 -0.5129  0.0229  0.3152
15577W        W31711  17.223   8.864   2.192 -0.0697  0.5775  0.2067
15578W        W31712  14.331   8.794   2.149 -0.0247  0.1546  0.1045
15579W        W31713  18.413   2.290   3.287 -0.1119 -0.2916 -0.1554
15580W        W31714  14.536   4.237   0.356 -0.0015  0.0161 -0.1094
15581W        W31715  14.763  10.770   9.931 -0.0383 -0.0567 -0.0476
15582W        W31716  10.814   0.658  13.596 -0.1087 -0.3588  0.0014
15583W        W31717  16.931  11.998   5.620 -0.1914  0.0941  0.1627
15584W        W31718   5.299  13.041  13.264  0.2064 -0.1347 -0.0226
15585W        W31719  12.666  11.899   4.490 -0.1011  0.0793 -0.1622
15586W        W31720   5.234  15.670   2.607  0.1331  0.1893  0.1631
15587W        W31721   8.857   6.583   4.605 -0.1682 -0.1760 -0.2933
15588W        W31722   2.376  16.606   0.460  0.1047  0.1515  0.1388
15589W        W31723   3.732   1.699  11.787 -0.2483 -0.2539  0.0580
15590W        W31724  16.621  18.873  11.965  0.1312 -0.2506  0.2215
15591W        W31725   8.688  14.281   3.659  0.0185 -0.0091  0.0809
15592W        W31726   7.203  16.517   4.035 -0.1878  0.1475  0.1257
15593W        W31727  10.370   1.312  14.179 -0.1097 -0.1195  0.2962
15594W        W31728   2.551  16.673  14.657 -0.0107 -0.0923  0.1452
15595W        W31729   8.302  18.058  13.520  0.1741 -0.0580 -0.0183
15596W        W31730   5.289  11.555   0.514  0.0526 -0.1849 -0.4693
15597W        W31731  19.307   8.762   5.560 -0.0388 -0.2138 -0.0011
15598W        W31732  15.781  10.970  13.144  0.0339 -0.1688  0.0255
15599W        W31733  11.855   8.824   2.969 -0.2521 -0.0153  0.1148
15600W        W31734  19.293   3.669  13.383 -0.0291 -0.3846  0.0784
15601W        W31735  18.109   6.650   4.430  0.0787  0.0728 -0.3379
15602W        W31736   5.473  17.643  13.197  0.2039 -0.3877 -0.0757
15603W        W31737   6.437   2.692  13.087 -0.0081 -0.0046 -0.2091
15604W        W31738  10.860  10.282   1.490 -0.1924  0.2540  0.3231
15605W        W31739  15.139  16.815   2.378 -0.1652 -0.0469  0.2985
15606W        W31740   8.957  12.161   3.647 -0.2802 -0.2844 -0.2518
15607W        W31741   9.783  12.419  13.596 -0.0993  0.1572 -0.0336
15608W        W31742   6.363   3.464   1.405 -0.0027  0.0141 -0.3962
15609W        W31743   6.438  18.734   5.982 -0.3814 -0.3534  0.4140
15610W        W31744  13.919  14.697   0.644 -0.0742  0.1522  0.3028
15611W        W31745  15.276  16.443  11.861  0.0355 -0.1005 -0.1956
15612W        W31746  11.620   9.724  12.774  0.1418  0.0149 -0.2403
15613W        W31747   8.929  18.352  11.758 -0.0419  0.2329  0.1057
15614W        W31748   9.650   7.095  12.565 -0.1702 -0.0324 -0.1258
15615W        W31749  17.547   5.184  14.245  0.0511 -0.0027  0.1457
15616W        W31750  17.448  18.886  14.960  0.2236 -0.0403 -0.0034
15617W        W31751   9.901  15.511  10.772  0.1074 -0.1910 -0.2020
15618W        W31752  12.029   7.632   1.465  0.0633  0.0208 -0.1036
15619W        W31753  12.294  13.549  10.272 -0.1578  0.0031 -0.0753
15620W        W31754  12.281   4.610   3.322 -0.0820 -0.4126  0.2906
15621W        W31755  18.945  18.951   3.692 -0.0516 -0.2892  0.0127
15622W        W31756   1.737  14.797   2.958  0.2781 -0.3497 -0.2196
15623W        W31757   8.418  10.954  10.416 -0.0828 -0.0901  0.1762
15624W        W31758  17.945   2.518  13.482  0.1564 -0.2851  0.0179
15625W        W31759   7.892  17.173   5.803 -0.4425  0.1173  0.2078
15626W        W31760   8.316   6.397   1.687  0.3114  0.0214  0.0153
15627W        W31761   3.033   1.444   0.682 -0.0945  0.0518 -0.2081
15628W        W31762  12.685  11.674  12.815  0.1996  0.0869  0.1277
15629W        W31763   7.629   8.970   0.940 -0.3282  0.0501 -0.0999
15630W        W31764  13.750   9.394   1.641 -0.0586 -0.0578 -0.0937
15631W        W31765  12.951   4.791  11.937  0.3479 -0.0504  0.0021
15632W        W31766   8.797  16.136   1.832 -0.1742 -0.0860 -0.0704
15633W        W31767   0.302   1.833  12.057 -0.2270  0.1259  0.0193
15634W        W31768  14.805   9.883  13.131 -0.2439 -0.1032 -0.1687
15635W        W31769  17.350  18.146  13.206  0.1087 -0.0122 -0.2424
15636W        W31770   9.705   5.049  14.974 -0.0036 -0.2134  0.0468
15637W        W31771  15.658  10.843   4.923  0.3347 -0.1128  0.1682
15638W        W31772   1.003   9.033  12.796 -0.0268  0.1255 -0.2867
15639W        W31773  17.359  16.820   1.659 -0.0970 -0.3330 -0.4066
15640W        W31774   6.891  12.985   3.482  0.3929 -0.2828  0.0449
15641W        W31775  12.474   4.354  11.403  0.2034 -0.1404 -0.1944
15642W        W31776   4.103  17.482   0.286 -0.1552 -0.2190 -0.2339
15643W        W31777  13.230  16.207   0.286  0.0088 -0.4563  0.0673
15644W        W31778   7.754  18.332   3.294 -0.2426  0.0370 -0.0763
15645W        W31779  12.303  16.174   1.280  0.0155  0.1631 -0.0112
15646W        W31780  16.224   6.682   1.851  0.0885  0.0555  0.0805
15647W        W31781  17.500   5.111  12.189  0.0665 -0.3744 -0.1129
15648W        W31782  11.438   5.132   1.228 -0.1336  0.2599 -0.0110
15649W        W31783  12.749   3.826   5.457 -0.0704  0.0951  0.1928
15650W        W31784   2.283   1.506  13.725 -0.2913  0.0008  0.0763
15651W        W31785  19.223   3.998   2.857  0.1573 -0.2291  0.2456
15652W        W31786   2.347  12.184  11.797 -0.0698  0.5901 -0.1222
15653W        W31787   9.546   0.262   0.992 -0.0681  0.2420  0.0696
15654W        W31788  15.947   8.092  13.871  0.0220  0.1825 -0.1225
15655W        W31789  16.124   9.266   4.979 -0.0301  0.0394  0.0858
15656W        W31790  10.669  14.845  12.399 -0.0603 -0.1351  0.1676
15657W        W31791   9.425   7.033  14.650 -0.2563  0.3239  0.3325
15658W        W31792   4.663   4.695  14.809  0.1999  0.1085 -0.0225
15659W        W31793   3.276  11.156   0.527 -0.0649  0.2101  0.2435
15660W        W31794  17.234  10.583  12.208 -0.0059 -0.0824  0.1885
15661W        W31795   9.333  14.363  10.530  0.1377  0.0963 -0.0028
15662W        W31796  12.342   0.836   4.807 -0.0307  0.2391  0.1400
15663W        W31797   2.000   0.039   1.521  0.1733  0.3308  0.1890
15664W        W31798  11.302   2.331  14.217  0.1528 -0.1489  0.0678
15665W        W31799  12.158  18.873   3.989  0.0687 -0.2344  0.0848
15666W        W31800   7.781  11.525  13.414 -0.1172  0.0555 -0.0676
15667W        W31801  14.090  14.511  14.046 -0.1817  0.2975  0.2284
15668W        W31802  12.130  16.771  14.466 -0.0612  0.2063 -0.0660
15669W        W31803  13.248  18.962  11.347 -0.0181  0.1909  0.0094
15670W        W31804  15.772   0.319   0.011 -0.0867  0.1277 -0.0588
15671W        W31805  13.689  14.767   4.803 -0.0170  0.0572 -0.0091
15672W        W31806  18.251   0.057  12.179 -0.0976  0.1687 -0.1558
15673W        W31807  16.385  11.254  13.430  0.0753 -0.1269  0.0139
15674W        W31808  17.712   2.704  14.099 -0.2172 -0.3584 -0.1406
15675W        W31809  18.120  18.677   4.549  0.0190 -0.3513 -0.3679
15676W        W31810  19.155   9.958  12.855  0.0841  0.1630  0.0652
15677W        W31811   0.103  13.671   3.025  0.0373 -0.1210  0.1443
15678W        W31812  16.939   4.357  14.688 -0.1349 -0.2692  0.1886
15679W        W31813   4.231  13.163   5.365 -0.1859 -0.1868  0.2622
15680W        W31814  12.776  15.309   4.767  0.2014 -0.0902  0.2450
15681W        W31815   1.865  17.019   2.096 -0.2120 -0.0909  0.1159
15682W        W31816   9.438   1.319   3.043  0.1771  0.0004  0.1745
15683W        W31817  12.898   5.346   0.090  0.2084  0.1489 -0.2985
15684W        W31818  11.268  13.040  13.404  0.1165  0.2299  0.4792
15685W        W31819   6.610   5.063  14.805  0.2176 -0.0054 -0.2364
15686W        W31820  10.292   1.569   0.641  0.1792  0.0117  0.1768
15687W        W31821  11.154  13.927   1.750  0.2715  0.4629  0.0555
15688W        W31822   1.698   2.143  10.150  0.1101 -0.1332 -0.0366
15689W        W31823   9.943   4.108  12.564  0.3582 -0.2481  0.1734
15690W        W31824  12.471   9.630   0.537 -0.2240 -0.1577  0.1389
15691W        W31825   2.812   8.812  14.253  0.0004 -0.1942 -0.1114
15692W        W31826   8.455  15.349   1.912  0.1699 -0.2123 -0.1284
15693W        W31827   7.360  12.066  14.811 -0.1158 -0.1527 -0.1079
15694W        W31828  18.788   6.183  13.404  0.1476  0.3701 -0.0099
15695W        W31829  17.263  17.119   1.291  0.0755 -0.1736  0.1650
15696W        W31830  11.679   4.247   0.581  0.3624  0.1597  0.1463
15697W        W31831   7.409  19.136   4.840  0.0383 -0.1073  0.0361
15698W        W31832   1.773  17.961   2.200 -0.2950  0.1478  0.1027
15699W        W31833   0.215  11.318  10.330  0.0620  0.2464 -0.1354
15700W        W31834   6.175   2.501   0.192 -0.1008 -0.1353  0.1131
15701W        W31835  10.305   0.268   0.100  0.0583 -0.1311 -0.2580
15702W        W31836   3.265   2.270   3.452 -0.1181  0.1572 -0.1631
15703W        W31837  11.301  10.425  12.120 -0.2042  0.2242  0.3367
15704W        W31838  14.950   1.247   1.401 -0.1945 -0.2242 -0.0096
15705W        W31839  14.689   5.379  10.608 -0.0756  0.2728  0.0228
15706W        W31840   5.214   6.367   3.803 -0.1750 -0.0116 -0.0982
15707W        W31841   4.372   8.922  12.229 -0.3339  0.2889  0.0513
15708W        W31842   4.808  14.215   0.906  0.0746  0.4263 -0.2990
15709W        W31843  18.322  10.768  13.684 -0.0807  0.0600 -0.2240
15710W        W31844   4.981   0.284   4.688 -0.3075  0.0017  0.2873
15711W        W31845  12.129   4.354   5.045 -0.1529 -0.3096  0.0412
15712W        W31846   2.975   1.903  11.766  0.1779 -0.1375  0.1535
15713W        W31847  17.071   9.463   0.190  0.0686  0.1152 -0.0365
15714W        W31848   4.842  11.734   2.986 -0.2870 -0.3137 -0.2305
15715W        W31849  11.066  16.084   3.534 -0.1624 -0.0569  0.2876
15716W        W31850   6.864   5.887  10.719 -0.0085 -0.1602  0.2159
15717W        W31851  13.348  18.239   4.004 -0.2464 -0.1698 -0.1246
15718W        W31852  15.884   9.846   9.937 -0.0384  0.3099  0.1291
15719W        W31853  16.613   0.121  14.012 -0.0626  0.0560  0.0634
15720W        W31854  13.455   9.551   5.133 -0.0720 -0.0978  0.2896
15721W        W31855  13.731  14.975   4.316 -0.0291  0.2466 -0.1155
15722W        W31856   5.280   6.095   3.275  0.1284  0.0426  0.0759
15723W        W31857  12.583   3.724  12.507  0.0843 -0.2031  0.2951
15724W        W31858  16.282   7.316  12.076 -0.1257 -0.1824  0.0042
15725W        W31859   4.607  16.293  12.952  0.1670 -0.0753 -0.0668
15726W        W31860  13.858   9.959   0.423 -0.4973 -0.0710 -0.2179
15727W        W31861   3.183   1.266   3.971  0.0399  0.2427  0.2235
15728W        W31862  15.939  10.544   0.122 -0.1486 -0.4848 -0.2631
15729W        W31863   8.647  10.237   1.196 -0.2520  0.3047 -0.0834
15730W        W31864   5.360  16.407   1.156 -0.2798  0.3603  0.1482
15731W        W31865  16.177   7.732  11.740 -0.2601 -0.3260  0.1612
15732W        W31866  16.463  18.806   9.320  0.4482 -0.2432  0.1415
15733W        W31867  14.785   7.509   0.424  0.1027  0.0050 -0.1165
15734W        W31868   0.295   1.299  11.698 -0.1446 -0.1592  0.3054
15735W        W31869  16.100   2.905  14.910 -0.0481 -0.1924 -0.0265
15736W        W31870  18.423   9.111  13.763  0.0516  0.0268  0.0100
15737W        W31871   7.882   2.979  14.609  0.1010  0.2352 -0.2707
15738W        W31872   6.605   8.487  15.002 -0.1714  0.1433  0.2020
15739W        W31873   7.293   7.511   4.581 -0.0334  0.0250 -0.0370
15740W        W31874  14.103  10.805  12.400 -0.1743 -0.1651  0.0480
15741W        W31875  10.850   1.728   3.447 -0.0189  0.2501 -0.1955
15742W        W31876  17.109   2.685  10.349 -0.2434 -0.0550 -0.1377
15743W        W31877  18.834   9.287  12.486  0.1859  0.1298 -0.3963
15744W        W31878  14.861   0.002  14.669  0.2151  0.0810 -0.1219
15745W        W31879  11.125   6.153   0.047 -0.0986 -0.3253  0.1730
15746W        W31880   4.374  15.148  10.102 -0.2155  0.0927  0.1980
15747W        W31881   6.465   1.973  14.594  0.1392  0.0562 -0.1012
15748W        W31882   1.723  10.148   1.345 -0.3836  0.0801  0.4074
15749W        W31883   5.413   4.313   4.035 -0.0737  0.1371 -0.2347
15750W        W31884   9.244   4.741  13.020 -0.1897 -0.0471  0.2537
15751W        W31885  15.593   9.034   1.854  0.4185 -0.0765  0.6541
15752W        W31886  17.520  15.485   3.687 -0.0239  0.2915  0.4445
15753W        W31887  17.027  12.133  10.939  0.2492  0.1625 -0.0331
15754W        W31888   1.156   9.285  14.245 -0.0504 -0.2023  0.1269
15755W        W31889  11.201   8.348   4.971 -0.1116  0.1527  0.1583
15756W        W31890  15.216   7.765   0.468  0.2024 -0.2212  0.0774
15757W        W31891  16.259  12.221  14.311 -0.0829  0.0253 -0.0456
15758W        W31892  12.823   9.818   0.959 -0.1225 -0.1389 -0.1558
15759W        W31893  10.311   7.507  12.818  0.0456 -0.0984 -0.1741
15760W        W31894  18.110  10.699   3.788 -0.0906 -0.2478  0.0844
15761W        W31895   2.853   7.902  13.459 -0.3186  0.4391 -0.1362
15762W        W31896   1.484  18.788   1.854 -0.4501 -0.0410  0.0952
15763W        W31897   9.010   1.132  14.210  0.0810 -0.3392  0.1066
15764W        W31898  10.267   8.071  14.961  0.1882  0.3196 -0.0293
15765W        W31899   6.336  19.223   2.497  0.3138 -0.2398  0.0338
15766W        W31900  16.056  18.904  10.513  0.3390  0.0669 -0.0832
15767W        W31901   3.978   0.677  14.058 -0.1444  0.1007 -0.1247
15768W        W31902   9.512  15.050  11.554 -0.0872  0.5009 -0.0363
15769W        W31903  16.137  12.255  10.908 -0.0331 -0.2049 -0.0060
15770W        W31904  11.770   3.959   2.641  0.0355  0.1908 -0.0908
15771W        W31905   2.809   1.012  10.885  0.0061  0.0724 -0.0913
15772W        W31906   9.872   0.266  13.834 -0.4201  0.0209 -0.3892
15773W        W31907  10.653  14.686   2.234 -0.0312  0.0550  0.0046
15774W        W31908   8.942  16.504   1.556  0.2274  0.2174  0.0221
15775W        W31909   2.152   8.533   4.218  0.0408 -0.1671  0.0431
15776W        W31910  11.419  16.250   0.546 -0.1218  0.3628  0.2488
15777W        W31911   4.843   9.385  14.441  0.3415 -0.0029  0.1416
15778W        W31912   2.974  15.496   2.209  0.0467  0.0987 -0.2627
15779W        W31913   5.613  17.752  11.875  0.1817 -0.0603  0.0898
15780W        W31914   8.713   6.109   5.856  0.0012  0.0947 -0.2191
15781W        W31915  15.879   7.116  12.980 -0.1782  0.2270  0.3339
15782W        W31916   8.670   1.824   3.750 -0.1314  0.0936  0.1930
15783W        W31917  15.869  15.191  11.652 -0.3147  0.0501  0.2084
15784W        W31918   8.167  15.951  11.902 -0.1414 -0.1369 -0.0129
15785W        W31919  11.615  15.785   4.053 -0.2483  0.0154 -0.1073
15786W        W31920  11.932  11.207  12.346  0.1315 -0.1053 -0.2662
15787W        W31921   8.469   9.272  14.626  0.0868  0.2175 -0.1834
15788W        W31922  13.573  10.742   3.672 -0.0901 -0.0282  0.1037
15789W        W31923  12.242  13.008  11.903  0.0956 -0.0298 -0.5501
15790W        W31924  17.969   9.657   0.238  0.0382  0.0321  0.3030
15791W        W31925   0.540  16.484  13.750  0.1202 -0.2162  0.0640
15792W        W31926  19.293   8.642  14.666  0.1712 -0.3256  0.0694
15793W        W31927   3.891   6.062   2.845 -0.0065 -0.1840 -0.3260
15794W        W31928   3.713  14.465   2.379 -0.1923 -0.3988  0.0846
15795W        W31929   1.420  16.961  13.558  0.2368 -0.3409  0.1410
15796W        W31930   3.113   6.062   1.439 -0.1401  0.1363 -0.0847
15797W        W31931   3.438  18.906   5.406 -0.1604 -0.0630 -0.1306
15798W        W31932   4.004   7.229  12.360 -0.1147  0.0076  0.1855
15799W        W31933   2.400  15.122   5.205  0.1120  0.0837  0.3133
15800W        W31934  18.982   4.319  14.065  0.2638 -0.1319 -0.2670
15801W        W31935  19.067  16.842   1.682 -0.0800 -0.1539 -0.2161
15802W        W31936   6.327   5.122   9.938  0.0891 -0.3492 -0.1299
15803W        W31937  10.207  13.811   3.941 -0.0996 -0.1691  0.3107
15804W        W31938   0.659   3.659   5.141  0.2958  0.1408 -0.1095
15805W        W31939   5.827  18.818   1.199  0.0666 -0.1945 -0.1559
15806W        W31940  18.450   6.060  12.542 -0.1978 -0.0987  0.0520
15807W        W31941   2.202  12.980  12.893 -0.0879 -0.0561 -0.1163
15808W        W31942  12.422  17.655   9.607 -0.1791  0.2576  0.3627
15809W        W31943  18.006   4.574   3.225 -0.2137  0.3939 -0.2437
15810W        W31944  16.726   4.660   2.306  0.0140  0.0492 -0.1556
15811W        W31945  11.145  16.876   5.144  0.1660  0.0555  0.1591
15812W        W31946  16.537  10.098  14.684 -0.2776 -0.0518 -0.0337
15813W        W31947  18.202   7.699  10.591  0.1954 -0.1251 -0.3888
15814W        W31948  16.496   4.082   9.994 -0.3081 -0.4921 -0.1936
15815W        W31949   4.425  15.475  10.620  0.3280  0.2280 -0.0203
15816W        W31950   3.099   7.872   1.438 -0.0417  0.4105  0.0513
15817W        W31951   2.189   4.678   4.122 -0.0111 -0.2429  0.1571
15818W        W31952  11.964  15.109   4.212 -0.0092 -0.4336  0.0398
15819W        W31953  14.074   6.449  14.062 -0.3580 -0.0786 -0.1688
15820W        W31954   0.305  13.355  13.232  0.0739  0.1002  0.0508
15821W        W31955   1.452   9.819   3.035  0.1445  0.0198  0.1234
15822W        W31956  19.290   5.001  13.854  0.0650 -0.0340  0.3977
15823W        W31957  17.143   6.429  11.454  0.3529  0.0141  0.1183
15824W        W31958   3.279   8.463   0.438  0.1030  0.1273  0.0972
15825W        W31959  15.602  10.860  11.375 -0.0837 -0.1200  0.0441
15826W        W31960  15.082  15.491  11.888  0.1041 -0.2805 -0.2808
15827W        W31961   5.496  15.111   3.692 -0.1332  0.0738  0.1164
15828W        W31962   2.595   5.721   2.503  0.2853  0.2680 -0.0711
15829W        W31963  12.725  16.013  12.066 -0.1793  0.2456  0.1306
15830W        W31964   6.923  10.626  10.594  0.1219  0.0115  0.1059
15831W        W31965   7.689  12.122  10.054 -0.3029 -0.0434 -0.0633
15832W        W31966  16.448   8.663   4.282  0.1365  0.2339  0.2214
15833W        W31967   7.417  17.054  12.396  0.0789 -0.2927  0.0047
15834W        W31968   5.130   0.827  12.511 -0.3860 -0.0361  0.1452
15835W        W31969   4.412  12.987  14.950  0.1184  0.0206 -0.2342
15836W        W31970  18.257  11.820  12.545 -0.1563  0.1558  0.0493
15837W        W31971  17.381   7.862  12.702  0.3005 -0.2703 -0.0320
15838W        W31972  18.112  10.388  12.046  0.5025 -0.1196  0.4328
15839W        W31973   3.992   7.970   0.846 -0.0991  0.1727  0.1924
15840W        W31974   8.596   1.286   1.818  0.0419  0.5778 -0.0513
15841W        W31975   4.197   3.495   2.537  0.0708 -0.4213 -0.6055
15842W        W31976   8.503   6.230  11.528 -0.2163  0.1643  0.0354
15843W        W31977   0.149   5.516   2.215  0.0842  0.0363  0.3585
15844W        W31978  11.030   9.820   0.565 -0.1523  0.2930 -0.0456
15845W        W31979  12.477   1.826  13.968 -0.0172  0.0253 -0.1269
15846W        W31980  14.370   2.456  13.259 -0.0227 -0.1373 -0.2495
15847W        W31981   1.323  10.244   1.684 -0.1438 -0.2227  0.1459
15848W        W31982  16.383  14.492  14.609 -0.0480  0.0202  0.2348
15849W        W31983   6.937  12.825   0.558  0.0743 -0.0550 -0.1040
15850W        W31984   9.559  16.321   3.259  0.3717 -0.1761  0.0612
15851W        W31985   9.272  13.097   9.953 -0.0646 -0.1038  0.2574
15852W        W31986  14.728   1.637   3.135 -0.0678  0.1937  0.0243
15853W        W31987  14.499  12.088   2.825 -0.0945 -0.3691  0.0553
15854W        W31988   0.649   5.159   1.351 -0.3308  0.1612 -0.1225
15855W        W31989  12.987   5.829   3.129  0.2385  0.0404 -0.0517
15856W        W31990   3.297   5.633  12.800  0.0206 -0.2026 -0.0962
15857W        W31991   6.843  11.479  13.918 -0.0360 -0.0115  0.0846
15858W        W31992   4.129   8.743  12.637 -0.1619  0.0574 -0.3889
15859W        W31993  11.468   8.655   5.255  0.2680 -0.0692 -0.0432
15860W        W31994   9.659   9.468   4.482  0.0875 -0.2230 -0.1071
15861W        W31995  12.996  12.747  13.407 -0.0295 -0.0421 -0.0644
15862W        W31996  11.878   0.640   2.476  0.0098 -0.0495 -0.0821
15863W        W31997  12.143   0.914  14.672  0.0553  0.0183  0.2774
15864W        W31998  13.276  18.835   0.340 -0.0340  0.0042  0.0474
15865W        W31999  16.528   2.176   4.369 -0.1161 -0.0763  0.0150
15866W        W32000   8.883  11.721   5.126  0.1121 -0.2502 -0.3623
15867W        W32001   1.525   6.271   5.161 -0.0635  0.1078  0.1568
15868W        W32002  17.786  12.204   5.201  0.2251 -0.0788 -0.0678
15869W        W32003  16.950   0.721   1.026  0.2858  0.0486 -0.0324
15870W        W32004  15.830   1.341   3.653 -0.1004 -0.2217  0.0636
15871W        W32005  18.413  14.005   4.540 -0.1074  0.0258  0.4023
15872W        W32006  16.141  14.136   3.186  0.1439  0.1344 -0.0342
15873W        W32007   9.231  18.011   1.264  0.4140  0.2142 -0.0505
15874W        W32008   7.050   0.371  13.027  0.0973 -0.1299  0.0555
15875W        W32009  14.779   8.994   2.004 -0.0037  0.2474 -0.0678
15876W        W32010   7.625  15.035  11.715  0.2906  0.0636 -0.3891
15877W        W32011  10.693   8.295   4.464 -0.2575 -0.4078 -0.2338
15878W        W32012  14.882   0.057  11.162 -0.0053  0.1459  0.1071
15879W        W32013  10.757  17.082   0.669 -0.3353 -0.0137 -0.2390
15880W        W32014   9.740  11.395   4.534  0.0099  0.1563  0.1567
15881W        W32015  14.777  16.200  10.128  0.1640 -0.0898 -0.1593
15882W        W32016   2.523   2.482  14.445  0.3783  0.1401  0.2883
15883W        W32017   4.187  11.370  12.169 -0.1755 -0.0185 -0.1845
15884W        W32018   2.475  17.575   2.571 -0.2774  0.1936 -0.1842
15885W        W32019  12.020   9.026  13.978 -0.0900 -0.0994  0.0505
15886W        W32020   7.479   5.676  14.240 -0.1063 -0.2460  0.2809
15887W        W32021   1.420  18.442  14.684  0.2539  0.0296  0.0832
15888W        W32022  17.339   0.564  13.065  0.2005  0.0052  0.2171
15889W        W32023   7.914   3.334   3.522 -0.3052  0.3462  0.1160
15890W        W32024  11.277   0.349  14.853  0.3058 -0.0333  0.2452
15891W        W32025  10.737  14.261   1.398 -0.0343 -0.0715 -0.4723
15892W        W32026  15.044  10.932   2.642 -0.0540 -0.1944  0.2775
15893W        W32027  12.306  18.212  12.527 -0.0167 -0.0724 -0.0142
15894W        W32028  11.988  15.863   5.073 -0.0269  0.0922  0.0563
15895W        W32029  12.158   9.428  11.206  0.1072 -0.2068 -0.0630
15896W        W32030   7.629   1.587  11.400 -0.0845 -0.3579  0.2963
15897W        W32031  14.942  15.353  14.663 -0.0413  0.0249 -0.2689
15898W        W32032  12.985   2.295   2.597  0.0139 -0.0375  0.0176
15899W        W32033  18.932  10.993  11.130 -0.3198 -0.0620 -0.3711
15900W        W32034   2.211  18.190  13.351  0.3739 -0.0233  0.1774
15901W        W32035   7.581  14.355   1.879  0.1164  0.0011  0.3650
15902W        W32036  16.523  10.998  10.270 -0.1437  0.1478  0.0273
15903W        W32037   0.972  10.668  12.301  0.5605  0.0643  0.1510
15904W        W32038   4.263  14.972   1.566 -0.1887 -0.1654 -0.0558
15905W        W32039  10.690   9.053   5.035  0.2094  0.0895 -0.0460
15906W        W32040   3.494  11.381   4.676 -0.0699 -0.1414  0.3121
15907W        W32041   8.354  14.281   3.175  0.0809 -0.2105  0.4133
15908W        W32042   6.798   7.314   3.234 -0.1196 -0.2232 -0.3222
15909W        W32043   7.253   2.981  13.931  0.1348  0.0452  0.1664
15910W        W32044   9.288   0.292  13.685  0.1393  0.1233  0.4168
15911W        W32045  18.138   7.028   9.321 -0.0785 -0.2269  0.1195
15912W        W32046  11.577  12.145  13.654 -0.2462 -0.1140 -0.0300
15913W        W32047   4.717  16.118  12.482 -0.2293  0.3613 -0.1756
15914W        W32048   9.022  15.716  10.634 -0.0558 -0.0414 -0.1805
15915W        W32049  10.700  13.532   0.918  0.2328 -0.3390 -0.0162
15916W        W32050   5.070  19.214   3.737 -0.0790 -0.1439 -0.0804
15917W        W32051  12.809  10.900   1.151  0.1476  0.0920 -0.2525
15918W        W32052   1.722   7.818   0.611  0.0078 -0.0547  0.0166
15919W        W32053  18.776  17.238  10.957 -0.0905 -0.5655 -0.2020
15920W        W32054  14.435  17.464  13.173  0.0068 -0.1930 -0.3099
15921W        W32055   4.795   9.159  12.217 -0.1733 -0.1847 -0.0369
15922W        W32056   9.053   5.140  10.662  0.2109 -0.0420  0.1087
15923W        W32057   5.217  15.165   9.960  0.3029 -0.1177 -0.4133
15924W        W32058   1.370   7.336  13.952 -0.1287 -0.2348 -0.1196
15925W        W32059  18.438   5.974   0.205  0.2098  0.0465 -0.0667
15926W        W32060   4.736   5.411   4.511 -0.0376 -0.2022  0.0588
15927W        W32061  12.327  13.978   3.680  0.3470 -0.0008 -0.1764
15928W        W32062  12.910  10.266  12.924 -0.0769  0.5832 -0.0281
15929W        W32063   9.927  19.288   0.133 -0.2235  0.3419 -0.3809
15930W        W32064  12.043  12.147  11.646 -0.1789 -0.2459  0.1522
15931W        W32065   6.743   0.486  11.533  0.1988  0.1890 -0.1339
15932W        W32066   1.242  12.510  13.786  0.1125  0.0922 -0.1683
15933W        W32067  14.647   4.302  12.276  0.2550  0.0477  0.0642
15934W        W32068   6.881   2.750  12.882 -0.0298 -0.0297  0.1915
15935W        W32069   5.243  12.683   2.847 -0.4751 -0.0610 -0.2210
15936W        W32070  11.865  14.352   2.914 -0.0311  0.0324  0.2042
15937W        W32071   8.309   7.502  10.860 -0.1790  0.2285  0.3317
15938W        W32072   9.825   2.703  12.267 -0.0837  0.1946 -0.0261
15939W        W32073  14.243  14.501  12.991  0.1807 -0.1309  0.0801
15940W        W32074  14.817   0.854   0.375  0.0620 -0.0552 -0.1793
15941W        W32075   5.280  11.571  10.040  0.2082  0.0461  0.3730
15942W        W32076   3.324   7.305  14.594  0.0585 -0.0698  0.0385
15943W        W32077  18.931   8.297   5.392  0.0138  0.1271 -0.0813
15944W        W32078  13.758  17.388   5.258 -0.2426 -0.0167 -0.0245
15945W        W32079   9.922  19.150  14.674  0.1221 -0.2529 -0.0522
15946W        W32080  18.439   0.523  12.088 -0.1958 -0.0943 -0.0583
15947W        W32081  15.268   8.223   2.024  0.1396  0.1941 -0.2373
15948W        W32082   3.059   1.917  13.809  0.4317  0.0989 -0.0384
15949W        W32083  13.250   1.717   1.716  0.2756 -0.0644  0.1620
15950W        W32084   1.355   5.493  12.644 -0.3512  0.0233 -0.1854
15951W        W32085   0.298  16.076   3.160  0.0975 -0.2256 -0.4380
15952W        W32086  17.467  11.083   2.836 -0.1331 -0.0847  0.7479
15953W        W32087  18.126   8.665  13.060  0.2034 -0.1541 -0.0392
15954W        W32088   5.811   7.787   0.918  0.0684  0.4326  0.1022
15955W        W32089   2.251  16.032   0.366  0.0083 -0.1323  0.1967
15956W        W32090  13.870  10.388   0.135 -0.0646 -0.4248  0.1688
15957W        W32091  14.547   3.937  12.626 -0.0701  0.1079  0.2230
15958W        W32092   3.397   8.626  11.927 -0.0812 -0.0106  0.0408
15959W        W32093   6.827   0.698   2.430  0.4414  0.0011 -0.1243
15960W        W32094  10.872   5.819  13.630  0.0789 -0.3296  0.1503
15961W        W32095  12.134  18.834  12.019 -0.2393 -0.3711  0.0249
15962W        W32096   3.520  12.637   0.242  0.0470  0.0105 -0.1016
15963W        W32097  10.356  16.112  12.553 -0.1249  0.1234  0.0870
15964W        W32098   3.926   5.996   9.885 -0.3224  0.1296 -0.0617
15965W        W32099  12.726  15.921  11.207  0.2393 -0.1023  0.0220
15966W        W32100  13.220  18.236   0.745 -0.1481  0.1614 -0.1495
15967W        W32101  12.614  11.012  12.636  0.0535 -0.1228  0.0312
15968W        W32102  13.436  11.954  13.600  0.1090 -0.1910 -0.2242
15969W        W32103  10.894  11.236   2.948  0.1970 -0.1265  0.0986
15970W        W32104  17.523  18.851   1.569 -0.0134  0.1497  0.3740
15971W        W32105  13.951   2.372  11.870 -0.2170 -0.0336  0.0228
15972W        W32106   9.734  15.826  11.317 -0.2694 -0.0000  0.2221
15973W        W32107  16.220  15.004   4.158  0.0178 -0.0804  0.2956
15974W        W32108  12.250   2.024   3.630 -0.0572 -0.0448  0.0827
15975W        W32109  19.172   7.040  14.793  0.2128  0.1384 -0.4343
15976W        W32110   1.931   5.681  14.780  0.0755  0.1349  0.1390
15977W        W32111  15.568   5.274   0.403  0.1735  0.0369  0.1726
15978W        W32112   4.470  10.512   0.921 -0.1292 -0.3377 -0.0170
15979W        W32113  14.750  18.278   1.866 -0.1474 -0.2234  0.4231
15980W        W32114   7.660  15.184  10.253  0.1394 -0.1486 -0.0254
15981W        W32115   9.071   9.700  10.304  0.2324  0.1272  0.2066
15982W        W32116   8.623  18.681   4.917  0.1269 -0.0615  0.1068
15983W        W32117   9.390  10.558  14.237  0.1429 -0.0347 -0.0145
15984W        W32118  15.203  12.780   3.866 -0.1282  0.0761  0.3060
15985W        W32119   6.067   2.221   4.685 -0.3242 -0.5655 -0.0213
15986W        W32120   0.955  15.204   3.952 -0.4143 -0.0267  0.0883
15987W        W32121   7.421   2.571   4.307  0.0984 -0.0895 -0.1109
15988W        W32122   4.394  15.241   0.899  0.1141  0.1548  0.0932
15989W        W32123  14.759   1.660  13.156 -0.0183  0.0193  0.0979
15990W        W32124   0.813   4.865  14.445 -0.1396  0.1471 -0.3628
15991W        W32125   6.043   9.991   3.172 -0.1075 -0.0199  0.0734
15992W        W32126  17.728   2.648   4.992 -0.1865  0.1729  0.2215
15993W        W32127  17.538   0.684   5.064 -0.4410 -0.2394  0.0665
15994W        W32128  17.029   9.602  10.648 -0.1484 -0.3370 -0.0789
15995W        W32129   0.224  17.521   3.385 -0.2724 -0.1673  0.0999
15996W        W32130   2.134   6.822  13.229  0.1395  0.0809 -0.0832
15997W        W32131   6.815  16.411   0.614 -0.2058  0.3104 -0.4991
15998W        W32132  12.073   6.303   0.305  0.1820  0.2532 -0.3070
15999W        W32133  10.873  11.796   1.094  0.0223 -0.3051 -0.0512
16000W        W32134   7.801   3.823  13.142  0.2117  0.0681  0.0826
16001W        W32135   7.700   2.720   1.010 -0.1888 -0.1190  0.1290
16002W        W32136  10.625   2.885  12.088 -0.4148  0.1230 -0.1026
16003W        W32137  14.327  10.691  11.570  0.0865  0.1812 -0.3489
16004W        W32138  16.538  13.468   4.008  0.2283  0.0311  0.2210
16005W        W32139   2.540   2.661   9.132  0.0260 -0.0847 -0.0461
16006W        W32140  15.522  17.615  14.173  0.2786  0.0035 -0.0319
16007W        W32141   6.952  14.477  12.988  0.0485  0.4255  0.1373
16008W        W32142   2.831   1.524   4.477  0.0482  0.1912 -0.3638
16009W        W32143   7.784  14.484   4.049 -0.0798  0.1596 -0.0855
16010W        W32144   2.178   7.047  12.722 -0.0813 -0.0734  0.0529
16011W        W32145  15.350   6.342  12.757  0.0986  0.0813  0.0781
16012W        W32146  15.834  10.281   4.096  0.1376 -0.3495 -0.5450
16013W        W32147  18.838  18.426   0.602 -0.2201 -0.1100 -0.0740
16014W        W32148  10.496   4.143   4.507  0.0766  0.0197 -0.1874
16015W        W32149   4.086   2.657  10.950  0.3565 -0.0939  0.2774
16016W        W32150   8.311  18.390  13.979  0.0076 -0.5676 -0.0337
16017W        W32151  10.909   4.006   5.265  0.2363  0.2721  0.0779
16018W        W32152  14.078   1.244  12.254 -0.0146 -0.0098 -0.0496
16019W        W32153  17.281   3.696  10.590 -0.2232  0.3265 -0.0149
16020W        W32154   6.770   1.726  11.408 -0.1021 -0.1432 -0.1894
16021W        W32155  18.678   1.256  10.082  0.0318 -0.2277  0.3494
16022W        W32156   8.957  16.785  13.325 -0.2469 -0.0942 -0.0555
16023W        W32157  12.948  15.712   5.667  0.1380  0.1137 -0.0830
16024W        W32158  19.105   1.784   4.167 -0.1442  0.0239 -0.4695
16025W        W32159   6.873  15.356   1.320 -0.1151  0.3700  0.0614
16026W        W32160   8.838  18.241   4.828 -0.1857 -0.1393  0.3872
16027W        W32161  19.151  18.711  13.885 -0.1850 -0.1803  0.1673
16028W        W32162   0.329  13.392  14.092 -0.3088 -0.3307 -0.2025
16029W        W32163  15.293  14.339   2.194  0.2970  0.0119  0.0611
16030W        W32164  11.353   1.855   4.600  0.2793 -0.3106 -0.1473
16031W        W32165   8.558  18.271  14.425 -0.0851  0.0960  0.2589
16032W        W32166   2.277  13.380   4.650  0.1064  0.0878  0.1949
16033W        W32167   4.887   8.514  13.998  0.0621 -0.1482 -0.0045
16034W        W32168  11.392  13.350   1.872  0.1270  0.0570  0.0798
16035W        W32169   4.741   2.975   3.832  0.1680 -0.3130 -0.1921
16036W        W32170  15.092  13.271   1.531 -0.1254 -0.1452 -0.2707
16037W        W32171  13.762  12.070   3.830  0.0983 -0.0061 -0.0599
16038W        W32172  13.487   2.949   3.211  0.3788 -0.1096  0.0984
16039W        W32173   2.080   1.996  11.504 -0.0616  0.2185  0.1491
16040W        W32174  18.167  11.969   1.522  0.0763  0.1014  0.3393
16041W        W32175   5.680   8.240  12.571  0.1670  0.0087  0.0889
16042W        W32176   3.254  13.463  12.228 -0.0583 -0.0156 -0.0903
16043W        W32177  12.663   0.448   4.945  0.0101  0.0372 -0.1401
16044W        W32178   9.816  10.466   5.529 -0.0198 -0.4853  0.0489
16045W        W32179  17.884  18.490   1.655 -0.0482  0.2535  0.2676
16046W        W32180   4.904   5.067  11.088  0.1276  0.3153  0.0167
16047W        W32181   8.413   3.189   9.946 -0.2673 -0.1603  0.1569
16048W        W32182  10.852   8.517   1.358  0.0239 -0.0466  0.1502
16049W        W32183   5.675  12.447  11.988 -0.3431  0.4308  0.0565
16050W        W32184  18.956   7.006   1.140  0.3007  0.2914  0.2357
16051W        W32185   6.213  11.943  13.842  0.1251  0.2814  0.2688
16052W        W32186   5.041   8.459   4.970  0.0570  0.4848  0.0401
16053W        W32187   4.206  17.508  14.795  0.0697  0.1804  0.0865
16054W        W32188  12.532   3.373  13.886  0.0251  0.0626  0.0110
16055W        W32189   7.843   5.810  13.702 -0.2128  0.1960  0.1287
16056W        W32190   3.377  12.455  11.934  0.1239  0.0742  0.2933
16057W        W32191  10.996  12.618  12.589 -0.2009  0.2087 -0.1948
16058W        W32192   5.369   8.043   0.281 -0.0940  0.0340  0.3023
16059W        W32193  10.929   5.199  13.209  0.0064 -0.1640  0.0111
16060W        W32194  18.809  13.971  13.720 -0.3377 -0.0303  0.0165
16061W        W32195  14.412  16.589  14.826  0.1034  0.1868  0.2625
16062W        W32196  11.788   6.160   4.419  0.0449 -0.2499 -0.1854
16063W        W32197   4.844   2.413   4.011  0.0768  0.3091  0.2865
16064W        W32198   0.055   6.392  10.142  0.3673 -0.5929 -0.0828
16065W        W32199   2.242  17.249   1.159 -0.1443  0.0093  0.2112
16066W        W32200   0.716  14.189   3.819 -0.3810 -0.3318 -0.1135
16067W        W32201   1.842   4.903   1.381 -0.0724  0.1629 -0.1966
16068W        W32202   2.010   6.665  10.463  0.1377  0.1049  0.0438
16069W        W32203  17.542  10.996  11.342 -0.2099  0.5192  0.1792
16070W        W32204   3.737  11.372   1.525  0.0056  0.0342  0.1079
16071W        W32205  13.831  18.205   3.832 -0.0705  0.0960 -0.0729
16072W        W32206  13.026  11.024   4.352  0.1883  0.0050  0.0662
16073W        W32207  14.171  13.031   2.380 -0.4051  0.1016  0.1949
16074W        W32208   0.916  15.982   5.033 -0.1423 -0.1537  0.0945
16075W        W32209  19.001  18.150   3.821 -0.1076 -0.0818  0.1091
16076W        W32210  12.773   1.312   3.069  0.0123 -0.0210 -0.1466
16077W        W32211   0.204  17.740   1.612  0.0155 -0.1303  0.2990
16078W        W32212  18.558   1.278   1.701 -0.0367  0.0879  0.2054
16079W        W32213  11.252   6.802  14.391 -0.3052  0.0694  0.1274
16080W        W32214  14.441   3.391   0.635 -0.3237 -0.2193  0.2355
16081W        W32215   9.309   4.610  14.131  0.1078 -0.3076 -0.0188
16082W        W32216  17.504  12.449  12.402  0.0475 -0.0323 -0.2706
16083W        W32217   3.961  11.013  14.463 -0.1042 -0.2860  0.0259
16084W        W32218   6.301   2.922  12.011  0.1165 -0.3772 -0.1599
16085W        W32219   8.706   8.241  10.608 -0.0974  0.0740 -0.4233
16086W        W32220   2.683  18.068  14.515 -0.3068 -0.0671  0.0542
16087W        W32221   2.097  12.642  12.411  0.0416  0.2026  0.1023
16088W        W32222  14.902   1.066   2.947 -0.1229  0.0243  0.0423
16089W        W32223   6.723   7.751  13.279 -0.1447  0.1715  0.0815
16090W        W32224   7.010   0.829  13.230  0.0019 -0.1997  0.0689
16091W        W32225   3.579   9.727  14.097  0.0313  0.1308  0.2660
16092W        W32226  10.259   0.243  14.596 -0.0589 -0.3025  0.0744
16093W        W32227  18.306  15.303  11.453  0.2168 -0.3886  0.0205
16094W        W32228   9.219  10.257  12.103 -0.0168  0.1335 -0.2585
16095W        W32229   3.263  19.289   3.519 -0.4003  0.1302 -0.2649
16096W        W32230  17.021   0.519   9.939  0.0756  0.1815  0.2954
16097W        W32231  10.663   9.619   2.256 -0.4897 -0.1941  0.1667
16098W        W32232  10.671  13.020   1.974  0.0232  0.0621  0.1208
16099W        W32233  11.827   6.184   3.929  0.0803 -0.0749 -0.0589
16100W        W32234   0.559  12.680   4.538  0.0976 -0.0559  0.1191
16101W        W32235  19.028   8.057   1.967  0.0329  0.1133 -0.2556
16102W        W32236   7.394  11.265   4.040 -0.1443  0.2340  0.0306
16103W        W32237  17.937  11.835   4.323 -0.1600 -0.3408 -0.2357
16104W        W32238  11.186  18.432  14.631 -0.0594  0.2686  0.1887
16105W        W32239   3.587   7.866   0.530 -0.1674  0.1563 -0.1502
16106W        W32240  12.094   2.310  12.799 -0.1296 -0.1126 -0.0891
16107W        W32241  17.790  18.073   1.959 -0.2450  0.0453  0.1260
16108W        W32242  12.191  17.841   2.582 -0.2948  0.1888  0.3210
16109W        W32243   4.325  16.675  11.794 -0.0882  0.1038  0.0909
16110W        W32244  14.501   1.485   0.635  0.0976  0.0319 -0.3025
16111W        W32245  11.102  11.681  10.907 -0.2398 -0.0112 -0.1109
16112W        W32246  15.350  16.147  13.680  0.2051  0.0995  0.0676
16113W        W32247  14.814   3.215  12.996 -0.1498  0.1049 -0.1347
16114W        W32248  15.941   3.012   2.251 -0.0447 -0.2826 -0.3654
16115W        W32249  15.359   1.121  12.297 -0.5743  0.1208 -0.0578
16116W        W32250  12.086  15.353   2.914 -0.1220  0.1754 -0.1430
16117W        W32251  12.143  17.334  13.055 -0.4009  0.0764  0.3778
16118W        W32252   3.709   5.175  14.829 -0.0825 -0.0469 -0.0767
16119W        W32253   2.119   4.156  10.744  0.3637 -0.3599  0.0876
16120W        W32254   5.011   1.890   0.736  0.0310 -0.1978 -0.0945
16121W        W32255   1.671   4.313   1.342  0.0297  0.0657 -0.1264
16122W        W32256  11.183   4.408  13.599  0.3832 -0.1001 -0.2185
16123W        W32257  13.715   6.049   3.810  0.2307  0.2904 -0.2012
16124W        W32258  17.127   0.160  10.840 -0.0400  0.0934  0.1123
16125W        W32259   1.148   7.550  12.296 -0.2320 -0.0407 -0.1464
16126W        W32260   7.338  10.771  13.493 -0.3047 -0.1609  0.5059
16127W        W32261  11.636   9.913   1.936  0.2443  0.0287  0.0084
16128W        W32262   3.074   8.772   3.418 -0.0282 -0.1908 -0.2817
16129W        W32263   9.223   2.872  12.836  0.2534 -0.0803 -0.1075
16130W        W32264   3.565  13.578   0.796 -0.4712  0.0979 -0.2865
16131W        W32265   4.999   3.494  11.000  0.0173  0.2676  0.0207
16132W        W32266  14.520  13.062  13.766  0.4924 -0.1108  0.1126
16133W        W32267   0.072   4.136  14.343  0.2572  0.2431  0.0820
16134W        W32268  14.299   9.142  14.066 -0.1303 -0.1288  0.1034
16135W        W32269   5.723   5.406  11.787  0.1415  0.3199 -0.0637
16136W        W32270   4.646   2.712   2.551 -0.4018 -0.0256 -0.1263
16137W        W32271   7.938   9.831   0.561 -0.2887 -0.1158  0.0930
16138W        W32272  16.187  18.872   4.083 -0.1070  0.0936 -0.2859
16139W        W32273  15.929  11.442  13.994 -0.2092 -0.1541 -0.0080
16140W        W32274  18.415  15.498  12.522 -0.0368 -0.1669  0.2078
16141W        W32275  17.335  13.047  10.724 -0.1850  0.1300  0.0760
16142W        W32276   3.401  10.646   1.434  0.2376 -0.0329 -0.0871
16143W        W32277   4.599  15.247  12.925  0.1658 -0.0170  0.1289
16144W        W32278  19.239  12.380  11.128 -0.1769  0.4577 -0.1494
16145W        W32279   3.775  16.727   0.214  0.0064  0.0245 -0.1879
16146W        W32280   0.767  15.689   4.583  0.1844 -0.1697 -0.2295
16147W        W32281   6.269   3.869   4.319  0.3446  0.0550 -0.0032
16148W        W32282  10.104  17.241  13.698  0.1026 -0.1937  0.1202
16149W        W32283   1.988   7.965   1.116  0.1988  0.1379 -0.2449
16150W        W32284  16.214  12.301   2.099 -0.0603 -0.1476  0.3839
16151W        W32285   7.546   8.315  14.616 -0.0687  0.3004 -0.2910
16152W        W32286   3.024   6.347   1.013 -0.0473 -0.1292 -0.2516
16153W        W32287  10.298  15.247   1.724 -0.1355 -0.1934 -0.1411
16154W        W32288   2.803   3.749  14.180  0.3697 -0.0380  0.0341
16155W        W32289   9.141   8.434  10.769 -0.2416  0.3731 -0.4040
16156W        W32290   4.828   2.980  14.785  0.1516 -0.0625  0.1046
16157W        W32291   8.511  10.395   0.300 -0.4391  0.1891  0.1164
16158W        W32292   5.689  10.374  10.238 -0.1822  0.1459  0.0613
16159W        W32293  11.280  12.441  10.747  0.0343 -0.0720  0.0402
16160W        W32294  10.237   1.410   3.849 -0.0842  0.0950  0.0934
16161W        W32295  13.402   3.472   3.456  0.2325 -0.0857  0.0571
16162W        W32296  11.904   4.006  13.820 -0.2567  0.0340 -0.0061
16163W        W32297   8.577   7.185   4.369  0.0431  0.1165 -0.1499
16164W        W32298  11.971  14.872  14.024 -0.2091 -0.1143  0.1916
16165W        W32299  17.095   9.482  12.130  0.2770  0.1986  0.1428
16166W        W32300  16.713  14.860  10.451 -0.0506  0.3249 -0.1517
16167W        W32301  15.078  10.039   3.807 -0.5325  0.0128 -0.0007
16168W        W32302   3.853  19.018  11.390 -0.0186 -0.0359 -0.1615
16169W        W32303   3.997   7.522   0.570  0.1221 -0.1642 -0.2452
16170W        W32304   4.793  13.674   3.730 -0.0151  0.2981  0.2190
16171W        W32305  15.700   5.174   0.940 -0.0983  0.2709 -0.0455
16172W        W32306   3.413  12.816   2.369  0.2202  0.1778  0.0973
16173W        W32307  16.109   2.261  14.181 -0.0673  0.3956  0.2914
16174W        W32308  15.655  19.079   3.092 -0.1469  0.0270 -0.0360
16175W        W32309  16.371  19.017  11.122 -0.2808 -0.4149  0.0237
16176W        W32310   1.130   4.893  10.154 -0.0769  0.1692 -0.3912
16177W        W32311   8.656   8.546   4.509 -0.0305  0.0994  0.0310
16178W        W32312   9.005   0.943   3.188  0.2654 -0.1572  0.0180
16179W        W32313  16.677  10.286  11.604  0.1818 -0.2812 -0.1046
16180W        W32314   8.072   0.700   0.744 -0.3404  0.1771 -0.1255
16181W        W32315   6.721  10.759   4.630  0.0460 -0.3466  0.0709
16182W        W32316   3.004  10.407  14.218 -0.0379 -0.3636  0.0605
16183W        W32317   0.293   8.445   2.383 -0.3027  0.0276  0.4434
16184W        W32318  15.465  13.017   2.482  0.1741  0.2542  0.1405
16185W        W32319   5.336   9.992  12.942 -0.1708  0.2120 -0.1923
16186W        W32320   6.081   0.382  13.075  0.1795  0.3611 -0.0194
16187W        W32321  17.576   3.718   2.921  0.0068  0.0527 -0.0066
16188W        W32322  12.140  19.045  10.987  0.4839  0.2192  0.3558
16189W        W32323   4.032   9.238   1.406  0.1501 -0.4045  0.0651
16190W        W32324   3.720  18.906   1.076  0.0107  0.0113  0.2567
16191W        W32325   8.444  14.412  11.244  0.0030  0.0156 -0.0936
16192W        W32326  13.179   7.498  13.410 -0.0805  0.0684 -0.1223
16193W        W32327   0.625   5.571  12.086  0.2791 -0.2168 -0.1412
16194W        W32328  18.818  11.766  13.547  0.1254 -0.1687  0.1956
16195W        W32329   6.438  12.591   2.795  0.2349 -0.0296  0.0307
16196W        W32330   3.972  16.516   5.390 -0.2741  0.0583  0.0245
16197W        W32331  13.926   2.326   4.240 -0.1038  0.2692  0.2968
16198W        W32332   1.400  19.218  11.169  0.0062  0.0343 -0.2211
16199W        W32333  10.315   4.190  13.698  0.0426 -0.2247 -0.1836
16200W        W32334  19.324  13.388   0.353 -0.1209 -0.0072 -0.1968
16201W        W32335  14.269   0.997  14.689 -0.0986 -0.1263  0.1807
16202W        W32336  16.305  11.450   2.382  0.1545  0.2110 -0.1675
16203W        W32337  14.631   9.837   0.679 -0.0987  0.1884  0.1452
16204W        W32338  16.625   7.265  10.513  0.0793  0.0084 -0.0385
16205W        W32339   1.923  17.331   4.920  0.2533 -0.0377 -0.0799
16206W        W32340   1.109  13.296   0.435 -0.1705 -0.5272 -0.1601
16207W        W32341  12.527   1.976   5.393 -0.1104  0.0033 -0.1825
16208W        W32342  17.176  14.073   3.036 -0.0595  0.2156 -0.1403
16209W        W32343   4.096   1.033   3.875  0.0888  0.1574  0.0542
16210W        W32344  16.677   7.136   4.583  0.4880  0.4202 -0.0003
16211W        W32345   3.733   2.212   3.268 -0.1234  0.1289 -0.0811
16212W        W32346  11.028   8.266   3.673 -0.0026 -0.0700 -0.0703
16213W        W32347   4.660   6.261  13.471  0.2528 -0.0194  0.1710
16214W        W32348   0.805  12.876  14.608  0.3091  0.1833  0.0152
16215W        W32349  16.324  17.833   9.344 -0.1842  0.0725  0.0144
16216W        W32350   3.380  11.250  13.110  0.1592 -0.0723 -0.1218
16217W        W32351   3.649   1.912  10.870  0.1995 -0.2336 -0.1405
16218W        W32352  17.776   3.312   2.450 -0.1929  0.2370  0.0631
16219W        W32353  13.032  15.962   4.175  0.2359  0.1618 -0.0445
16220W        W32354  11.551  15.562  10.981 -0.2403  0.0781  0.2819
16221W        W32355  15.581   6.990  12.511  0.2416  0.0572  0.1102
16222W        W32356   6.548   2.992  11.569  0.1259 -0.2434 -0.0233
16223W        W32357   1.165   2.448   2.572 -0.3314 -0.1085 -0.1737
16224W        W32358   9.550  12.597   0.110  0.2169 -0.1820  0.3363
16225W        W32359   7.104  15.740   0.865  0.2406  0.1141 -0.2610
16226W        W32360  13.941  13.004   3.438 -0.1927 -0.1937  0.0012
16227W        W32361   1.260  16.855   5.279 -0.0661 -0.1031 -0.0807
16228W        W32362  12.494  12.036   3.963  0.1005  0.0336  0.1344
16229W        W32363   3.809   2.228  13.171 -0.1446  0.0134 -0.0936
16230W        W32364  16.034  14.501  11.584  0.1423  0.1268 -0.1407
16231W        W32365  18.026  17.367   9.961 -0.2717  0.3126  0.0630
16232W        W32366   7.402   4.115  11.280  0.0076 -0.1020 -0.2342
16233W        W32367   5.549  15.534   2.273  0.3419  0.1611 -0.1813
16234W        W32368  14.383   6.428   2.624  0.1042  0.2055  0.0525
16235W        W32369   8.933  10.937  13.399  0.1293  0.0139  0.0488
16236W        W32370  14.606  16.084   2.723 -0.0134 -0.3395 -0.0514
16237W        W32371   4.005   1.612  14.062 -0.2106 -0.3154 -0.1550
16238W        W32372  10.964  15.973   3.039  0.2283 -0.2665 -0.0757
16239W        W32373  13.052   7.006   1.378 -0.1263  0.0426 -0.1127
16240W        W32374  17.141   9.377  13.436 -0.1820  0.0785 -0.1773
16241W        W32375   7.275  15.302  14.618 -0.1732  0.1372  0.1616
16242W        W32376   5.039  12.134   2.730  0.0510 -0.1868  0.3890
16243W        W32377  18.917   1.739   2.380 -0.1243  0.1418 -0.3712
16244W        W32378  17.335   1.609   0.268 -0.0554  0.1840 -0.3514
16245W        W32379  13.193  12.020  12.164  0.2305 -0.0612  0.0070
16246W        W32380  13.208  10.498  13.868 -0.1344  0.1653  0.3208
16247W        W32381   2.586  12.189  14.971 -0.3661 -0.1234 -0.1936
16248W        W32382  18.598  15.722  14.182 -0.0335  0.2353  0.0905
16249W        W32383  11.730   7.355  10.782  0.0589 -0.0614 -0.0742
16250W        W32384  12.116   8.348  10.640  0.0796 -0.0591 -0.0038
16251W        W32385  17.256  14.242   4.003 -0.2863 -0.1990 -0.1308
16252W        W32386  16.084   5.443   1.855  0.1000 -0.1286  0.3348
16253W        W32387  16.127   8.917   1.132 -0.1884 -0.2340 -0.1833
16254W        W32388  16.897  10.425   2.471 -0.4433  0.2322  0.0184
16255W        W32389   8.301   9.614  14.371 -0.1523 -0.3643  0.3787
16256W        W32390  10.433  14.728   0.940  0.1992  0.0953  0.0021
16257W        W32391   5.447   8.360  12.078 -0.2414 -0.2277  0.2628
16258W        W32392  10.220   5.856  11.901 -0.1441 -0.1412  0.3461
16259W        W32393  16.302  14.138  14.917 -0.0266  0.1215 -0.1211
16260W        W32394  12.018  11.603   4.680  0.0587  0.1057 -0.0531
16261W        W32395  15.376   5.561   0.745  0.0015  0.4037 -0.1977
16262W        W32396   2.284   4.717  13.473  0.1480 -0.0369 -0.0799
16263W        W32397  16.773  18.235  12.761  0.0212 -0.0012  0.3394
16264W        W32398  18.908   5.135   3.279 -0.1655  0.0682  0.3525
16265W        W32399   1.116   3.676   9.770 -0.3230  0.3085 -0.1874
16266W        W32400   0.296   3.728   2.599  0.1691 -0.1438 -0.1067
16267W        W32401   6.816   3.231   1.320 -0.1533 -0.0553 -0.3362
16268W        W32402  14.815   6.326  14.506 -0.0745 -0.0102  0.2236
16269W        W32403   6.040   1.877  11.812  0.2036  0.2217 -0.0654
16270W        W32404   0.746   5.831   0.828  0.1116  0.2251 -0.0771
16271W        W32405   1.603  18.491  13.738  0.0841  0.0601 -0.0255
16272W        W32406   1.128   3.471  14.178  0.3576  0.0454 -0.1183
16273W        W32407  18.716   4.139   3.637  0.0048 -0.0276  0.2916
16274W        W32408  12.271   1.766   5.008  0.0409  0.1955  0.3339
16275W        W32409   2.325   2.008  11.071 -0.0319 -0.3707 -0.0410
16276W        W32410  14.810  10.312  14.350  0.0158 -0.1702 -0.0353
16277W        W32411  15.264  14.490   1.645  0.2686 -0.2253  0.5767
16278W        W32412  14.316   8.490  13.229 -0.1495  0.1466  0.0650
16279W        W32413   7.214   6.574   1.225  0.2012  0.3732  0.1251
16280W        W32414   2.851  14.690  10.645 -0.1395 -0.0438 -0.1820
16281W        W32415   4.987   3.923  14.474  0.0390  0.0076 -0.1038
16282W        W32416  10.260  17.973  10.895 -0.1539 -0.0196 -0.0011
16283W        W32417   0.336   4.686  12.434  0.1677 -0.1280 -0.2522
16284W        W32418   7.380  16.403   5.105 -0.1379  0.3323  0.2520
16285W        W32419  17.819   3.992   1.746 -0.0564  0.1703  0.0530
16286W        W32420  15.244   9.548  12.308 -0.0641 -0.1295  0.0699
16287W        W32421   4.156  18.513  12.319  0.2458 -0.0662  0.0523
16288W        W32422   9.129   7.482  14.818 -0.0950 -0.1266 -0.0251
16289W        W32423   6.807   0.246   3.379  0.2770  0.1935 -0.0227
16290W        W32424  12.361   4.252  13.340  0.0775  0.0454 -0.4223
16291W        W32425   4.604   6.213  11.012  0.2086  0.0030  0.2157
16292W        W32426   4.853   7.020   0.892 -0.3865  0.1809  0.2123
16293W        W32427  17.540   0.780   2.141 -0.0247 -0.0514 -0.0509
16294W        W32428  18.099   5.024  11.726 -0.0167  0.2095  0.2475
16295W        W32429  18.810  11.723   5.708 -0.1781  0.0211 -0.0013
16296W        W32430   1.477   8.901  13.076  0.0910  0.1548  0.0341
16297W        W32431   3.694  17.811   1.147 -0.2834  0.0103  0.1082
16298W        W32432   4.232   9.162   2.899 -0.1282 -0.0140  0.0578
16299W        W32433  17.999  13.642  14.664  0.0424  0.0854  0.1488
16300W        W32434   8.239   8.306   4.388  0.0709 -0.1185 -0.1774
16301W        W32435  12.482   6.993   1.028  0.1840  0.0505 -0.1316
16302W        W32436  12.516  19.118   2.141  0.2743 -0.2732  0.0409
16303W        W32437   9.760  11.361   5.027  0.2382 -0.2458 -0.0707
16304W        W32438  13.925   9.839  14.423  0.0449  0.0894 -0.5353
16305W        W32439  19.339  17.234  11.015  0.0359  0.2669 -0.0060
16306W        W32440   4.105   3.645  10.491 -0.3296  0.0563 -0.2494
16307W        W32441  12.895  18.371   2.666 -0.4629  0.1363  0.0221
16308W        W32442   1.245  12.955  11.913 -0.0051  0.0894  0.3473
16309W        W32443  16.990   3.054   2.494  0.1106  0.1689  0.2828
16310W        W32444  19.028   2.603   2.605 -0.1799 -0.1164 -0.0244
16311W        W32445   2.185  11.738   2.002  0.0023 -0.0485  0.0716
16312W        W32446   2.626  17.946   3.582  0.0394 -0.0901  0.1967
16313W        W32447   2.121  11.975  12.824  0.1413 -0.0241  0.1702
16314W        W32448   1.942  15.122  10.904 -0.1882  0.0151 -0.0152
16315W        W32449   5.585  17.567   2.743  0.0557  0.1629 -0.2528
16316W        W32450   8.232   0.474   3.614  0.1309  0.0624  0.0418
16317W        W32451   6.931   8.980  11.478 -0.0941  0.1259  0.2445
16318W        W32452  14.949  10.270   9.908 -0.1918  0.0078  0.1369
16319W        W32453  15.604   6.704   0.829 -0.1361  0.2900  0.0214
16320W        W32454   3.569  13.305  14.886 -0.1758 -0.2713 -0.3313
16321W        W32455  18.698  17.023   1.093 -0.0610  0.3059 -0.3235
16322W        W32456  16.538   2.130  13.273  0.2494 -0.1910 -0.0993
16323W        W32457   8.629  16.074   1.368  0.1989  0.2207  0.1545
16324W        W32458  18.903  10.881   2.134 -0.0662 -0.2355 -0.0529
16325W        W32459  17.978   8.296  11.260  0.0200 -0.5522  0.3400
16326W        W32460  13.941   0.732  14.361 -0.0977  0.1575  0.1580
16327W        W32461  17.447   6.269  11.845 -0.0566  0.0298  0.2653
16328W        W32462  17.514  10.846   3.527 -0.1284  0.0701  0.0759
16329W        W32463  17.751  16.620   1.355 -0.1371 -0.1026  0.1017
16330W        W32464  14.066  11.712   4.776 -0.0401  0.1322 -0.3660
16331W        W32465   8.888   0.113  13.988  0.4289 -0.1020 -0.1380
16332W        W32466  16.246   8.506  13.756 -0.0886 -0.1038 -0.2999
16333W        W32467  16.433   0.618  10.374  0.2486  0.2446  0.2400
16334W        W32468  12.268   4.041   5.542  0.1434  0.2481 -0.1055
16335W        W32469  10.307  11.942   1.464 -0.3458 -0.0099 -0.2567
16336W        W32470   9.923  16.907  12.832 -0.0917  0.2729 -0.3761
16337W        W32471   7.683   4.009   0.145  0.0948 -0.3642  0.0851
16338W        W32472  15.374   7.138   1.050  0.0959  0.0925 -0.0271
16339W        W32473   5.628  17.607  14.802 -0.2492 -0.0057 -0.3162
16340W        W32474  18.461  15.083   2.913  0.1830  0.1793  0.3795
16341W        W32475  10.027  18.715  11.411 -0.1989  0.2323 -0.0553
16342W        W32476  18.072  19.040   1.719 -0.2145  0.0252  0.1892
16343W        W32477  16.723   0.292  14.737 -0.0789 -0.0276  0.0477
16344W        W32478   6.421   2.181  12.199 -0.3064 -0.0007  0.0867
16345W        W32479   1.402   1.376  13.043  0.2292  0.1654 -0.0068
16346W        W32480  12.244  18.192   3.858  0.0766 -0.0464  0.0165
16347W        W32481   2.702   7.042  14.205  0.3150  0.1221  0.1141
16348W        W32482   2.770   9.425   1.348 -0.1351  0.1468  0.0482
16349W        W32483  12.717   7.008  11.297 -0.3750 -0.2069  0.2018
16350W        W32484  18.756   9.371  14.059  0.1228  0.4259 -0.2164
16351W        W32485   4.486  11.516  11.712  0.0959  0.0564 -0.1291
16352W        W32486  11.625   4.637  11.793  0.0056 -0.1366  0.1074
16353W        W32487   9.058   0.035   1.074  0.1388 -0.2080  0.0702
16354W        W32488  15.339   9.153  12.598 -0.0709  0.2461  0.2795
16355W        W32489   0.764   8.256  14.057 -0.1723 -0.1819  0.1293
16356W        W32490   9.903   8.017  11.637 -0.2064 -0.1396  0.0099
16357W        W32491   5.191   5.418  11.875 -0.0318 -0.3763  0.2005
16358W        W32492  18.863  14.927   0.723  0.1115  0.1094 -0.1875
16359W        W32493   1.037   6.814   3.461 -0.0324 -0.4821 -0.4967
16360W        W32494  15.538   0.675  12.560  0.0947  0.0943 -0.0672
16361W        W32495   5.960   6.666  12.094  0.0070 -0.1293  0.0812
16362W        W32496   4.543  13.341  11.730  0.1144  0.0895  0.1996
16363W        W32497   4.631  17.867   4.081 -0.0913  0.2810 -0.0074
16364W        W32498   1.605  14.833  11.339 -0.2100 -0.2861 -0.2492
16365W        W32499   1.209  12.112  14.751  0.1209 -0.2022 -0.0481
16366W        W32500  17.229   7.729   1.268 -0.0386 -0.1525  0.1346
16367W        W32501  10.832  11.861   3.043  0.0586  0.3196  0.2727
16368W        W32502   5.305   1.110   0.253 -0.1738  0.1058  0.3900
16369W        W32503   1.776   3.781  13.399 -0.2056  0.0783 -0.1271
16370W        W32504   7.389  17.649   0.635 -0.1052  0.0562 -0.2900
16371W        W32505   2.602   9.534   0.460 -0.2281  0.1379  0.1058
16372W        W32506   7.929   3.876   4.120 -0.0690  0.0911  0.1360
16373W        W32507   2.028  11.254   5.137 -0.2195 -0.0658  0.0308
16374W        W32508   1.406   8.860  14.802 -0.1295 -0.2379 -0.0346
16375W        W32509  15.874   7.453   5.328 -0.1373 -0.1543 -0.4938
16376W        W32510   5.886   2.948  14.887  0.0429  0.0136 -0.2208
16377W        W32511  14.775   4.713   3.842 -0.0383 -0.2840  0.1567
16378W        W32512  16.245  18.921   5.037 -0.1407  0.3567 -0.1764
16379W        W32513   7.985   3.361   4.112 -0.2920 -0.1523 -0.0690
16380W        W32514  16.532   5.992  10.297 -0.2235 -0.0427  0.0647
16381W        W32515   5.749   3.582  12.411  0.0217  0.0071 -0.3824
16382W        W32516   6.092  18.150  11.916 -0.1002  0.1396 -0.3578
16383W        W32517  15.743   1.746   2.335 -0.3287 -0.2778  0.2052
16384W        W32518  17.632   9.167   3.612 -0.1701  0.1216 -0.2361
16385W        W32519  17.783  12.458  14.606 -0.0433  0.0132 -0.1828
16386W        W32520  12.632  15.619   1.383  0.0663 -0.2090  0.0290
16387W        W32521  19.210   2.335  13.698 -0.0572 -0.0376  0.2128
16388W        W32522   9.779  11.015   0.463  0.0409 -0.1748  0.2150
16389W        W32523  10.381  11.564   4.184 -0.0599  0.4094 -0.0047
16390W        W32524   3.054   8.112   5.152 -0.2426 -0.2307 -0.4268
16391W        W32525   8.427  16.979   0.122 -0.0166  0.0341 -0.1239
16392W        W32526   9.437   6.756   1.419 -0.2837 -0.0156 -0.0811
16393W        W32527  12.478   4.893  12.090  0.3770  0.3420  0.0174
16394W        W32528   3.257   5.292  10.947  0.4833 -0.2458 -0.3377
16395W        W32529   4.917   0.709   3.533  0.3583 -0.1039  0.1862
16396W        W32530  17.832   0.605   0.288 -0.1748  0.2617 -0.1076
16397W        W32531   6.022  14.501  12.377  0.3207  0.0446  0.2905
16398W        W32532  13.903  14.549  12.522 -0.0784 -0.0789 -0.0988
16399W        W32533   0.216  16.429  12.898  0.0784  0.0049  0.2566
16400W        W32534  10.001  11.245   2.796  0.1331 -0.1867  0.0033
16401W        W32535  11.466   9.347   0.325  0.0355 -0.2467  0.1137
16402W        W32536  12.837  13.810  14.309  0.4446  0.4588 -0.0235
16403W        W32537   8.863  15.465   5.830  0.0202  0.6517 -0.0267
16404W        W32538  15.818   3.968  11.664  0.0526 -0.0498  0.1958
16405W        W32539  17.974   3.240  13.501  0.4898  0.1605  0.1065
16406W        W32540  10.626  14.699   5.731  0.0574 -0.1206  0.1074
16407W        W32541   6.025  18.792  10.621 -0.0619 -0.0164  0.2548
16408W        W32542  12.347  11.984   4.902  0.3832  0.0194  0.0464
16409W        W32543   0.249  12.594  12.694  0.2367 -0.1474 -0.3665
16410W        W32544  10.516  12.459  13.201  0.0857 -0.2318  0.1334
16411W        W32545   9.720   7.734  11.146 -0.0573  0.1153 -0.1502
16412W        W32546  11.852   5.998  13.788 -0.0049 -0.2461 -0.0597
16413W        W32547   2.810   6.869  12.310  0.1812 -0.0397 -0.1351
16414W        W32548  12.728   6.104   2.809  0.2766 -0.1188 -0.0392
16415W        W32549   0.713   9.639  10.706  0.1415 -0.1061  0.1658
16416W        W32550   9.037  10.005  14.632  0.0044 -0.0462 -0.0683
16417W        W32551  10.605  11.084  14.916 -0.2268 -0.1790 -0.5263
16418W        W32552   2.941  12.373  12.403 -0.2872 -0.2554  0.0302
16419W        W32553   1.719   0.761   0.161  0.1003  0.1484  0.2233
16420W        W32554   0.893  13.073   1.268 -0.0745 -0.0836  0.0350
16421W        W32555  19.209  13.994   1.252 -0.1354  0.5194  0.0324
16422W        W32556  16.205   4.490  12.794 -0.0417  0.3242 -0.1919
16423W        W32557  15.817  14.352  14.807 -0.0545  0.3207 -0.1496
16424W        W32558  19.116   4.698   9.943  0.0462 -0.0230  0.4894
16425W        W32559   7.958   2.443   9.945  0.0581 -0.2096  0.0154
16426W        W32560   7.930   6.904  11.150  0.1053  0.0541  0.1602
16427W        W32561   6.415   6.214  13.341 -0.1442 -0.0727  0.2047
16428W        W32562  17.318   1.616   4.480  0.0204  0.1794 -0.2385
16429W        W32563  10.799   1.533  11.638  0.0540 -0.1428  0.0276
16430W        W32564   0.400   6.837  12.337 -0.1801 -0.2066  0.3301
16431W        W32565  13.319  10.820   2.709  0.1883 -0.1382 -0.1548
16432W        W32566  13.937  16.836   4.233 -0.3153 -0.1621  0.1924
16433W        W32567   8.147  11.134   3.512 -0.1816  0.1364  0.0090
16434W        W32568  11.747   7.577  12.843  0.1807  0.3959 -0.2377
16435W        W32569  16.147  15.464   2.274 -0.1300  0.0697 -0.0659
16436W        W32570  13.081  17.857  14.043  0.2561  0.2530  0.2073
16437W        W32571  11.081   7.307   0.132 -0.0217  0.0663  0.1679
16438W        W32572   1.858   1.196   3.340 -0.2300  0.1024  0.0601
16439W        W32573   0.273  13.161   2.386 -0.1615  0.2214 -0.0148
16440W        W32574  14.642   2.978  12.555 -0.0147 -0.3098 -0.0221
16441W        W32575   8.342   3.003   1.892 -0.1595  0.1292 -0.1190
16442W        W32576   4.514   9.841   0.654 -0.1021 -0.4267 -0.1283
16443W        W32577   5.782   0.959   1.300  0.0167  0.1225 -0.1026
16444W        W32578   3.752   3.557   4.163 -0.0080 -0.2888 -0.3131
16445W        W32579   7.296  17.484   2.455  0.1257 -0.2369 -0.1982
16446W        W32580   4.163   0.792  10.700  0.1713  0.0893 -0.0940
16447W        W32581  17.011  11.763   4.247 -0.1104  0.1165  0.2898
16448W        W32582   6.563   9.953  10.417 -0.1739  0.3507 -0.1371
16449W        W32583  18.731  10.747   3.505  0.0067  0.1015  0.2260
16450W        W32584   8.246   3.571   1.746 -0.2581 -0.1297  0.1104
16451W        W32585  13.518  13.164  11.575  0.2409  0.0907 -0.2540
16452W        W32586  10.422   5.543  12.651 -0.1237 -0.4175  0.0225
16453W        W32587   5.093  14.527   3.680  0.0862 -0.0412  0.1131
16454W        W32588   1.492  16.541   0.892  0.3678 -0.0383 -0.3501
16455W        W32589   5.744  12.612   5.013  0.0744  0.4553 -0.2991
16456W        W32590   9.080   5.278   2.632  0.0448  0.2666  0.0688
16457W        W32591  15.570  14.961   1.727 -0.0018  0.0953  0.1023
16458W        W32592   2.867   9.229   3.055  0.1458  0.1583 -0.1314
16459W        W32593  10.950  10.806   4.411 -0.1074 -0.2528 -0.1587
16460W        W32594   6.887   1.155  11.293 -0.5749 -0.2700  0.0499
16461W        W32595  15.498   3.963   4.382 -0.2356 -0.2556  0.0208
16462W        W32596   1.366  15.549  10.695 -0.1095 -0.0031  0.0567
16463W        W32597  14.338  11.062  14.843  0.1638  0.3353 -0.3349
16464W        W32598  17.300  15.835  10.654  0.2035 -0.1888  0.0599
16465W        W32599  18.482  10.612   2.149  0.1900  0.2544 -0.1950
16466W        W32600  17.736   1.805  14.336 -0.0512 -0.1204 -0.1359
16467W        W32601   2.446   1.982  14.364  0.1170  0.0198  0.0186
16468W        W32602   4.599   6.406  10.039 -0.0654  0.1099  0.1788
16469W        W32603  16.907   8.388  13.399 -0.2074 -0.0624  0.0685
16470W        W32604  18.835  17.987   0.854 -0.2194 -0.2460  0.0556
16471W        W32605  14.242  13.978  10.584  0.0064 -0.1817  0.0206
16472W        W32606   2.054  13.843  11.794  0.0718 -0.0118 -0.0896
16473W        W32607  12.068   5.058   1.825 -0.2045 -0.1892  0.2214
16474W        W32608   0.561   1.606   3.036  0.0668  0.0775 -0.0762
16475W        W32609   8.995  10.045  10.685 -0.1791  0.1437  0.1804
16476W        W32610   2.256   7.691  11.418  0.2491  0.1676 -0.2277
16477W        W32611   3.967   0.238   0.352 -0.0662  0.0913  0.0929
16478W        W32612  15.042   4.110   0.322 -0.1926  0.0024 -0.3697
16479W        W32613  13.414  10.087   2.214  0.2182  0.0442  0.0159
16480W        W32614  13.149   7.030   2.597  0.1049  0.2419  0.4225
16481W        W32615   2.917   5.821   0.291  0.1556 -0.0634 -0.1062
16482W        W32616   0.600  13.414   9.641  0.2919  0.0808  0.3380
16483W        W32617  18.120  12.287   4.444 -0.0192 -0.6160 -0.2104
16484W        W32618   8.842  16.893   3.173 -0.0557 -0.2663  0.2210
16485W        W32619  10.936   3.386  10.700 -0.0676  0.1387 -0.1247
16486W        W32620  11.734  15.109  13.093  0.1371  0.2745 -0.0869
16487W        W32621   6.272  14.798  14.752  0.1535 -0.0920 -0.0700
16488W        W32622  19.338   6.652   2.533  0.1242 -0.0472 -0.0944
16489W        W32623   9.802  11.914  13.659 -0.3024  0.0875  0.0590
16490W        W32624   0.455   5.765   4.543 -0.0835 -0.3087 -0.2689
16491W        W32625   7.326  13.818   1.565 -0.0917  0.0842  0.1790
16492W        W32626   1.205  11.143  10.894 -0.0439  0.0700 -0.0499
16493W        W32627   3.036  12.146   4.928 -0.3326  0.0519 -0.2699
16494W        W32628   5.585  12.948  11.934 -0.0618  0.0174  0.2279
16495W        W32629  13.995  19.120   2.814 -0.1571  0.2051  0.1632
16496W        W32630   3.472   2.014  14.639 -0.1311  0.2138 -0.0182
16497W        W32631   8.201   2.238   0.185  0.1736 -0.3718  0.0835
16498W        W32632  10.795  12.641   2.751 -0.0674 -0.1185 -0.2946
16499W        W32633   2.676  13.077   4.679  0.0337 -0.0830 -0.2591
16500W        W32634   6.285  10.118  11.778 -0.0431  0.0567  0.3612
16501W        W32635   8.761   8.122  10.132 -0.0864 -0.1121 -0.1876
16502W        W32636  14.657   2.860  10.146 -0.0809  0.1322 -0.0315
16503W        W32637   5.305  11.024  13.902 -0.3434  0.1781 -0.3457
16504W        W32638   2.067  13.068   1.259 -0.0702 -0.2259  0.1439
16505W        W32639  18.643   7.945   5.201  0.3529  0.3045  0.3704
16506W        W32640  15.319  17.808  12.581  0.0570 -0.0345  0.0323
16507W        W32641   4.785  13.947   2.495 -0.4346 -0.1224  0.0159
16508W        W32642  17.661   1.510   1.683  0.1645 -0.0916 -0.0746
16509W        W32643   0.362   6.962   2.526 -0.2265 -0.1244 -0.3355
16510W        W32644  13.627  17.555   2.525 -0.0571 -0.0022 -0.0562
16511W        W32645  17.225   3.641   0.569  0.1560  0.0220 -0.2493
16512W        W32646  18.399  17.374   3.435  0.3456  0.0298 -0.0476
16513W        W32647  16.206   6.552   3.625 -0.2745 -0.1502 -0.1531
16514W        W32648  11.267  13.436   1.017  0.1910  0.1419  0.0986
16515W        W32649   9.318   0.547  14.760  0.0173 -0.4464 -0.0737
16516W        W32650   2.993  15.571   0.546 -0.1730 -0.1138  0.0616
16517W        W32651   5.735   5.223   0.600  0.0986  0.1518  0.0820
16518W        W32652  19.262   4.974  14.753 -0.1422  0.3394  0.5437
16519W        W32653   9.297   9.710   1.141  0.2443 -0.1535 -0.0561
16520W        W32654  11.826  15.105   1.542 -0.0529 -0.3360  0.2740
16521W        W32655   4.081  17.036  14.717  0.0305 -0.3710  0.2223
16522W        W32656   7.125   5.998  12.760 -0.4683 -0.0082  0.3786
16523W        W32657   9.470  11.796   1.048 -0.1316 -0.0882 -0.1285
16524W        W32658   1.228  19.324  13.691  0.1219  0.1792  0.2097
16525W        W32659   4.100   2.182  12.710  0.4404 -0.2414 -0.0868
16526W        W32660   9.861   1.589   2.625 -0.2825  0.1241 -0.3154
16527W        W32661  17.940   9.138  14.441  0.3116  0.2060 -0.0823
16528W        W32662  10.418  14.815   3.597 -0.1761 -0.0471 -0.1176
16529W        W32663  15.264   7.753   3.548 -0.1614 -0.4084 -0.0979
16530W        W32664  15.645  14.887  11.277 -0.0681 -0.0351  0.1290
16531W        W32665   3.103  13.348   2.670  0.2836  0.0830  0.1614
16532W        W32666  13.022  14.637  12.609 -0.0821 -0.1286 -0.1153
16533W        W32667   7.303   2.372   2.943  0.0060 -0.2299 -0.0952
16534W        W32668   3.421  15.671  12.263  0.2968 -0.0877  0.3808
16535W        W32669  15.833  12.420  10.551 -0.0733 -0.0680  0.1109
16536W        W32670   2.730   0.337  10.234  0.0320 -0.2539  0.1141
16537W        W32671   5.500   5.302  12.942 -0.0251  0.0982  0.1491
16538W        W32672  13.726  16.640   2.057 -0.0387  0.2262 -0.2358
16539W        W32673   8.141   4.036   0.007  0.0637  0.1576  0.0126
16540W        W32674   7.325   7.283   3.257  0.0691 -0.2094  0.2755
16541W        W32675   0.238  11.918   4.828  0.4151  0.1518 -0.0460
16542W        W32676   3.879   0.936   3.375  0.0633  0.0517  0.1841
16543W        W32677   3.548   9.544   1.291  0.1932 -0.2021 -0.0443
16544W        W32678  12.932   4.606  13.848  0.3493  0.0610  0.2386
16545W        W32679   1.034   3.298   2.314 -0.0519  0.2064 -0.3808
16546W        W32680  12.025  18.551  11.098  0.1785 -0.0557 -0.2462
16547W        W32681  11.958  14.711  12.983 -0.0011  0.3431 -0.1611
16548W        W32682  14.554  12.540   4.358  0.0212  0.1896  0.0963
16549W        W32683   9.312   1.311   0.237 -0.1176  0.0126  0.0846
16550W        W32684  15.757   6.282  10.371  0.1488  0.1240  0.1824
16551W        W32685   8.598  18.671   1.864 -0.0907  0.0161  0.1034
16552W        W32686  14.074   3.822  12.874 -0.1732 -0.3012  0.0593
16553W        W32687  15.835   3.275  12.554 -0.1393 -0.0523 -0.3951
16554W        W32688  13.828  11.196  12.792 -0.0374  0.0630 -0.1448
16555W        W32689   8.694  17.196   0.456  0.1840 -0.1190 -0.1382
16556W        W32690   5.004  11.745  10.435 -0.0698 -0.1611 -0.4195
16557W        W32691   5.467  18.064  14.700  0.4370  0.2452  0.2436
16558W        W32692   8.435  12.917  10.411  0.1880  0.0604 -0.0481
16559W        W32693  13.380   2.050   0.818  0.3447  0.2374 -0.2558
16560W        W32694   5.687   6.129  11.333 -0.1366 -0.1622 -0.0270
16561W        W32695  13.284  14.137  13.833  0.0730  0.0569  0.1534
16562W        W32696  17.689  11.221  13.190  0.0337 -0.1288  0.0059
16563W        W32697  14.706   6.193   3.503 -0.0924 -0.2574 -0.0300
16564W        W32698   8.138   9.792  13.130  0.3556 -0.2613 -0.2103
16565W        W32699  14.448   1.137  13.248  0.0405 -0.1416  0.1354
16566W        W32700  12.911   9.369  10.673  0.1759 -0.1102 -0.3572
16567W        W32701  18.478   7.907  11.314 -0.1244 -0.3723 -0.4057
16568W        W32702   2.646   9.509  13.019 -0.0225 -0.1324 -0.2865
16569W        W32703   1.088   5.744   0.479  0.0324  0.0179 -0.1338
16570W        W32704   8.680  11.271  12.986 -0.1795 -0.1700  0.0365
16571W        W32705   7.009  18.428   2.419  0.0706  0.4375 -0.2025
16572W        W32706   1.235   2.902   4.060 -0.0368 -0.0626 -0.0247
16573W        W32707   5.032   6.765   4.033 -0.2483 -0.1826 -0.1274
16574W        W32708  12.396  15.357  14.604 -0.0519 -0.2313  0.1891
16575W        W32709   2.583  15.847  10.476  0.1063  0.1592 -0.0690
16576W        W32710  12.008   0.039  11.413  0.0099 -0.3385 -0.4668
16577W        W32711  16.100   6.475   0.896 -0.2347 -0.1492  0.1458
16578W        W32712   0.169   2.305  10.646 -0.1873 -0.1438 -0.0620
16579W        W32713   9.482   3.919  11.345 -0.0752 -0.0175 -0.2892
16580W        W32714   3.697  17.207  13.459  0.0595  0.1487  0.5375
16581W        W32715   5.830   4.024  10.585 -0.2463 -0.1279  0.1985
16582W        W32716   2.360   4.667  10.595 -0.0657  0.0402 -0.0044
16583W        W32717   6.886   8.319  11.910 -0.1699 -0.0019  0.0753
16584W        W32718   4.271  12.924  13.596 -0.0710  0.0410 -0.1131
16585W        W32719  14.758  14.875  13.646  0.3391  0.1780 -0.1748
16586W        W32720   0.788  11.217   0.265  0.1548 -0.0817  0.0199
16587W        W32721  15.382  10.707  14.173 -0.0488  0.0533  0.0801
16588W        W32722   8.952   3.356   2.999 -0.1630  0.0045  0.2159
16589W        W32723   3.456  18.516   0.884  0.0346 -0.0012  0.0446
16590W        W32724   6.340   4.754   3.466  0.1332 -0.1100 -0.2116
16591W        W32725  10.578   5.936   1.375  0.0718 -0.0898  0.1344
16592W        W32726   9.029  15.528  14.127  0.0673  0.1155  0.0453
16593W        W32727  11.027   7.350  14.332  0.3417  0.1400 -0.2103
16594W        W32728   0.849   5.311  14.257  0.1316 -0.1768 -0.3799
16595W        W32729  14.380  10.191  10.837  0.0748 -0.3692  0.3330
16596W        W32730   2.503   4.270   0.958 -0.1378  0.1781 -0.0196
16597W        W32731   8.007  17.944   3.106 -0.0932  0.2908 -0.3292
16598W        W32732  15.751  13.483   0.949  0.3116  0.1563 -0.3551
16599W        W32733  15.359  14.900   0.378 -0.1718 -0.0935  0.1760
16600W        W32734  17.703   1.791   2.763  0.2381 -0.1212 -0.0115
16601W        W32735  13.844   3.101   4.594 -0.2630  0.0692 -0.2478
16602W        W32736  17.851  16.420  11.979 -0.0645  0.0112  0.0687
16603W        W32737   1.548   2.836  12.003  0.0876  0.3711  0.3206
16604W        W32738   7.569  15.792   2.122  0.0525  0.0331  0.0526
16605W        W32739   6.897   8.486   0.962 -0.2204  0.1122  0.0028
16606W        W32740   5.964   7.966   4.022  0.1182  0.2221 -0.1972
16607W        W32741   7.384  17.927   1.898  0.0941 -0.0635 -0.1545
16608W        W32742  11.019   0.900   4.090 -0.1514  0.0015  0.0353
16609W        W32743  13.251   4.763  14.261 -0.2229 -0.1290  0.2362
16610W        W32744  11.654  18.887  14.634  0.0195 -0.1161  0.3156
16611W        W32745   6.720  11.150  10.331 -0.2577 -0.1345  0.1344
16612W        W32746   5.740   4.466  14.971 -0.1044  0.3589  0.1172
16613W        W32747  18.341   3.567  13.301 -0.0951 -0.3659 -0.2581
16614W        W32748  14.829   0.425   0.570 -0.3350 -0.0643  0.3416
16615W        W32749  10.864  14.455   0.645  0.0608 -0.0499  0.1771
16616W        W32750   3.057   8.216  11.063  0.1188 -0.2791 -0.1029
16617W        W32751  15.899  18.867   3.538 -0.0516  0.0518  0.2101
16618W        W32752   8.340   9.572   0.432 -0.1286 -0.1221  0.0512
16619W        W32753  11.663  16.158   5.478 -0.4152  0.1804  0.0962
16620W        W32754  13.292   2.412  11.238 -0.0778  0.2023  0.1361
16621W        W32755  11.990   7.640   3.685  0.2398 -0.1159  0.1855
16622W        W32756   4.364  17.033   3.534  0.3590  0.4218 -0.2582
16623W        W32757   8.677   3.289   1.657 -0.1344  0.1806 -0.1405
16624W        W32758  16.350  15.067   1.390  0.2159  0.0901  0.2758
16625W        W32759  19.085   3.816   2.396 -0.2162 -0.2217 -0.0426
16626W        W32760  10.401   9.279   2.464 -0.0557 -0.2614 -0.0124
16627W        W32761  11.743  10.017  14.237  0.0311 -0.1622 -0.0511
16628W        W32762   4.161   2.020  10.919 -0.1705  0.0220  0.1642
16629W        W32763  13.421  18.590  11.020  0.0050  0.1512 -0.1243
16630W        W32764  12.945   9.095   2.327  0.0394 -0.1682  0.1092
16631W        W32765  12.695  17.059   2.644  0.1158 -0.0408 -0.2915
16632W        W32766   3.398  10.806  10.501  0.0845  0.0524  0.0253
16633W        W32767  18.379  11.128   3.566 -0.0290 -0.1861  0.1455
16634W        W32768   4.732   0.149  11.974  0.3390 -0.2063 -0.0474
16635W        W32769  17.796   0.350   1.968 -0.2813  0.1147  0.0977
16636W        W32770   6.754   1.084   2.077 -0.2098  0.0708 -0.1549
16637W        W32771  18.962  11.428  12.285 -0.1984 -0.1117  0.1862
16638W        W32772  14.930   5.189  11.967 -0.1595  0.1229 -0.0183
16639W        W32773   0.393  10.258  13.729  0.0074  0.0598 -0.0953
16640W        W32774  15.301   8.350  13.164 -0.0606  0.3993  0.0990
16641W        W32775   5.612  14.516  14.141 -0.0420 -0.0711  0.0670
16642W        W32776   0.183  15.446   3.940 -0.0430 -0.0112  0.3919
16643W        W32777   2.549   0.270  11.402 -0.2905 -0.3664  0.2724
16644W        W32778   1.102  16.997   2.578 -0.2222  0.1832  0.1091
16645W        W32779   6.960   8.899   4.137  0.0267  0.4290  0.2405
16646W        W32780   9.939   6.407   2.681 -0.2800 -0.3273  0.0706
16647W        W32781   2.035   7.671  14.004 -0.1774 -0.4088  0.3157
16648W        W32782  12.931   2.083  12.579  0.2993  0.1577 -0.2918
16649W        W32783   6.508  16.604   4.844 -0.0356  0.0081  0.0584
16650W        W32784   3.585   7.029   1.207  0.1474  0.0547  0.0059
16651W        W32785   3.955   5.388  12.185 -0.2746  0.1159  0.0662
16652W        W32786  15.283   6.114  12.328 -0.0929  0.0061 -0.2142
16653W        W32787  15.488  16.609  13.842 -0.2553  0.3083 -0.1005
16654W        W32788   6.563   9.559   0.830  0.4436  0.2120  0.1865
16655W        W32789   3.189   8.557  10.733 -0.3179 -0.0958  0.3508
16656W        W32790  12.372  11.676   2.185 -0.4826 -0.0352 -0.2189
16657W        W32791  15.932  18.835  13.228 -0.1064  0.0772  0.3022
16658W        W32792   6.251   7.568   5.277  0.2038  0.0161  0.0065
16659W        W32793  15.215  11.252  11.182 -0.3546 -0.1588  0.0031
16660W        W32794  10.959   8.087   1.050 -0.2199  0.0282  0.0538
16661W        W32795   2.532  16.700   3.325  0.0764  0.1158 -0.0331
16662W        W32796   7.239   5.533   4.630  0.2072  0.1435  0.1275
16663W        W32797  11.383   2.383  10.471  0.0344  0.1708  0.2324
16664W        W32798   2.463   5.375   5.363 -0.2220  0.2840  0.0467
16665W        W32799  13.179  13.507   0.079 -0.0389  0.0852  0.0202
16666W        W32800  13.572   4.847   4.617  0.1338  0.1672 -0.4120
16667W        W32801  18.350  15.123   4.649 -0.3776 -0.3417  0.0859
16668W        W32802   5.776  15.201  10.899 -0.2796  0.0643  0.0341
16669W        W32803  18.920  14.501   3.106 -0.2378  0.1117 -0.4762
16670W        W32804  11.768   9.916   4.116 -0.0404 -0.1765  0.1195
16671W        W32805   4.666   1.542  12.881 -0.0690 -0.1408 -0.2739
16672W        W32806   3.547   0.268  13.152 -0.0452  0.1970  0.1263
16673W        W32807   1.155  11.659   3.602 -0.4623  0.0594  0.0452
16674W        W32808   6.057   3.320   3.445  0.0303 -0.1166 -0.0558
16675W        W32809  17.939   1.999   1.485  0.3999  0.1723 -0.0311
16676W        W32810   8.022  17.620   1.659  0.2174 -0.0438  0.0544
16677W        W32811   9.513   9.660   2.747 -0.4496  0.0467 -0.0085
16678W        W32812  16.796   8.084  14.202  0.0561  0.0749  0.0798
16679W        W32813  18.892   9.545   1.022  0.0674  0.0414  0.0823
16680W        W32814  18.999   5.857   2.297 -0.1542 -0.3364  0.1614
16681W        W32815   8.585  15.790   0.490 -0.0126  0.3503 -0.0251
16682W        W32816   9.098   6.968   4.465  0.0992  0.1137 -0.3031
16683W        W32817  13.404   2.923  12.784 -0.2696  0.1583 -0.2481
16684W        W32818   7.745  13.054   5.292 -0.1326 -0.2162  0.2098
16685W        W32819   0.563  16.678  12.391 -0.2339 -0.0004 -0.2314
16686W        W32820  15.609  11.116  14.882  0.0852  0.0449  0.1888
16687W        W32821   8.444   0.621   5.319 -0.2315  0.1066  0.0632
16688W        W32822  13.882  12.066  10.181 -0.1304  0.1781  0.0831
16689W        W32823  18.568   0.048  13.072  0.1654 -0.2069 -0.1637
16690W        W32824  11.968  14.233   4.741  0.0239  0.2506  0.0836
16691W        W32825   9.898  19.245  12.958 -0.1983 -0.1030  0.1656
16692W        W32826  17.419   3.798   9.749  0.1255  0.1980 -0.0208
16693W        W32827  15.812  16.838   1.175 -0.1520 -0.1245  0.3586
16694W        W32828  11.454   5.169  13.270 -0.0176  0.0204 -0.0285
16695W        W32829  13.752   8.080   0.240 -0.2096  0.0485  0.1735
16696W        W32830   4.683   6.436   1.858  0.1544 -0.0445 -0.2260
16697W        W32831   2.002  11.821  13.311  0.1271  0.2452 -0.2386
16698W        W32832  10.355   0.283  12.887 -0.0455 -0.1849  0.4712
16699W        W32833   5.499  15.266   1.795  0.1245  0.2523  0.0939
16700W        W32834   4.703  12.923   4.413  0.0605 -0.2623  0.2770
16701W        W32835  12.564  17.596   5.100  0.0395 -0.1637 -0.5833
16702W        W32836  16.008  13.305   3.454  0.2181 -0.0121 -0.1699
16703W        W32837   8.976   6.301   0.783  0.1623  0.2890  0.1400
16704W        W32838   3.841   5.111  13.434 -0.0764 -0.5074 -0.2674
16705W        W32839   3.499   5.491   3.490 -0.1598 -0.0078  0.0853
16706W        W32840  14.940   0.089  14.107  0.0380  0.1495  0.2138
16707W        W32841  12.479   3.137   3.771 -0.0350  0.2201 -0.0196
16708W        W32842   2.739   6.910  13.374 -0.0115 -0.2936 -0.1942
16709W        W32843   2.222  12.433   1.139 -0.0610  0.0877  0.0221
16710W        W32844  18.225   3.192  12.976 -0.0367 -0.2234  0.3815
16711W        W32845   2.884   2.270   5.264 -0.0949 -0.1122  0.5762
16712W        W32846   5.038  14.119  13.672 -0.2466 -0.1597  0.1089
16713W        W32847   9.465  16.898   5.695 -0.0368 -0.2204  0.1200
16714W        W32848   7.485  18.915   1.268 -0.5545  0.0059  0.3046
16715W        W32849   4.476   7.508   2.100  0.1241  0.0827 -0.0273
16716W        W32850  12.228  13.067  14.251 -0.0951 -0.2034  0.0645
16717W        W32851  18.035   9.633  11.798 -0.1097 -0.0568  0.0451
16718W        W32852  12.936  15.641   5.175 -0.0014  0.0156 -0.0456
16719W        W32853   8.192   7.859   0.429  0.0352 -0.0151  0.0321
16720W        W32854   2.037   0.453   2.975 -0.0319 -0.0030  0.0789
16721W        W32855  11.495   7.855  13.200  0.1397 -0.0569  0.0284
16722W        W32856  10.668  17.471  13.717  0.0501  0.0824 -0.0113
16723W        W32857   1.783  16.284  14.043  0.2393  0.0164  0.1399
16724W        W32858   2.263   7.038   0.584  0.0398  0.1673 -0.0140
16725W        W32859   8.272   0.368   1.283 -0.3496  0.1840  0.0353
16726W        W32860   3.298   5.507   0.070 -0.2528 -0.0232 -0.0947
16727W        W32861   9.379  15.219  13.875 -0.0382  0.1993  0.1542
16728W        W32862  14.531   8.063   3.848  0.0344  0.3931 -0.2000
16729W        W32863  15.679   6.164   2.168 -0.1379 -0.1034  0.2028
16730W        W32864  12.138   1.028  13.637  0.2401 -0.1395 -0.0813
16731W        W32865   3.875  16.535  12.639  0.0328 -0.0186 -0.1909
16732W        W32866   7.864  15.907   5.707 -0.1125  0.3017 -0.2164
16733W        W32867  12.092   9.312  12.647  0.0638  0.2611 -0.2414
16734W        W32868  14.546  11.907  10.456  0.2242 -0.0912 -0.0202
16735W        W32869  17.212  16.220  13.322  0.1015  0.3235 -0.4606
16736W        W32870  11.154   9.378  14.320 -0.1205 -0.2237 -0.0541
16737W        W32871   2.010   4.991   4.489  0.0625 -0.0725  0.2372
16738W        W32872  13.454   0.271  14.101  0.2315  0.0535  0.2797
16739W        W32873  14.098  17.100  12.428 -0.1370 -0.1077  0.1734
16740W        W32874  11.654   7.077   4.423 -0.0993  0.0124 -0.0695
16741W        W32875   4.091  12.751   1.790  0.0183 -0.0657 -0.2479
16742W        W32876  18.549  17.714  10.806  0.1522 -0.1295  0.3237
16743W        W32877   8.146   7.642  13.930  0.0682  0.2172 -0.0164
16744W        W32878   4.160   1.542  13.604 -0.0647  0.0764 -0.2408
16745W        W32879   9.711   3.784  10.886  0.2685 -0.0252  0.2186
16746W        W32880   8.764  12.499  12.299  0.3278  0.0583 -0.1681
16747W        W32881   7.156  10.588  12.676  0.0912 -0.0264 -0.0190
16748W        W32882  16.629   5.851  11.801  0.0078 -0.0043  0.5723
16749W        W32883   8.456   6.232   0.301 -0.2727  0.0663 -0.1395
16750W        W32884   9.123   0.375  12.440 -0.0896  0.1904 -0.2328
16751W        W32885  16.971   8.109   2.314 -0.1092  0.0752 -0.0228
16752W        W32886   0.794   3.722   1.605  0.0990 -0.0538  0.1919
16753W        W32887  19.019   6.572   3.856 -0.3392 -0.2381 -0.1167
16754W        W32888   2.350  17.239  12.847 -0.3616  0.1541 -0.0699
16755W        W32889  15.730  15.213   0.374  0.0923 -0.0938 -0.0968
16756W        W32890   5.012  16.267   1.489 -0.0688 -0.3131 -0.0563
16757W        W32891  11.459   6.452   5.292  0.3220  0.2091 -0.1975
16758W        W32892  16.609   5.702   4.988  0.2840 -0.2135 -0.0866
16759W        W32893   9.937   6.494   0.663  0.2484 -0.0462  0.3247
16760W        W32894   1.715   2.135   2.097  0.1428 -0.1542  0.2315
16761W        W32895   8.734   5.796  11.959 -0.1281  0.3317 -0.2309
16762W        W32896  18.824  10.465   2.649 -0.1844 -0.3435 -0.0573
16763W        W32897  16.007   0.834  10.115  0.0079 -0.0468  0.0105
16764W        W32898   8.669   6.974  13.752 -0.0035 -0.1632 -0.4134
16765W        W32899   6.663  15.045  10.444  0.1809  0.0673 -0.1457
16766W        W32900   6.738  13.539  13.748 -0.4378 -0.2244  0.0947
16767W        W32901  12.827   6.590   3.993  0.1566  0.0579  0.0560
16768W        W32902   0.732  15.297   1.664 -0.2776 -0.1238 -0.0396
16769W        W32903  16.678   5.511   1.172  0.1945  0.1153 -0.2136
16770W        W32904  10.203  17.098  14.659 -0.0239  0.3419 -0.0578
16771W        W32905   9.450   7.685   1.456  0.3267 -0.3543 -0.2907
16772W        W32906   5.454  11.114   4.897 -0.1733  0.2673  0.3318
16773W        W32907   5.508  15.181   4.675  0.3170  0.1693 -0.0799
16774W        W32908   4.583   1.292   1.478 -0.2406 -0.2538  0.4249
16775W        W32909   4.145   4.725  14.781 -0.0901 -0.0900 -0.1697
16776W        W32910   3.256  10.726   5.685  0.1534  0.3349  0.1605
16777W        W32911  10.557   3.454   1.095  0.1629 -0.0775  0.1263
16778W        W32912   4.030  16.470  10.559  0.1873  0.3601  0.5738
16779W        W32913  11.709  12.561   4.857  0.5722  0.3883 -0.2776
16780W        W32914  12.470  13.993  14.992  0.1177 -0.0862 -0.1256
16781W        W32915  19.237  18.063   0.580 -0.0848 -0.2860  0.1334
16782W        W32916  17.032   2.495  12.625  0.0172 -0.0565 -0.3480
16783W        W32917  15.501   0.235   1.235  0.1521  0.0469 -0.2549
16784W        W32918  19.266  18.327  10.687  0.2865 -0.1171  0.1406
16785W        W32919  15.327   4.257  14.301  0.0396 -0.1432  0.0332
16786W        W32920  17.234   8.993   4.738 -0.0548  0.1566 -0.1803
16787W        W32921  19.282  14.965  10.623  0.1107 -0.0280  0.0796
16788W        W32922  19.177  14.916   2.316 -0.3449  0.1348  0.1497
16789W        W32923  12.233   9.360  14.556  0.4869  0.0183 -0.1061
16790W        W32924  15.268   3.361  12.813  0.3162 -0.0865  0.0025
16791W        W32925  14.046   6.119  11.430 -0.0413  0.1183 -0.0726
16792W        W32926  11.797  11.307   0.110 -0.0675 -0.0877 -0.1359
16793W        W32927   4.943   8.391   0.037 -0.0897  0.0938 -0.2541
16794W        W32928  10.382   2.488   4.294 -0.0470 -0.1061 -0.0041
16795W        W32929   2.445   9.885  13.429  0.1764  0.0716 -0.1311
16796W        W32930  17.817  10.443   3.439 -0.2847 -0.0785 -0.0264
16797W        W32931  10.938   2.050  10.460 -0.1503  0.2313  0.1305
16798W        W32932  16.023   3.446  12.016 -0.0271 -0.4039 -0.1916
16799W        W32933   6.021  16.643  14.672  0.1070  0.0726 -0.1495
16800W        W32934   8.777  14.855   0.873  0.0348 -0.0397  0.0885
16801W        W32935  10.217   8.392   4.415  0.0294 -0.0298 -0.2201
16802W        W32936   1.412   1.542  10.573 -0.3412  0.1726  0.1615
16803W        W32937   6.367   3.378   2.187 -0.0510 -0.1766  0.0351
16804W        W32938   9.709  17.324  10.503  0.1697  0.0486 -0.3686
16805W        W32939  10.862  13.087   4.836  0.1380 -0.2831  0.0953
16806W        W32940   9.042  13.928  14.845  0.0063  0.0487 -0.3046
16807W        W32941   6.985   0.773   3.321  0.2174  0.0410  0.1732
16808W        W32942  17.485  16.792   0.851  0.0788  0.3532 -0.0456
16809W        W32943  11.929  16.486  10.256 -0.0634 -0.3094 -0.2184
16810W        W32944   0.227   4.648   2.554 -0.1172 -0.0584  0.2013
16811W        W32945   9.503  11.526   2.967  0.4395  0.0543 -0.2131
16812W        W32946  10.269  14.205   0.156 -0.2442  0.3374  0.1068
16813W        W32947  18.298  13.355  14.938  0.0479 -0.1306  0.1341
16814W        W32948   5.460  13.809  14.458  0.2001  0.1081  0.0781
16815W        W32949  18.459   1.419  12.413 -0.3376 -0.0488 -0.1099
16816W        W32950   9.799   8.986  11.496  0.1911  0.1743  0.4871
16817W        W32951  18.989   9.058   2.562  0.0966 -0.1802  0.2494
16818W        W32952  17.229   7.062   0.431 -0.3241 -0.1456 -0.0275
16819W        W32953  12.435   8.786   2.025 -0.1808  0.2176  0.0691
16820W        W32954   8.349  15.005   1.079  0.3710 -0.0548  0.0642
16821W        W32955  12.439   4.839  10.930  0.1679 -0.1057 -0.2364
16822W        W32956   1.491   8.421   1.607  0.1011  0.0446 -0.0932
16823W        W32957   0.683   5.830   4.943 -0.1424  0.0418 -0.3390
16824W        W32958   8.713  12.260  10.938  0.0882  0.0121 -0.0243
16825W        W32959   3.077  18.324   2.706 -0.0479 -0.2325  0.0022
16826W        W32960   0.797  12.483  14.180 -0.0510  0.0514  0.2698
16827W        W32961  12.866   9.537   1.360  0.0017  0.1559  0.0801
16828W        W32962   4.632   6.614  11.911 -0.0351  0.1178 -0.4393
16829W        W32963  12.642  15.886   1.949 -0.2087  0.0683  0.2696
16830W        W32964   7.134   6.149  10.135  0.3463 -0.0713 -0.1800
16831W        W32965  11.469   6.107  10.659  0.0707 -0.1495  0.1878
16832W        W32966   7.890  14.196   2.307 -0.0865 -0.3706 -0.2267
16833W        W32967  12.970   1.952   2.234 -0.1001 -0.2364  0.0276
16834W        W32968   4.383   9.135  14.367  0.4055  0.0782  0.4303
16835W        W32969  14.675   3.581   1.065 -0.1937 -0.0181  0.1411
16836W        W32970   6.975   9.785  14.812  0.6517  0.1588  0.0169
16837W        W32971   8.324   9.136  14.063  0.2025  0.1457 -0.1608
16838W        W32972   0.189   3.989   5.314 -0.0428  0.0248  0.4750
16839W        W32973   5.474   5.756   9.723 -0.1306  0.1542 -0.0534
16840W        W32974  14.923  14.399  14.503  0.0199  0.0531  0.0999
16841W        W32975  11.346  10.795  13.479  0.2306  0.0945  0.2295
16842W        W32976   3.296   5.541   2.941  0.0329 -0.0261 -0.1013
16843W        W32977  11.214   8.935   0.214  0.0243  0.0962 -0.2313
16844W        W32978  10.114   4.029   2.320 -0.1311 -0.1378  0.1925
16845W        W32979  11.844   3.189   4.825  0.3847 -0.0792 -0.0414
16846W        W32980   1.948  12.120  11.523  0.3079  0.3563  0.2068
16847W        W32981  10.332  10.083  10.053 -0.1876 -0.0351 -0.0360
16848W        W32982   4.495   7.130  10.550  0.0545 -0.0438 -0.2022
16849W        W32983   5.815  11.603   3.809 -0.3236 -0.2964  0.0148
16850W        W32984  12.190   1.048   2.539  0.1545 -0.0470 -0.2115
16851W        W32985  14.055   5.462   0.076  0.1518  0.0055  0.0498
16852W        W32986   6.725   4.025  12.545  0.3481 -0.0770  0.0262
16853W        W32987  13.219   7.708  10.573 -0.3373  0.0129  0.0500
16854W        W32988   5.133  18.159   4.546  0.2245 -0.1176  0.2312
16855W        W32989   4.922  13.103   1.126  0.0654 -0.2003  0.3389
16856W        W32990   1.587  16.652   3.354  0.0862  0.1929  0.2246
16857W        W32991   8.880  14.174  11.897  0.1930 -0.0643 -0.0824
16858W        W32992   0.926   4.598  11.444  0.2206  0.1052 -0.3981
16859W        W32993   7.861   8.585  11.340 -0.1381  0.2867 -0.1510
16860W        W32994  12.963  16.379   3.274  0.0738 -0.2366  0.0916
16861W        W32995  15.590   6.818  11.870  0.0748  0.2186  0.0595
16862W        W32996   3.503   9.958   3.936 -0.0803  0.1708 -0.0687
16863W        W32997   5.063   4.142  12.568 -0.2794  0.0710 -0.2043
16864W        W32998  11.368   5.389  11.571 -0.1083  0.1899 -0.0622
16865W        W32999   2.338   6.300   4.563 -0.0134 -0.0654  0.0189
16866W        W33000  13.817  15.243   0.162  0.0079  0.1529  0.1854
16867W        W33001   7.151   7.619   4.116 -0.4170  0.4158 -0.3703
16868W        W33002  14.967   1.459   1.955  0.2558 -0.1088  0.1831
16869W        W33003   4.492  14.917  11.111 -0.2152 -0.3963 -0.0310
16870W        W33004  15.769   3.783  14.061 -0.1363  0.0950  0.0595
16871W        W33005   2.923   8.383  14.955  0.2242 -0.1340  0.0494
16872W        W33006  15.779   7.587   1.259  0.3383 -0.0619 -0.3821
16873W        W33007  18.684   7.268   0.825 -0.1805 -0.1158 -0.1378
16874W        W33008  14.110  13.529   2.439  0.0451  0.4342 -0.1196
16875W        W33009   8.241   7.160   3.336  0.1050 -0.0229 -0.1987
16876W        W33010   0.147   1.428   9.624  0.2564  0.0453  0.3849
16877W        W33011   5.775   4.619   3.720  0.1064  0.1436 -0.2927
16878W        W33012  14.146  16.875   1.973 -0.2062 -0.1757  0.0654
16879W        W33013   4.922   8.002   1.792 -0.1417 -0.2873  0.0221
16880W        W33014   4.833  14.910   2.350 -0.0234  0.1441  0.0664
16881W        W33015  10.040   3.207  12.422 -0.6047  0.0388  0.5859
16882W        W33016   1.964  11.424   3.062 -0.1141  0.0150 -0.1925
16883W        W33017  17.851  16.196  14.612  0.1808  0.1397  0.0765
16884W        W33018   9.708  15.090   9.892 -0.3213  0.4704 -0.0316
16885W        W33019  19.004   6.598   4.527  0.0138  0.0385 -0.2449
16886W        W33020   6.839   0.576   3.840 -0.1346 -0.0795 -0.2415
16887W        W33021   3.890   6.138  14.844  0.4048  0.0321  0.3524
16888W        W33022   0.782   2.610   3.790 -0.0581  0.1629  0.2671
16889W        W33023   7.445  10.590  12.174 -0.2058  0.2337 -0.1135
16890W        W33024  17.539   5.908  13.339 -0.2178 -0.1500  0.3341
16891W        W33025   5.671   5.474  10.133 -0.0736  0.2465 -0.0816
16892W        W33026  11.341   2.887   1.856  0.0477  0.3074 -0.0626
16893W        W33027   7.307  13.082  10.864  0.1932  0.1212  0.0669
16894W        W33028  10.662   4.454  11.536 -0.2231 -0.0092 -0.0660
16895W        W33029   4.114   7.662  10.844  0.0649 -0.0280  0.0693
16896W        W33030   3.595   9.523   4.792  0.0328  0.0675 -0.0887
16897W        W33031   7.564   9.431  10.772 -0.1930  0.0305  0.0501
16898W        W33032  16.874   1.852   3.250  0.1355  0.0828 -0.0192
16899W        W33033  11.543   0.118   4.061 -0.1079  0.0793  0.0981
16900W        W33034  13.466  16.688   1.495  0.1635  0.1851 -0.0325
16901W        W33035  17.580   4.078  13.520 -0.0241 -0.2364 -0.0802
16902W        W33036  16.557   1.358  11.699  0.1234  0.2001 -0.1558
16903W        W33037  16.804  11.425   2.484  0.2001  0.1047  0.3148
16904W        W33038   1.531  12.618  12.300 -0.1233 -0.1261 -0.0641
16905W        W33039   6.083   2.385  12.723  0.0657 -0.0615 -0.0247
16906W        W33040   5.131   0.730  14.465  0.1334  0.0217 -0.1108
16907W        W33041  11.526  13.688  10.448  0.0035 -0.1406  0.1953
16908W        W33042  13.527  17.571   0.191 -0.2805  0.1214  0.1424
16909W        W33043   2.533   1.337  12.968 -0.1073 -0.0380 -0.0360
16910W        W33044  14.076  13.628  14.809  0.3079 -0.0299 -0.0231
16911W        W33045   1.920  17.185  12.052 -0.1119  0.0539 -0.0029
16912W        W33046   2.979  16.557  11.242 -0.1745 -0.1657  0.1206
16913W        W33047  17.976  10.923   1.039 -0.1701  0.2205  0.1574
16914W        W33048   2.729  10.751  11.729  0.1062  0.1276  0.1506
16915W        W33049   6.221   4.063  13.540  0.0570  0.1087 -0.1844
16916W        W33050   5.943   4.463  10.393  0.1424  0.0043  0.0878
16917W        W33051   3.303   8.105  12.427 -0.1186 -0.0567  0.0673
16918W        W33052   6.632   7.184   2.331  0.2364 -0.2052 -0.1224
16919W        W33053   8.257  11.535  13.141  0.2392  0.5507 -0.1553
16920W        W33054  12.137  11.908   1.366  0.1004 -0.0589  0.3804
16921W        W33055   5.651   3.943   0.901  0.0537  0.0314  0.1050
16922W        W33056  17.953  10.481  10.585  0.0168 -0.2717 -0.0823
16923W        W33057   0.152  15.741  14.018  0.3433  0.0592 -0.0253
16924W        W33058  14.942   0.233   2.322 -0.0758  0.0515 -0.0053
16925W        W33059  17.106  14.245   0.924  0.0813  0.1412 -0.4127
16926W        W33060   0.180  11.555  13.183 -0.0143  0.0369  0.1450
16927W        W33061   5.985   7.102  14.464  0.1877 -0.0022  0.0060
16928W        W33062   4.549   7.381  10.963  0.4559  0.2653 -0.3380
16929W        W33063  18.450   6.411  14.453 -0.1133 -0.1470 -0.0889
16930W        W33064  11.251   7.553  11.489  0.6568  0.0104 -0.1440
16931W        W33065   0.565  14.456   2.838 -0.2255 -0.2539  0.2598
16932W        W33066  18.876  13.336   9.418  0.0975  0.3964 -0.1720
16933W        W33067  10.147   6.757   4.356  0.0712  0.2069  0.5090
16934W        W33068  12.667   6.782  14.442  0.1372  0.1199 -0.4574
16935W        W33069   1.399  14.165  12.275  0.0334 -0.4334 -0.1583
16936W        W33070   5.362  18.957   1.332 -0.0165  0.0164 -0.3467
16937W        W33071   1.824   5.382   0.223 -0.0870  0.1397 -0.2742
16938W        W33072  15.320   0.934  12.981 -0.0567  0.1345  0.3345
16939W        W33073   7.123  16.017   5.342  0.1569  0.1879 -0.2255
16940W        W33074  11.949  14.189   2.474 -0.1773  0.3209 -0.0555
16941W        W33075   0.724   9.814   3.464  0.0251 -0.1387  0.3277
16942W        W33076   4.023  14.463  14.023 -0.0489 -0.3159 -0.1066
16943W        W33077   2.148   1.040   1.431 -0.1222  0.2765  0.1323
16944W        W33078  10.527   0.782   0.071  0.0323 -0.0833 -0.0198
16945W        W33079   7.770   5.033  14.377 -0.1333 -0.1372 -0.0421
16946W        W33080  14.814  14.720  12.446  0.0597 -0.1102  0.1979
16947W        W33081   5.241  15.041  14.832  0.3326 -0.1034 -0.0656
16948W        W33082   9.386   1.149  13.890  0.0200  0.0958 -0.1384
16949W        W33083   8.093  13.389   3.168 -0.0025 -0.1415 -0.2385
16950W        W33084  13.128  14.676   3.596 -0.0439  0.0441 -0.2924
16951W        W33085  11.626   8.185  14.176  0.0952 -0.0226  0.3158
16952W        W33086  16.104   3.384   1.828 -0.0671  0.0896  0.0013
16953W        W33087  10.753  11.816  10.443 -0.0452  0.0351  0.2745
16954W        W33088   2.708   4.144  12.974 -0.1445  0.3013  0.1264
16955W        W33089   4.072  16.096  13.612  0.3280  0.1146 -0.0209
16956W        W33090  11.432  10.287   3.473  0.0831 -0.2045  0.3268
16957W        W33091   1.906  17.471  11.095  0.1006  0.1983 -0.0839
16958W        W33092   4.859   9.536   1.219 -0.2147 -0.2983 -0.1537
16959W        W33093   9.387   1.711   2.736  0.2040  0.3404  0.1087
16960W        W33094  17.449   9.509  13.799 -0.0592  0.0010  0.0193
16961W        W33095  14.405  19.158   0.684  0.1021  0.2230  0.0443
16962W        W33096   5.647  18.234  13.204 -0.1978  0.0831 -0.0128
16963W        W33097   9.210   2.380  13.190 -0.3594  0.0894  0.0452
16964W        W33098  13.461  18.016  14.364  0.2039 -0.0605  0.0657
16965W        W33099   9.288  19.177  10.025  0.1509 -0.0607 -0.1154
16966W        W33100   9.105  16.521   4.342 -0.1747  0.2792 -0.2006
16967W        W33101  16.897  14.662   3.663 -0.0559 -0.2478 -0.1241
16968W        W33102   3.764   3.589   3.458  0.1909 -0.1032  0.1117
16969W        W33103   3.910  18.779   2.433 -0.2067  0.0161  0.2566
16970W        W33104  12.587  12.827   1.345  0.0196  0.1967 -0.1931
16971W        W33105  18.735  19.020  13.898  0.2659  0.2919 -0.1079
16972W        W33106   9.031   4.657   2.468 -0.3439 -0.1048  0.1770
16973W        W33107   6.330  10.655  10.859  0.0967  0.0541  0.1646
16974W        W33108  15.100  10.495   0.446 -0.2674 -0.1483  0.1718
16975W        W33109   4.235   8.982  13.944  0.1169  0.0648 -0.1227
16976W        W33110   5.741   3.125   2.627 -0.1717 -0.0841  0.0912
16977W        W33111   7.749   7.534  12.579 -0.1531  0.0010 -0.0828
16978W        W33112  13.991  16.264  10.259 -0.1920  0.0495  0.1434
16979W        W33113  15.174  16.379   3.633 -0.2022 -0.0950  0.1299
16980W        W33114  13.878   8.843   1.243  0.1079 -0.2292 -0.1833
16981W        W33115  18.037   3.028   2.176  0.3723  0.2634  0.2536
16982W        W33116   8.252  18.394   3.210  0.1748 -0.0882 -0.2514
16983W        W33117  13.516  18.084  11.164  0.1165 -0.0298 -0.1673
16984W        W33118  15.363  13.172  12.662  0.0116 -0.2794  0.1250
16985W        W33119  10.992   2.631  13.872  0.2038  0.1147  0.0822
16986W        W33120   6.916  13.495   3.442 -0.0209  0.3746 -0.2615
16987W        W33121   4.923  12.809   5.048  0.3126  0.1500 -0.0868
16988W        W33122   6.280   1.792  10.898 -0.1288 -0.0510 -0.0298
16989W        W33123   2.867   7.321   3.749 -0.0893 -0.0177 -0.1751
16990W        W33124   3.926   4.682  13.093  0.2055  0.2447 -0.0512
16991W        W33125  17.744   7.791   9.338  0.0165 -0.3256 -0.0002
16992W        W33126   1.484  14.766   3.453 -0.0881  0.0397  0.2930
16993W        W33127  14.705  18.732   2.832 -0.5143 -0.0855 -0.2189
16994W        W33128  11.584  14.637  13.866  0.0198 -0.0552  0.3070
16995W        W33129   5.187  13.647  13.964  0.0901 -0.2774  0.0533
16996W        W33130   3.288   7.436   4.675 -0.3169 -0.0663  0.0137
16997W        W33131   6.147   8.732   2.044  0.0562  0.2311 -0.1305
16998W        W33132   3.560   7.069  12.925 -0.0301 -0.3511 -0.1276
16999W        W33133   5.912  17.261  11.476 -0.4645  0.0747  0.0803
17000W        W33134  12.439   0.879  12.542  0.0674  0.0729  0.0826
17001W        W33135  17.152   1.679  10.275  0.1558 -0.3764 -0.1350
17002W        W33136  12.408  13.517  14.420 -0.2343  0.3238  0.1130
17003W        W33137  14.581   9.498   4.541  0.1219  0.1939 -0.1879
17004W        W33138  16.982  18.474  13.253 -0.1656 -0.1650 -0.3635
17005W        W33139   3.922   4.050  11.476 -0.2243 -0.0143 -0.2099
17006W        W33140  16.021  12.038   5.247  0.0786  0.0368  0.0934
17007W        W33141  12.918   8.490   2.366 -0.0814  0.1760 -0.0104
17008W        W33142  10.449   1.902   4.828  0.1929  0.0383 -0.0628
17009W        W33143  14.881  13.947   3.579 -0.0617 -0.1052 -0.1261
17010W        W33144   7.464  15.489   1.286  0.2158  0.0291  0.3190
17011W        W33145   9.952   6.392   3.841  0.4148  0.3081  0.2396
17012W        W33146  14.340  11.551  13.532 -0.4179 -0.2776 -0.3950
17013W        W33147   8.296  11.697  12.161 -0.1513  0.0830  0.2738
17014W        W33148   4.502   8.167  14.041  0.0559  0.0916 -0.1504
17015W        W33149  15.026   1.312  12.796 -0.1147 -0.2962 -0.1344
17016W        W33150   7.918   6.309   4.723 -0.1912 -0.1371  0.0317
17017W        W33151   2.764  12.512   4.058  0.3460 -0.0400 -0.0629
17018W        W33152  14.058  18.971   3.937  0.2875  0.2363 -0.0643
17019W        W33153   7.587  11.025   0.392  0.1206  0.0477  0.1000
17020W        W33154  10.307  17.089  12.342 -0.2899 -0.1048  0.2422
17021W        W33155  12.718  12.317  14.406  0.2585  0.0158  0.1156
17022W        W33156   7.552   3.500   4.479  0.1753  0.2740  0.1757
17023W        W33157  10.388   3.750  12.445 -0.0058  0.0645 -0.0498
17024W        W33158  18.362   5.007  13.993  0.1302  0.0938 -0.3577
17025W        W33159  14.036   4.160   3.638  0.0736 -0.0573 -0.3201
17026W        W33160  14.490   5.875   2.753 -0.2377 -0.2456 -0.1545
17027W        W33161  17.384   1.906  14.804 -0.1242  0.1744  0.2329
17028W        W33162  14.099   3.918  11.396 -0.1098  0.0841  0.1798
17029W        W33163   5.216   1.272   2.259 -0.0518 -0.1820  0.0340
17030W        W33164   2.899   7.175  14.987  0.0970  0.5634 -0.0069
17031W        W33165  18.941  12.025   0.647  0.1500  0.1400  0.2341
17032W        W33166  12.036  10.430  12.923 -0.1365  0.2805  0.1243
17033W        W33167  10.492  16.245   2.404 -0.1523 -0.2943 -0.2253
17034W        W33168  14.366   2.055  12.114 -0.0334  0.1373 -0.0556
17035W        W33169   3.188  16.048   0.415 -0.0386  0.5203  0.0971
17036W        W33170   2.637  12.684  13.467  0.2251 -0.1779 -0.0147
17037W        W33171   6.824   6.546   4.885  0.1933  0.0784 -0.1329
17038W        W33172   6.621   9.038   2.265  0.3052  0.1492 -0.2374
17039W        W33173  15.041   5.219   0.344  0.2173  0.3548  0.2063
17040W        W33174   4.629   0.685  12.398  0.1381  0.1600  0.0410
17041W        W33175  17.629   5.272   5.296  0.0097  0.0131  0.1774
17042W        W33176   4.786   6.194   1.380 -0.1107 -0.0479  0.1945
17043W        W33177   1.418  12.178  12.157  0.2356  0.0109 -0.2967
17044W        W33178  14.022  10.740  10.726  0.0354 -0.1782  0.1956
17045W        W33179   4.671   2.060   1.081  0.0643  0.2984 -0.1576
17046W        W33180  12.130   1.309   4.989 -0.1891  0.2108  0.2285
17047W        W33181  12.051   7.312   1.870 -0.4086 -0.2772 -0.0164
17048W        W33182   4.008  19.086   0.210  0.0358 -0.3494 -0.1937
17049W        W33183  13.883  13.597   5.627  0.0481  0.0532 -0.2245
17050W        W33184  13.024   6.035  12.700 -0.1420  0.0037  0.3028
17051W        W33185   6.226  12.107  14.394 -0.1747 -0.0574 -0.1815
17052W        W33186   0.118  12.180  10.659  0.0296 -0.1293 -0.2979
17053W        W33187  12.069  16.879   5.285  0.1090  0.2449  0.0858
17054W        W33188   3.200  12.009  13.737  0.3093 -0.2299 -0.0522
17055W        W33189   8.893   9.123   1.363  0.1887  0.1176  0.0791
17056W        W33190  16.300   8.636  10.783 -0.0425  0.0993  0.2912
17057W        W33191   9.978   7.500  14.544  0.0491 -0.0198 -0.1883
17058W        W33192   9.148   8.648  14.688 -0.0022  0.2547  0.0013
17059W        W33193   6.264   9.808   9.165  0.0085  0.0118  0.4139
17060W        W33194  10.463  15.443   2.982 -0.2773  0.1161 -0.2495
17061W        W33195  13.354   2.714   0.070 -0.0017 -0.1033  0.1438
17062W        W33196  11.357  11.657   1.601  0.0265 -0.2457  0.0678
17063W        W33197  15.525  16.641   0.058  0.0301  0.0789 -0.0181
17064W        W33198   9.046  12.987   5.126 -0.0359 -0.2546  0.1270
17065W        W33199   5.162   9.316  14.078 -0.0157 -0.2437 -0.0137
17066W        W33200   5.722   5.359   0.018 -0.1954  0.0294 -0.1944
17067W        W33201   9.365  18.306  12.018  0.2710  0.1677  0.1250
17068W        W33202   4.603   4.219  14.737 -0.1432  0.1282 -0.2792
17069W        W33203  10.569  15.739  13.545 -0.1367 -0.2778  0.0001
17070W        W33204  12.387  10.388  13.944  0.0666  0.1877 -0.2211
17071W        W33205  10.228  12.235  10.256  0.1116 -0.0503  0.3023
17072W        W33206   7.468  19.209  14.734 -0.2026 -0.2926 -0.0641
17073W        W33207   5.911   5.680   4.782 -0.1803 -0.0069 -0.3700
17074W        W33208   8.032  18.125  12.804  0.2292  0.1258  0.2706
17075W        W33209  12.283   8.407  14.929  0.1226 -0.3072  0.3633
17076W        W33210   4.482  17.892   3.607 -0.0992  0.1057 -0.2066
17077W        W33211   7.143  17.232   1.453  0.0048  0.1286 -0.0626
17078W        W33212   5.042  15.355  14.398  0.0850 -0.2080 -0.2143
17079W        W33213   9.264  15.050  11.117 -0.2568 -0.0647  0.0748
17080W        W33214   9.003   3.292  10.714  0.2094  0.0904  0.0613
17081W        W33215   1.132   0.126  12.469  0.0465 -0.0455 -0.0193
17082W        W33216   2.302  12.441  14.611 -0.2441 -0.0440  0.1014
17083W        W33217  14.638   3.692   3.266 -0.0436 -0.0230  0.0553
17084W        W33218   1.789   7.633   5.057  0.0816  0.2684  0.2688
17085W        W33219  18.025   3.775  13.706  0.2728  0.0220 -0.1136
17086W        W33220   1.188  14.773  12.471 -0.0331  0.1008  0.4289
17087W        W33221  16.909   2.549  14.685  0.0447 -0.0776  0.1666
17088W        W33222   8.577   4.612   1.360  0.1221  0.0023  0.0790
17089W        W33223  18.399   5.914  13.048 -0.0979 -0.1874  0.0820
17090W        W33224   4.595   4.549  13.241  0.0080 -0.1457  0.0291
17091W        W33225   1.372   0.086   4.679 -0.0884  0.2444 -0.2293
17092W        W33226   8.853   4.025  14.008  0.2094 -0.0421 -0.0029
17093W        W33227   3.158  11.086   1.460 -0.3361  0.0035 -0.0741
17094W        W33228   0.501  17.838  11.417  0.0743  0.0482 -0.0135
17095W        W33229   7.854  12.323  13.363  0.1631 -0.2691 -0.4622
17096W        W33230  15.932  17.448   2.260  0.3668  0.0189 -0.1094
17097W        W33231   3.436  12.624   1.014 -0.2616  0.1030 -0.1438
17098W        W33232  17.631  18.884  12.795 -0.0909  0.2817  0.3608
17099W        W33233  13.899  18.214  13.754  0.1117  0.1355  0.2615
17100W        W33234   7.830  10.841  12.493 -0.1872 -0.1330  0.2026
17101W        W33235   8.446  10.437  11.969  0.1084 -0.2576  0.2351
17102W        W33236  10.321   8.815   1.606  0.0342 -0.0128  0.1732
17103W        W33237  18.495  10.490   0.478 -0.0172  0.1220 -0.0920
17104W        W33238   8.639  17.746  13.685 -0.2733  0.0682  0.0873
17105W        W33239   8.974  16.938   9.484  0.0751  0.1108  0.2144
17106W        W33240  19.072  17.723   1.387  0.1599 -0.1484  0.1650
17107W        W33241  18.316   9.047  12.171 -0.1555 -0.2738  0.0896
17108W        W33242  10.304  18.381   2.504  0.1464 -0.2959  0.1820
17109W        W33243   1.611  12.829   3.118  0.1722 -0.0694  0.0337
17110W        W33244  10.215   7.072  12.512  0.1173  0.0374  0.0818
17111W        W33245   1.900  17.822   2.757  0.2867 -0.2042 -0.1350
17112W        W33246   0.297   2.426   0.708  0.0735 -0.1869 -0.1217
17113W        W33247   7.869   5.921   2.294 -0.1468 -0.0100 -0.0752
17114W        W33248   0.672   9.336  14.015 -0.1610  0.0744 -0.5297
17115W        W33249  10.168  14.352   5.087 -0.0622  0.1142 -0.1312
17116W        W33250  15.530   6.303  13.478 -0.1324  0.1211  0.2079
17117W        W33251  17.077   5.250  10.265 -0.2403  0.2503  0.0309
17118W        W33252   7.458  16.617   3.588 -0.2220 -0.0465  0.1775
17119W        W33253  16.280  16.879   4.367  0.0444 -0.0411 -0.0105
17120W        W33254   7.280  11.170   3.579 -0.1727  0.0037 -0.2475
17121W        W33255  14.166  14.947   2.759 -0.0392 -0.1144 -0.1668
17122W        W33256   4.412   8.928   4.987  0.0828  0.0240 -0.1315
17123W        W33257  16.937   4.935   2.904  0.0244 -0.0613 -0.0721
17124W        W33258  19.310  10.532   4.705 -0.2494 -0.1736 -0.0136
17125W        W33259   6.288  11.646   3.623  0.0581 -0.1585  0.2887
17126W        W33260  12.401   6.850   4.007  0.0309 -0.1180  0.0811
17127W        W33261   7.413   9.830   2.292  0.2186 -0.0721  0.0880
17128W        W33262   2.216   3.201  14.823 -0.0696 -0.1325 -0.2220
17129W        W33263  12.328  19.109  12.881  0.2856  0.2425  0.0871
17130W        W33264   3.342   4.409  12.406 -0.0133  0.0552  0.1491
17131W        W33265   8.400  17.824  14.587  0.2036 -0.0065 -0.2456
17132W        W33266  10.078  10.733   0.814  0.2103 -0.1063  0.0816
17133W        W33267   9.635   4.869   0.394 -0.3917 -0.1970  0.3743
17134W        W33268   8.658  10.695   3.061  0.0990  0.0205 -0.1571
17135W        W33269  11.919  11.826  13.444 -0.4241 -0.2146 -0.1664
17136W        W33270   6.148   9.531   4.666  0.1278 -0.3427 -0.2508
17137W        W33271   3.818  18.335   0.369  0.1448 -0.4380  0.0558
17138W        W33272  16.142  12.376  12.300 -0.1841 -0.2006 -0.1553
17139W        W33273   7.191   1.114   0.832 -0.0175  0.2089 -0.3477
17140W        W33274  15.967  11.284   3.289 -0.2478  0.4318 -0.2840
17141W        W33275  18.371  17.534   4.105 -0.0976 -0.2385 -0.1018
17142W        W33276   0.204   4.346  14.726  0.1239  0.1465 -0.2717
17143W        W33277  12.169  10.911  13.028  0.0745  0.1510  0.2392
17144W        W33278  17.645   1.102  13.761  0.4133 -0.0901 -0.0229
17145W        W33279   9.490  18.946  12.974  0.0960  0.2379 -0.0384
17146W        W33280   0.462   5.430   3.352  0.1590  0.0329  0.1463
17147W        W33281   6.640   3.211   3.013  0.1696  0.2035  0.0130
17148W        W33282   8.513   6.736   0.235 -0.0347  0.1625  0.0608
17149W        W33283   8.267  17.547   3.818  0.1267 -0.1740  0.0704
17150W        W33284   0.686   6.476   2.740 -0.1989  0.0384 -0.0503
17151W        W33285  13.522  14.273  10.235  0.0075 -0.0436  0.2335
17152W        W33286   1.603  12.316   5.321 -0.0243 -0.1090 -0.1538
17153W        W33287   8.362   9.785   1.052  0.1882  0.1403 -0.1059
17154W        W33288  13.721   7.657  13.422 -0.1117 -0.0742 -0.0876
17155W        W33289   9.636   8.136   1.650 -0.2331 -0.1416 -0.2510
17156W        W33290  17.010   1.327   2.218  0.0042  0.1987  0.1484
17157W        W33291   6.977  12.451   5.140 -0.1429 -0.3866 -0.3195
17158W        W33292   6.269   9.614   3.455 -0.0158 -0.1550  0.0730
17159W        W33293   2.532   8.978  13.184  0.1254 -0.0103  0.0710
17160W        W33294   0.680   2.196  14.802  0.2855  0.1570 -0.1318
17161W        W33295  11.241  16.177  12.973  0.2619  0.0917  0.4250
17162W        W33296  17.261   6.500   1.750  0.4932  0.1869 -0.0965
17163W        W33297  19.320  13.079  10.422  0.1784 -0.0689  0.2262
17164W        W33298  13.799  15.934   1.465  0.0509  0.2389  0.0013
17165W        W33299  16.997  11.106   1.114 -0.2863 -0.0921 -0.1178
17166W        W33300  14.226  17.289   3.420  0.1054 -0.1891  0.0014
17167W        W33301  16.250   5.746   1.444  0.1773  0.0976  0.0981
17168W        W33302   6.158   0.253   2.168  0.0440  0.2558 -0.1086
17169W        W33303   0.160  16.852   1.035 -0.2028  0.2335 -0.0619
17170W        W33304   9.113  13.985   5.115  0.0127 -0.1558  0.0057
17171W        W33305   4.463   3.806  14.349 -0.0257 -0.1401 -0.3454
17172W        W33306  11.297   9.334  12.854 -0.0874 -0.2940  0.4182
17173W        W33307   5.221  14.643  10.101 -0.2034  0.0504 -0.1016
17174W        W33308  13.432  11.374   2.440 -0.2332 -0.0743  0.0625
17175W        W33309  11.981  18.158   1.957 -0.0773  0.0541  0.0285
17176W        W33310  17.865  19.064   4.220  0.1247  0.1534  0.2214
17177W        W33311  10.696  12.856   1.442  0.0506  0.2361 -0.0245
17178W        W33312  10.815  18.345   2.491  0.0162  0.2158  0.0628
17179W        W33313  12.405   8.713  13.865  0.0572 -0.0828  0.2359
17180W        W33314  15.838  13.321   9.681  0.0015  0.0442  0.4280
17181W        W33315   5.940  19.247   0.214  0.1235  0.2923 -0.0127
17182W        W33316   5.651   9.498  14.180 -0.1522  0.5074 -0.0805
17183W        W33317   2.869   6.065  10.454  0.1255 -0.1733 -0.0134
17184W        W33318   5.972  15.102   4.797  0.1502 -0.1910  0.0992
17185W        W33319  18.398   0.627   4.709  0.1556 -0.2609 -0.2301
17186W        W33320   1.537  15.682   1.746 -0.1686  0.0111 -0.1554
17187W        W33321  12.964   9.773   4.811 -0.2313 -0.3019 -0.4041
17188W        W33322  14.979  15.854  10.478 -0.2323 -0.2128  0.2251
17189W        W33323  10.918  16.597  14.143  0.1189  0.2145  0.1062
17190W        W33324  11.517   3.593   5.173  0.3132 -0.1384 -0.2554
17191W        W33325   7.497  17.418   3.036 -0.0955 -0.0975  0.0001
17192W        W33326  16.966  13.030   0.074 -0.0608  0.1670  0.0619
17193W        W33327  17.885   5.597  12.026  0.3416  0.0860  0.0229
17194W        W33328   4.425   3.073   4.254 -0.1944 -0.1266 -0.0813
17195W        W33329   1.387   5.750  14.587  0.2952  0.0929 -0.0819
17196W        W33330  18.391  12.720  12.275 -0.5257 -0.0795 -0.0660
17197W        W33331   1.079  11.936  10.923  0.0636  0.1005 -0.2715
17198W        W33332  10.029   0.728   1.312  0.2892 -0.2453  0.1981
17199W        W33333  14.579   6.868  10.844  0.0167  0.0931 -0.0812
17200W        W33334  15.320  14.236  14.944 -0.2908  0.0129  0.2469
17201W        W33335   5.216  18.503  13.122 -0.0293 -0.1082  0.2056
17202W        W33336  16.981  19.246  13.794 -0.1983 -0.2157 -0.1784
17203W        W33337  16.535   4.183   2.378  0.1031  0.2921  0.2375
17204W        W33338  16.138  16.400  12.274 -0.2265  0.2796  0.0622
17205W        W33339   5.018  14.852  12.533  0.2650 -0.0876  0.0878
17206W        W33340  15.407   8.872   4.691  0.3679 -0.0381  0.2158
17207W        W33341   4.484   4.687   3.834 -0.4007 -0.0697  0.2210
17208W        W33342   7.556  15.001   0.002 -0.0608  0.2217  0.1889
17209W        W33343   4.757   0.399  13.885 -0.0328  0.0435  0.3131
17210W        W33344  12.344  17.954   1.000 -0.1418  0.0172 -0.1391
17211W        W33345  11.355   6.280   1.714 -0.1274 -0.0874 -0.3161
17212W        W33346  16.668   2.284   0.647 -0.0448 -0.3395 -0.0123
17213W        W33347   7.157   2.991  14.409  0.1824 -0.1854  0.0010
17214W        W33348   5.170   4.617  10.435  0.0354  0.0571 -0.1825
17215W        W33349  17.972  15.161   2.709 -0.2539 -0.3071  0.0003
17216W        W33350   1.224   1.233   1.562  0.1847 -0.1784 -0.0952
17217W        W33351  13.980   2.325   2.993 -0.2157  0.0068  0.0444
17218W        W33352   5.247  11.287  13.434 -0.1079 -0.0406  0.2710
17219W        W33353   0.438   3.827  13.259 -0.1287  0.1764  0.0250
17220W        W33354   4.340   6.731   3.948  0.0695  0.1328  0.0326
17221W        W33355   6.468   1.162   0.030  0.1546 -0.1035  0.3255
17222W        W33356   9.988   6.075  11.488  0.4139  0.4566  0.2453
17223W        W33357  11.438  12.277   4.474  0.3841 -0.3277 -0.1475
17224W        W33358   1.357   4.321   2.781  0.2629  0.0881 -0.1327
17225W        W33359   7.743  17.603  10.241 -0.1675  0.0255  0.1564
17226W        W33360   9.894  11.398  13.483 -0.1976  0.1579 -0.0222
17227W        W33361  10.949   8.001  13.092  0.2172  0.1341  0.1266
17228W        W33362   2.967  15.733   0.072 -0.0364  0.0301 -0.0972
17229W        W33363  12.379   9.411   0.126  0.1102 -0.0190 -0.2392
17230W        W33364  14.713   9.324   1.585  0.3853  0.0126  0.1752
17231W        W33365   0.989   8.276   3.219 -0.3729  0.0271  0.0740
17232W        W33366  15.666  16.016   3.793 -0.1028 -0.1969  0.4829
17233W        W33367   1.815   9.627  13.546 -0.0355  0.0152 -0.1186
17234W        W33368  16.432   1.706   4.048  0.0908 -0.2070 -0.0449
17235W        W33369  10.356  16.668  12.577 -0.0828 -0.3850  0.1509
17236W        W33370  10.359  13.854  12.890 -0.2102  0.0744  0.1856
17237W        W33371  19.196   4.028  14.972  0.2122 -0.0730  0.2388
17238W        W33372   2.974  10.707   3.297  0.1300 -0.3764 -0.2246
17239W        W33373   8.319   4.634  11.091  0.1320 -0.2201  0.0284
17240W        W33374   3.355  13.593   4.132 -0.0051 -0.2722 -0.0710
17241W        W33375  18.504   1.295  12.982 -0.1249  0.2804  0.0245
17242W        W33376   7.195  11.207   1.841  0.1542  0.1206  0.1489
17243W        W33377   0.050   4.909  11.653 -0.2390 -0.4093  0.2186
17244W        W33378   0.030  17.953   4.186  0.1936  0.2551  0.0919
17245W        W33379  12.532   3.867   1.049  0.0340  0.0400  0.2095
17246W        W33380   1.666  16.519   2.872 -0.0459 -0.3281 -0.1847
17247W        W33381   8.358   9.022  10.959 -0.2681 -0.2171 -0.1256
17248W        W33382   7.927   0.276   3.044 -0.0742 -0.3761 -0.1410
17249W        W33383   6.619  13.708  12.077  0.1025  0.3790 -0.0138
17250W        W33384  15.436  10.278  13.178 -0.2937 -0.2150 -0.1964
17251W        W33385  10.165  16.803  11.414 -0.0687  0.2912 -0.2812
17252W        W33386  10.965  11.006  11.609  0.0690  0.1527 -0.1342
17253W        W33387  12.843  12.578  13.869  0.2512  0.1879  0.2425
17254W        W33388  15.198   1.705   1.374  0.0443 -0.2238  0.0790
17255W        W33389   7.736  11.381   2.037  0.0397  0.1041 -0.1171
17256W        W33390   8.397  13.203  13.371  0.0473  0.1691 -0.2356
17257W        W33391  11.932  15.143   0.178  0.0233  0.0947  0.0112
17258W        W33392   9.011  13.011   1.675  0.2919 -0.2816  0.0343
17259W        W33393   1.008   1.437   1.068 -0.4324  0.2148  0.3296
17260W        W33394   4.652  12.076  11.741 -0.2053 -0.2278  0.1205
17261W        W33395  11.188   4.144   3.325  0.0704  0.1249 -0.2816
17262W        W33396  13.972   8.177  12.275 -0.1261 -0.0620  0.3057
17263W        W33397   3.032   1.280  10.134 -0.0474 -0.3606  0.2031
17264W        W33398  10.178   5.007   1.147 -0.1645  0.2965  0.0184
17265W        W33399   0.261  19.213   2.793 -0.0022 -0.0045 -0.0465
17266W        W33400  18.508   1.970  14.809  0.1784 -0.3858 -0.1604
17267W        W33401  15.143   2.405   2.804 -0.0775 -0.1923 -0.2264
17268W        W33402  10.470   6.830   4.722 -0.0970 -0.1794 -0.2292
17269W        W33403  11.447  11.416  11.689  0.0004  0.0313 -0.0195
17270W        W33404   0.264   1.718   3.446 -0.1420  0.1042  0.0773
17271W        W33405  10.288  12.460   1.417  0.3076 -0.2039  0.2100
17272W        W33406   1.518  10.780  14.153 -0.0993 -0.0251  0.0999
17273W        W33407  15.430   8.279   4.729  0.1344 -0.2662 -0.1472
17274W        W33408  16.064   1.130  11.592 -0.0669 -0.0773  0.0966
17275W        W33409  14.879  16.737  11.432  0.2229  0.0339  0.0060
17276W        W33410  17.331  15.764   5.170 -0.4679  0.1195 -0.0936
17277W        W33411  19.284   3.194  12.201 -0.3343  0.2643 -0.0728
17278W        W33412  15.825   2.936  10.075 -0.3694  0.0144 -0.0861
17279W        W33413  10.272  13.759   5.354  0.0783 -0.2251  0.3345
17280W        W33414   2.555  15.842   0.832 -0.0924 -0.1233  0.1948
17281W        W33415   7.668  12.221  12.103  0.1276 -0.1678  0.0257
17282W        W33416   4.359  13.114   0.491 -0.2306  0.1367 -0.0409
17283W        W33417  15.246  10.007   0.732  0.4125 -0.3334  0.0864
17284W        W33418   0.733  16.693  11.593  0.4100  0.2528 -0.1684
17285W        W33419   7.132   9.029   2.449  0.1080 -0.1575  0.1087
17286W        W33420   8.373  17.956   4.906  0.2092 -0.2556  0.1423
17287W        W33421  10.940  16.965   2.030  0.2140 -0.2471  0.1878
17288W        W33422  12.534  10.037   3.612  0.1873  0.2238  0.1362
17289W        W33423  15.137  10.395   4.769 -0.0506 -0.0399  0.2777
17290W        W33424   1.967  17.318  14.274 -0.1237 -0.1434 -0.1761
17291W        W33425  11.762  16.547  13.648  0.2720  0.0769 -0.1520
17292W        W33426   2.780   3.936   5.157 -0.3069 -0.1088 -0.3997
17293W        W33427  16.414   1.842  14.805 -0.2536  0.0243  0.3311
17294W        W33428   0.590  15.199  10.754  0.1330  0.0570  0.0399
17295W        W33429  12.201  15.242   3.366  0.3418  0.2659 -0.0800
17296W        W33430   9.371  16.900  12.982 -0.0329 -0.1499 -0.3386
17297W        W33431  19.054  19.114  10.329  0.1361  0.4657 -0.0586
17298W        W33432   8.354   9.218   1.244 -0.2447 -0.2316  0.1105
17299W        W33433  16.576   6.077   4.437  0.3115 -0.0592  0.2286
17300W        W33434  17.207  12.136   2.111  0.2419  0.1854 -0.0293
17301W        W33435   2.196   8.070   0.648  0.1150  0.0460  0.2062
17302W        W33436   1.160   0.073  14.445 -0.0945  0.1640 -0.1375
17303W        W33437  16.686  19.290   4.962 -0.2331  0.1525  0.1624
17304W        W33438   6.941   5.439   0.980  0.0112 -0.3106  0.1275
17305W        W33439   2.911   8.497  12.174 -0.0280 -0.2022 -0.0103
17306W        W33440  15.626   1.738  14.562 -0.1844 -0.2014 -0.0025
17307W        W33441  13.493   6.221   0.159  0.1874  0.1290  0.1874
17308W        W33442  18.613  18.582  11.666  0.1542 -0.5109  0.2579
17309W        W33443   7.729  17.473   0.194  0.1255 -0.2682 -0.2740
17310W        W33444  10.633   2.466   4.696  0.3193  0.0501  0.1796
17311W        W33445  19.047  16.702   3.795  0.1016 -0.1157  0.0640
17312W        W33446   2.480   0.270   2.143 -0.0940  0.2054 -0.2160
17313W        W33447   6.050  17.122   1.832  0.1712  0.3754 -0.1470
17314W        W33448   4.651  16.504  12.141  0.2845  0.1942 -0.3886
17315W        W33449   1.687   9.405  11.551 -0.1584 -0.4227 -0.2477
17316W        W33450   0.621   3.165  14.977 -0.0822  0.0767 -0.1362
17317W        W33451  12.187  16.574   4.472  0.1764 -0.0315 -0.0712
17318W        W33452  11.171  14.256   3.005 -0.4748 -0.2900 -0.1651
17319W        W33453  17.376   9.945  10.395 -0.3087  0.0034 -0.1706
17320W        W33454   4.159   3.174  10.687  0.0066  0.1909 -0.0269
17321W        W33455  14.328  10.097  14.910 -0.1899 -0.1954 -0.1165
17322W        W33456  16.460  10.962  11.206 -0.0097  0.0991  0.1202
17323W        W33457   9.109   2.393   0.942  0.0168 -0.1499  0.0610
17324W        W33458   2.629  18.091   4.588  0.0960  0.1563 -0.0110
17325W        W33459  10.432  11.944   3.902 -0.1536 -0.1053 -0.1440
17326W        W33460   7.991   4.496   2.981  0.1510 -0.0896  0.1540
17327W        W33461   3.646   8.671  13.893  0.0878 -0.0384 -0.1998
17328W        W33462   4.903  17.439   9.201  0.1427 -0.1370 -0.2196
17329W        W33463  15.640  10.171   0.373  0.0262 -0.2256 -0.2313
17330W        W33464  12.667  10.381   9.575 -0.1183 -0.0381  0.0335
17331W        W33465   1.241  11.218  14.305 -0.2197 -0.0947 -0.2253
17332W        W33466   7.416   7.099   1.324  0.0109  0.0843 -0.2933
17333W        W33467   9.259  15.411   2.974 -0.2562 -0.1731 -0.0568
17334W        W33468   7.083   3.432   3.241 -0.0742 -0.3066  0.0945
17335W        W33469   9.361   5.412   4.524  0.1069  0.2074  0.1939
17336W        W33470  17.656   2.887  13.648  0.2258  0.0488 -0.0653
17337W        W33471   1.095   5.334  14.775  0.2087 -0.0322  0.1431
17338W        W33472  19.298   5.585  10.299 -0.3867 -0.1100 -0.1802
17339W        W33473  13.658   3.874  10.380 -0.0953 -0.2669  0.1781
17340W        W33474   9.730   6.715  10.507  0.0743  0.3482  0.2360
17341W        W33475   1.374  13.585   1.841 -0.3329  0.3488 -0.0345
17342W        W33476   7.661   2.690   2.785  0.0467 -0.0403  0.0692
17343W        W33477  12.931   6.269   0.195 -0.1731  0.0093  0.5046
17344W        W33478  19.226   2.602  11.459 -0.0429  0.1255 -0.0861
17345W        W33479   0.012  10.987  14.994  0.2099  0.1879 -0.0433
17346W        W33480   5.924   6.789  14.800 -0.0522 -0.1207  0.0445
17347W        W33481   8.066  12.379   2.727 -0.1296 -0.0744 -0.0022
17348W        W33482   9.977   0.278   3.053 -0.1572 -0.0185  0.6755
17349W        W33483  16.551   8.276   3.959  0.3340 -0.0791 -0.4332
17350W        W33484  13.379  17.221   3.030  0.0483  0.1928  0.2286
17351W        W33485   3.209   2.095  11.185 -0.0968  0.0273  0.0262
17352W        W33486   6.116  11.631  12.491 -0.0319  0.1547 -0.0448
17353W        W33487  11.032   0.382  11.233  0.0985 -0.0845  0.2070
17354W        W33488  17.657   4.329  11.135  0.0027 -0.3761  0.1804
17355W        W33489  17.131  13.788   2.010  0.0959 -0.0898 -0.0198
17356W        W33490   7.407   8.326  11.803 -0.0636  0.1596  0.2358
17357W        W33491   3.908  16.976  13.859 -0.1630 -0.4302  0.0595
17358W        W33492   7.537   3.140   4.156 -0.0669  0.0453 -0.0944
17359W        W33493  12.041   2.760  13.077 -0.1457 -0.1512  0.0334
17360W        W33494  13.759   2.303  14.339 -0.2299 -0.0121  0.1526
17361W        W33495  13.529   8.256  11.903 -0.0712 -0.0343 -0.0227
17362W        W33496   6.944  16.415   1.979  0.1089  0.1972  0.2564
17363W        W33497   4.234   7.911   2.333  0.2480  0.1722 -0.1428
17364W        W33498   3.807   2.378   1.864  0.0615  0.2341 -0.2556
17365W        W33499   1.462  11.581  10.952 -0.0952 -0.1744 -0.1084
17366W        W33500   4.369  16.848   3.007 -0.2150 -0.2595  0.2625
17367W        W33501   5.850  11.249   4.599  0.1307 -0.0473  0.1002
17368W        W33502   1.932   7.922   3.582  0.0771 -0.0687  0.0571
17369W        W33503   8.563  18.572   4.352 -0.0019  0.1887 -0.2335
17370W        W33504   7.348   7.647  12.827  0.0528  0.1127  0.2849
17371W        W33505  12.142  17.636  12.671  0.0911 -0.0163  0.2088
17372W        W33506  17.242  18.649   3.076 -0.1516  0.0801  0.0221
17373W        W33507  18.576   3.943  13.049 -0.2327  0.1240 -0.1777
17374W        W33508  19.075   6.994  13.599 -0.0036  0.0384 -0.2145
17375W        W33509  16.549   9.899   1.660  0.0432 -0.4275  0.0868
17376W        W33510   5.070   2.853   3.331  0.2266  0.2503  0.1072
17377W        W33511   2.468   7.965  13.771 -0.0502 -0.3175  0.0898
17378W        W33512  19.334   0.990   4.265 -0.1400 -0.2073 -0.3078
17379W        W33513  18.470   5.532  10.930  0.1453 -0.0242 -0.3470
17380W        W33514   6.017  10.278  14.656  0.2928  0.0210  0.0938
17381W        W33515  11.957  13.977   0.669 -0.2008  0.0964  0.1722
17382W        W33516  18.895  18.251  13.955  0.1443  0.2640 -0.1746
17383W        W33517   7.122  14.931   3.087 -0.1114  0.0145 -0.1353
17384W        W33518   3.555   7.072  14.996 -0.2557 -0.3996 -0.2559
17385W        W33519  11.389  18.435  11.717  0.4320  0.2409  0.0211
17386W        W33520  16.010  14.347  10.701 -0.0851  0.0078  0.0739
17387W        W33521   4.522   3.077   3.410  0.1607 -0.0794  0.1190
17388W        W33522  10.214   3.189   1.868 -0.2042  0.4597  0.1151
17389W        W33523  17.861  19.250   2.174 -0.1049 -0.3541 -0.0245
17390W        W33524   6.419  17.630  11.198 -0.1534 -0.3160  0.0283
17391W        W33525   3.495  16.997   3.851 -0.5068  0.2358 -0.4738
17392W        W33526   8.360  15.684   2.918 -0.0401  0.1816  0.1247
17393W        W33527  19.268   0.795  13.291  0.0539  0.2707 -0.0698
17394W        W33528   9.620   2.853  11.352  0.2219 -0.5179  0.1367
17395W        W33529  12.240   1.844   0.023 -0.2060  0.0674 -0.1095
17396W        W33530   1.102  10.065  13.892 -0.0283 -0.1704 -0.0940
17397W        W33531   2.348  12.130  12.308  0.1942 -0.0840 -0.0327
17398W        W33532  17.406   3.076   2.719  0.2229  0.1527  0.1295
17399W        W33533  11.031  18.669   2.966  0.1984 -0.1820 -0.1429
17400W        W33534  13.725  11.320   1.582  0.0842  0.0181 -0.0063
17401W        W33535  12.157   4.539  12.974  0.0033  0.4652  0.1229
17402W        W33536   4.615   6.047   0.408  0.1748  0.1883  0.1161
17403W        W33537  13.435   8.937  13.740  0.2509 -0.0581  0.6956
17404W        W33538  17.913  12.628   4.844 -0.2336 -0.0214 -0.1704
17405W        W33539   0.326  16.887  11.843  0.3350  0.0212  0.1999
17406W        W33540  17.349   3.587   4.795 -0.2212  0.1985 -0.2466
17407W        W33541   8.341  11.146   1.186 -0.2181  0.2875  0.1588
17408W        W33542   7.138   9.829   1.886  0.3160 -0.2748 -0.1162
17409W        W33543   8.599  12.296  11.852 -0.0722 -0.0556 -0.0302
17410W        W33544   3.913  13.966  14.039  0.0803  0.0289  0.2805
17411W        W33545  18.454  17.649  12.643  0.1727 -0.0006  0.0991
17412W        W33546   2.611   0.435   4.033  0.1219  0.0864  0.2796
17413W        W33547  15.325   2.784   9.429  0.0752  0.1511 -0.3744
17414W        W33548  15.324  10.180  11.568  0.0810  0.1157  0.2339
17415W        W33549  13.108   5.480  12.663  0.0182 -0.0684 -0.0537
17416W        W33550  14.410   7.695  12.916 -0.3313 -0.4138 -0.1254
17417W        W33551   3.843   8.509   3.478  0.1375 -0.1850  0.1960
17418W        W33552  13.517   7.789   2.455  0.2586 -0.0485  0.0114
17419W        W33553   0.008  16.903   2.720 -0.0208  0.0495 -0.0784
17420W        W33554  12.007  16.839  13.244  0.0426 -0.3006 -0.0611
17421W        W33555   8.922   9.504  11.800  0.0460 -0.3309  0.0649
17422W        W33556   4.160  16.074  12.646 -0.2598  0.0722 -0.2034
17423W        W33557   0.299   1.960  13.707 -0.1481  0.3220  0.1263
17424W        W33558   5.600  12.725  12.484 -0.3210  0.2223 -0.0555
17425W        W33559  13.578   0.775  13.684 -0.0364 -0.0127 -0.0007
17426W        W33560  13.311   5.944  14.303 -0.0633  0.0056 -0.0958
17427W        W33561  11.027   2.467  14.759  0.3054 -0.1382 -0.0695
17428W        W33562  16.766   6.427  13.171 -0.0807 -0.0176 -0.1271
17429W        W33563  10.228   5.464   1.296 -0.4565 -0.0523 -0.3362
17430W        W33564   5.595  10.459  13.784 -0.0487 -0.1313 -0.2094
17431W        W33565  11.108   4.630   5.828 -0.0858  0.2638 -0.0034
17432W        W33566  17.226   2.081   2.849  0.3684 -0.2414 -0.1624
17433W        W33567   3.806   2.324  14.894  0.4588  0.0700 -0.0754
17434W        W33568  14.344  17.062  12.881 -0.1335  0.1195 -0.2149
17435W        W33569  19.215  17.850   4.708 -0.0693  0.3734  0.3754
17436W        W33570  18.436   9.042   2.509 -0.2933  0.1288 -0.1035
17437W        W33571  15.235   2.955  13.222 -0.3297 -0.1200 -0.2519
17438W        W33572  13.780   4.266  12.682 -0.3209  0.1479 -0.2172
17439W        W33573   6.442  13.222   5.298  0.1908 -0.0105  0.0179
17440W        W33574   7.997   4.540  12.363  0.0621  0.2537 -0.0930
17441W        W33575  11.208   2.333   4.564 -0.2611 -0.0623  0.1458
17442W        W33576  19.148  16.871  13.853  0.1224 -0.1964  0.1035
17443W        W33577  14.549   5.738  11.148 -0.0770  0.1665 -0.0824
17444W        W33578   2.965   9.785   0.246  0.1379  0.0855 -0.1893
17445W        W33579   5.469  17.714  11.392 -0.3219 -0.1200 -0.0540
17446W        W33580  12.554   8.268  14.546  0.1234  0.0224 -0.0308
17447W        W33581  11.845  13.832   0.126 -0.2422 -0.0020 -0.2047
17448W        W33582   6.202   5.285  11.603 -0.2310 -0.2707  0.0905
17449W        W33583   8.728   0.169  13.469  0.1772  0.0243 -0.0682
17450W        W33584   0.020   3.760  12.368  0.0888  0.4635 -0.1648
17451W        W33585  11.188  10.525   3.126  0.1258  0.0599 -0.1404
17452W        W33586  16.536  14.832   0.389  0.0690 -0.1338  0.1312
17453W        W33587  13.560  18.766   2.624  0.1427 -0.1165 -0.3851
17454W        W33588   4.612  13.282  12.228  0.1995 -0.2388  0.1312
17455W        W33589   0.503   3.978  14.769  0.1574  0.1762  0.0647
17456W        W33590   0.504   1.182   0.427  0.1878  0.0769  0.3930
17457W        W33591  18.060   7.955   0.259  0.3607  0.0256  0.0803
17458W        W33592  16.180  12.208  13.063 -0.0432  0.1184  0.0715
17459W        W33593   4.605  12.276   0.776 -0.1923  0.2959  0.0374
17460W        W33594   3.582  10.958  11.215  0.0823 -0.0056  0.2098
17461W        W33595  12.370  11.006  13.459  0.3490 -0.0090  0.0668
17462W        W33596  12.710  10.490   1.696  0.2630  0.2956  0.3599
17463W        W33597   9.561  14.587   3.992  0.0880 -0.1846  0.1298
17464W        W33598  17.646   8.414   4.136 -0.1074 -0.0908  0.2002
17465W        W33599  16.635   2.850  12.089  0.1230 -0.0794  0.0124
17466W        W33600  10.804   6.825  13.859 -0.1143  0.0221  0.0546
17467W        W33601   9.659   0.855  13.125  0.0491 -0.0391 -0.0967
17468W        W33602  14.842   4.704  13.142  0.0417  0.5450 -0.1867
17469W        W33603  13.384  17.777   3.074 -0.1771  0.2121 -0.1555
17470W        W33604   7.998  15.264  12.482 -0.0369 -0.0637  0.0608
17471W        W33605   5.356   4.620   1.439  0.0973 -0.0337  0.0458
17472W        W33606   1.705   6.754  12.944 -0.0221  0.2318  0.1127
17473W        W33607  16.925   5.936   0.020 -0.1221  0.0788  0.2716
17474W        W33608  14.056  17.833   0.157 -0.0520 -0.1347 -0.2392
17475W        W33609  11.426   2.352  13.720 -0.0419 -0.2144  0.1543
17476W        W33610   5.696   1.207   2.287 -0.2055  0.2634 -0.3394
17477W        W33611  15.610  14.299  11.443 -0.0138 -0.0244 -0.0121
17478W        W33612   3.370   3.826   3.791 -0.2172 -0.1348 -0.0574
17479W        W33613   6.429   0.269   1.682  0.3166  0.1835 -0.0509
17480W        W33614  13.898   2.190   0.926  0.2163  0.1190  0.0391
17481W        W33615   5.975   1.961  14.785 -0.1382 -0.0266 -0.0531
17482W        W33616  13.840   2.605   3.414 -0.3158  0.1662 -0.0650
17483W        W33617  15.115  10.448   2.881  0.3026 -0.2672 -0.4971
17484W        W33618  12.313  14.470  14.144 -0.1267 -0.1222 -0.0661
17485W        W33619  15.204  19.021  11.144 -0.1934  0.0895  0.1971
17486W        W33620   8.712  16.947  12.460  0.0650 -0.1068  0.0238
17487W        W33621  11.946   1.948   4.563 -0.2711  0.0198 -0.0368
17488W        W33622  14.017  16.897  14.927 -0.1663 -0.0604  0.3390
17489W        W33623  12.481   0.281  11.225 -0.2525  0.3239  0.0347
17490W        W33624  11.408   5.757   4.468 -0.0483  0.4220  0.0973
17491W        W33625  17.042   9.583  11.216  0.1639  0.2379 -0.2699
17492W        W33626  18.851   8.051   3.512  0.4299  0.0299  0.2911
17493W        W33627   9.835   8.447   9.516  0.3190 -0.3292 -0.1163
17494W        W33628  16.256   8.133   9.962  0.1215 -0.2824 -0.0321
17495W        W33629   1.457  12.373   0.192 -0.3522  0.2052  0.0395
17496W        W33630  10.217  13.393   0.935 -0.0129  0.2136 -0.2896
17497W        W33631   7.111  16.855   0.661  0.0247  0.0753 -0.0491
17498W        W33632  14.822   9.034   3.830  0.1614  0.1557  0.0213
17499W        W33633  15.424  17.486  10.467  0.1073  0.1886 -0.0804
17500W        W33634   3.855  16.171   5.725 -0.1011 -0.0839 -0.0860
17501W        W33635  17.949   2.237  14.220  0.3200 -0.1828  0.4386
17502W        W33636   1.962   4.865   3.245  0.1332 -0.0505 -0.0346
17503W        W33637  11.627  11.134   4.049 -0.0693 -0.1725  0.4433
17504W        W33638  13.862  17.099  11.396 -0.0823 -0.0633 -0.5131
17505W        W33639   6.449   6.980   0.241 -0.0814  0.1234 -0.3469
17506W        W33640  10.824   2.030  12.590 -0.0760  0.3895  0.0981
17507W        W33641  12.805   8.130  12.354  0.1303  0.2490  0.1257
17508W        W33642   0.392   5.761  10.946 -0.0140 -0.1776  0.0614
17509W        W33643  11.752   5.044  12.850  0.3846  0.0078 -0.1819
17510W        W33644   9.421   4.091  11.848 -0.0000  0.1120 -0.2714
17511W        W33645   4.244   6.972  13.260  0.3023  0.0981  0.0800
17512W        W33646   7.973   9.763   2.831 -0.1739  0.0925  0.0124
17513W        W33647  12.549   2.435   4.549  0.1017 -0.3656  0.0760
17514W        W33648   6.242   6.159   3.684  0.1266  0.0493  0.1106
17515W        W33649  18.261  10.631   4.667  0.3348 -0.1550  0.0363
17516W        W33650   1.606  15.948  12.695  0.1360  0.1433 -0.0148
17517W        W33651   2.024  10.925  14.887 -0.0773  0.0385 -0.1135
17518W        W33652   9.699   3.063   3.324 -0.1566  0.0364  0.1394
17519W        W33653   7.270   4.788   5.735 -0.1086  0.1306 -0.0183
17520W        W33654  17.139  16.708  13.036  0.0790 -0.0361 -0.2427
17521W        W33655  12.748   5.819  11.874  0.1973 -0.0759  0.0829
17522W        W33656  10.613   4.573   5.786  0.3663 -0.2462  0.0004
17523W        W33657   0.111  17.065   9.371  0.0472 -0.1576 -0.2705
17524W        W33658   6.768   2.121   2.868 -0.0529  0.0747  0.2217
17525W        W33659   5.871  16.191   0.081  0.0512  0.0225  0.1203
17526W        W33660   8.754   2.797   0.896  0.0597  0.3177 -0.1729
17527W        W33661  10.293  10.095   2.278  0.2995  0.3103  0.2637
17528W        W33662  16.982  16.064   4.613 -0.1024  0.2115 -0.2108
17529W        W33663   1.907  12.244  12.030  0.2258  0.1015  0.0681
17530W        W33664  11.710  18.609   0.626  0.1193  0.1911  0.0663
17531W        W33665   9.240  15.727  14.612 -0.1105 -0.1007 -0.0147
17532W        W33666   7.611   9.724  10.372 -0.0392 -0.3595 -0.0793
17533W        W33667   3.365  14.460   3.825  0.1694 -0.0494  0.1351
17534W        W33668   1.771   4.417   3.337  0.2172  0.2189 -0.0286
17535W        W33669  10.201  15.563   0.422  0.0618 -0.2071  0.2119
17536W        W33670  17.195   3.652  12.227  0.1322 -0.0101 -0.4208
17537W        W33671   0.609  17.208  12.538  0.1222 -0.4926  0.0477
17538W        W33672  17.627   6.117   2.996 -0.2042  0.0779 -0.0307
17539W        W33673  16.688  17.177   1.062  0.0660 -0.1125 -0.2108
17540W        W33674  17.035   4.516   2.676 -0.0182  0.2434  0.0821
17541W        W33675   2.553   2.137  11.593 -0.1643 -0.1247 -0.0644
17542W        W33676  11.214  11.508   3.240 -0.1329 -0.2566 -0.4066
17543W        W33677  17.008   3.070   3.811  0.0465  0.0006  0.1138
17544W        W33678   8.189  12.862   3.827  0.1837 -0.0388 -0.0789
17545W        W33679   9.729   0.300   1.514 -0.0810  0.0364 -0.1453
17546W        W33680   0.873   4.240  14.643 -0.1217 -0.2131 -0.2099
17547W        W33681   6.679  17.478  13.218  0.2802 -0.1857 -0.1348
17548W        W33682   1.730   8.732   3.637 -0.0479 -0.1166 -0.0518
17549W        W33683   4.928  10.636  12.769 -0.1569  0.0982  0.0111
17550W        W33684   2.058   3.657   4.175  0.0684  0.0352  0.0457
17551W        W33685   2.837  14.069  10.459  0.1580  0.2485  0.1445
17552W        W33686   8.934  14.427  11.442 -0.1640  0.0023 -0.2853
17553W        W33687  17.133  18.605   3.643 -0.1072 -0.1469  0.2519
17554W        W33688   2.587  17.162   3.044  0.1148 -0.1724  0.1414
17555W        W33689   4.864   9.681  14.878 -0.0016 -0.0910  0.0332
17556W        W33690  15.850  18.396   4.481 -0.0413 -0.0022 -0.1037
17557W        W33691  11.415  13.638  10.920  0.2240  0.2560 -0.0038
17558W        W33692  14.028  13.807   4.533 -0.0364  0.4213 -0.0577
17559W        W33693  18.865   9.309   4.810 -0.1712 -0.0929 -0.2089
17560W        W33694   2.502   0.386  12.605  0.1128  0.2113 -0.1987
17561W        W33695  11.219   8.969   3.029  0.0698 -0.1358 -0.1047
17562W        W33696  16.904  12.208   3.383 -0.0764 -0.1927 -0.0074
17563W        W33697   5.953   0.185  13.541 -0.1361 -0.0908 -0.0569
17564W        W33698   8.205  15.665   5.375 -0.1595 -0.1984  0.2337
17565W        W33699  13.250  17.973   2.597  0.2203 -0.1902 -0.0911
17566W        W33700   6.894   2.467  10.865  0.2423  0.0731  0.1634
17567W        W33701  15.136   3.305   1.891 -0.1699  0.0907  0.0260
17568W        W33702   1.207   7.607   4.882  0.1225 -0.0288  0.5561
17569W        W33703  17.359  10.819   5.075 -0.2155 -0.1003  0.0393
17570W        W33704  19.331   4.280   4.750 -0.3156  0.0504  0.0975
17571W        W33705  15.506  13.809  11.503 -0.1138  0.0354 -0.2527
17572W        W33706  14.467   6.221  13.367 -0.0974 -0.0084  0.0943
17573W        W33707  10.163   8.873   9.611  0.0768 -0.3935 -0.4285
17574W        W33708   9.577  12.640  10.690 -0.0843 -0.0948 -0.1263
17575W        W33709   8.445   6.395  11.033 -0.1303  0.0540 -0.2237
17576W        W33710  13.337  17.003  14.298 -0.2942 -0.0112  0.1556
17577W        W33711   9.023  10.363   0.347 -0.1787  0.0857  0.0419
17578W        W33712   9.441   2.540   5.952 -0.3747  0.0094  0.5422
17579W        W33713  10.695   6.653  10.586  0.4362  0.0264 -0.0768
17580W        W33714  17.461  19.339  12.935  0.1224  0.0125  0.1559
17581W        W33715   3.809   3.258  12.139  0.0380 -0.2368 -0.0943
17582W        W33716   6.071   0.111   0.832  0.0872 -0.1310 -0.0299
17583W        W33717   2.072  10.590   1.455 -0.4915 -0.3281 -0.0274
17584W        W33718  10.947  15.682  12.001  0.4305  0.1934 -0.0638
17585W        W33719  18.813   3.387  14.156 -0.0112 -0.0940 -0.2219
17586W        W33720   3.057  15.580  14.363  0.0127 -0.3938 -0.1781
17587W        W33721   4.520  11.844  14.275  0.3754  0.1369 -0.1447
17588W        W33722  12.986   0.911   2.853 -0.1431  0.1525 -0.2619
17589W        W33723   8.015  15.885  11.334  0.0872 -0.0077 -0.0850
17590W        W33724  17.842   9.022   4.040 -0.0733 -0.1210 -0.2108
17591W        W33725   0.722  12.938   2.708  0.0382  0.4341  0.2811
17592W        W33726  11.398  12.546   0.617 -0.2337  0.0445  0.3252
17593W        W33727  16.355   4.714  13.808  0.2315 -0.0439  0.2529
17594W        W33728   3.108  16.271   2.931  0.1372  0.0038 -0.2058
17595W        W33729   7.701  10.508  11.723 -0.2825 -0.0751 -0.0049
17596W        W33730   2.654  13.329  10.659 -0.1711 -0.2701  0.1165
17597W        W33731   6.183   7.903   3.589  0.1727  0.1199  0.0610
17598W        W33732   4.301   1.534   0.066 -0.0214 -0.3097 -0.1150
17599W        W33733   3.036   6.208   9.981  0.1683 -0.1159  0.0972
17600W        W33734  15.672  17.242   1.563 -0.0034 -0.0673 -0.0781
17601W        W33735   7.404  17.997   2.436 -0.0906 -0.0841  0.1803
17602W        W33736   2.577   8.384  11.413  0.3039 -0.1764 -0.2664
17603W        W33737  15.662   7.478   3.227  0.0578 -0.0842 -0.2337
17604W        W33738  17.725  13.117   2.279 -0.0918  0.0766  0.2096
17605W        W33739   3.679  13.518  11.967  0.2135 -0.1976 -0.0746
17606W        W33740  17.955  13.163  10.040  0.1285 -0.0587 -0.0511
17607W        W33741  10.190   7.759  13.713 -0.2559  0.1433 -0.0261
17608W        W33742  13.097   7.572   1.559 -0.1705  0.2131 -0.2504
17609W        W33743   8.671  11.966   3.251  0.0010 -0.4156  0.0360
17610W        W33744  16.530  15.525  11.087  0.0217 -0.2077  0.0921
17611W        W33745   6.479  18.506  14.406 -0.2292  0.2897 -0.1946
17612W        W33746   6.228  11.195  10.118  0.3330  0.1075 -0.1582
17613W        W33747  13.459   1.983   2.199  0.0288 -0.1714 -0.3225
17614W        W33748   9.767  16.297   2.821 -0.2080  0.0560 -0.2320
17615W        W33749   7.949   2.604  12.775 -0.3831  0.0729 -0.0799
17616W        W33750   7.377  13.067   4.835  0.0815  0.3401 -0.1771
17617W        W33751  10.729   7.354  13.856 -0.1660 -0.3760  0.0292
17618W        W33752   0.610   5.207  10.964  0.2032 -0.0525  0.2131
17619W        W33753  14.315   0.044  13.655 -0.3717 -0.0297 -0.3451
17620W        W33754  11.487  18.847   2.880  0.3834 -0.1514  0.1338
17621W        W33755   8.329  14.288   4.731  0.2263 -0.1629  0.0016
17622W        W33756  13.591   2.566   9.319 -0.2600 -0.1479  0.0273
17623W        W33757  14.761   8.346   2.948 -0.0677 -0.2336 -0.1135
17624W        W33758  11.862   6.562  12.578 -0.0222  0.2168  0.2555
17625W        W33759   1.021   2.631   3.101  0.3506  0.2408  0.0624
17626W        W33760   3.011  12.544   4.567  0.1055 -0.2799  0.0962
17627W        W33761   5.104  11.137  12.548 -0.3225 -0.3814 -0.0672
17628W        W33762  14.726  14.654  11.625 -0.2936 -0.3051 -0.1145
17629W        W33763   4.848   1.349   4.317  0.2365  0.0800 -0.0930
17630W        W33764  13.660  10.806  14.445 -0.1206  0.0223 -0.0687
17631W        W33765   1.419   3.127   0.371  0.0463 -0.4024  0.2015
17632W        W33766   7.584  11.204  10.995  0.2783  0.1093  0.1148
17633W        W33767   5.559   4.958  10.571 -0.0065 -0.3988 -0.0952
17634W        W33768  10.641  13.981  13.274 -0.1000 -0.0241 -0.1164
17635W        W33769   3.712   8.113  13.823  0.1025  0.1251  0.1012
17636W        W33770  19.148   7.840  11.904 -0.1620 -0.0999 -0.2217
17637W        W33771   1.111   2.851   1.743 -0.2004 -0.0398 -0.0302
17638W        W33772   1.305  17.739   3.437 -0.3963 -0.0207  0.1233
17639W        W33773  18.049   4.472  12.743  0.0920 -0.0342  0.0632
17640W        W33774  10.574   7.516   1.629  0.4531 -0.4834  0.2270
17641W        W33775   7.169   5.876   0.858  0.0384 -0.0414  0.2031
17642W        W33776  15.950  14.239   4.748  0.1377  0.0346 -0.0641
17643W        W33777   1.573  12.379   2.419 -0.2049 -0.2260  0.1613
17644W        W33778  18.987   4.091  12.639  0.4837 -0.2666 -0.0515
17645W        W33779   0.062   5.971  14.395 -0.0679 -0.1376  0.0687
17646W        W33780   9.122   9.874   4.032  0.1258 -0.1165 -0.1874
17647W        W33781  11.367   9.194   3.771  0.1137  0.2905  0.0856
17648W        W33782  17.047  14.644   1.801  0.0340 -0.1993  0.2450
17649W        W33783  12.930   3.087   5.551  0.0967  0.1997 -0.1468
17650W        W33784  17.822   4.389  10.274 -0.1495  0.1806 -0.2915
17651W        W33785   3.189   3.981   2.730  0.0003 -0.1360  0.0978
17652W        W33786  18.358  11.364   5.382 -0.0496  0.0636 -0.1024
17653W        W33787   3.700  18.502   4.016 -0.0042  0.4008 -0.1153
17654W        W33788  13.981  16.337  11.659 -0.3726  0.0610  0.3045
17655W        W33789  13.991   6.051  13.493  0.0849  0.1665 -0.2723
17656W        W33790   1.391   6.637   3.134  0.2323  0.0589 -0.1387
17657W        W33791   6.426   4.379   9.538 -0.3235 -0.0275 -0.1070
17658W        W33792  13.827   9.129   2.879  0.1042 -0.2384  0.1220
17659W        W33793   5.640   9.124   4.576  0.1009 -0.0842 -0.0161
17660W        W33794   8.505   2.150  11.788  0.0624  0.3076 -0.0254
17661W        W33795   3.010  15.319   4.448  0.0931  0.0669 -0.2486
17662W        W33796   4.907  18.135  14.549 -0.2597 -0.3753  0.1243
17663W        W33797   6.754   4.218   5.336  0.1598 -0.0250 -0.1079
17664W        W33798   6.186   2.489   3.213  0.0323 -0.0101 -0.2173
17665W        W33799   8.537   6.790   2.016 -0.0123 -0.0719  0.1619
17666W        W33800  16.429  11.830   0.825  0.0789  0.1917 -0.1753
17667W        W33801  13.124  16.726  11.691  0.0465 -0.1663 -0.1416
17668W        W33802   7.885   3.047   3.092  0.0108  0.2058  0.4754
17669W        W33803  11.472  10.894  12.273  0.1329 -0.2200  0.1014
17670W        W33804  18.587  18.604   4.393 -0.1882  0.1331 -0.0895
17671W        W33805  13.497  11.799   9.825  0.1415  0.1490  0.0601
17672W        W33806  15.274  14.215   1.236 -0.2186 -0.0440  0.2124
17673W        W33807   8.402  18.778   3.777  0.2477 -0.0210 -0.3420
17674W        W33808   4.926  14.090   5.925  0.0339 -0.0705  0.0134
17675W        W33809  12.078   1.012   4.375  0.3568 -0.1024  0.1474
17676W        W33810  15.676   6.114  11.318  0.2508 -0.1321 -0.0110
17677W        W33811   8.843   0.545  12.018  0.3366  0.0655  0.4716
17678W        W33812   4.886   6.238   0.022 -0.3489 -0.3039  0.3297
17679W        W33813  13.310  15.988  13.405  0.0468 -0.1459 -0.0488
17680W        W33814   9.475   1.970  10.520  0.3371 -0.1289  0.1346
17681W        W33815  10.611  11.694  12.665 -0.0325 -0.1214 -0.4745
17682W        W33816  14.814  18.853   2.101 -0.0070 -0.0408 -0.0700
17683W        W33817  11.732  15.826  12.189  0.1933 -0.1128  0.0030
17684W        W33818  12.894  11.614   1.657  0.1288 -0.1234  0.0316
17685W        W33819   7.465   9.002  11.350  0.1756 -0.0777  0.1278
17686W        W33820  15.477   0.572  10.815  0.0922 -0.0371 -0.0501
17687W        W33821  14.715  14.953  14.993 -0.2070  0.3480  0.0648
17688W        W33822  17.111   3.543   3.970 -0.2506  0.3294  0.3604
17689W        W33823   3.505  18.238   3.658  0.2996 -0.1739 -0.2665
17690W        W33824  16.188  13.724  11.235  0.1735  0.1118 -0.1032
17691W        W33825   0.473  17.138  10.698 -0.2819 -0.3788 -0.2219
17692W        W33826  18.868  17.640   4.270 -0.5077  0.0578  0.1826
17693W        W33827  18.412  18.540  14.937 -0.3454  0.1900 -0.0824
17694W        W33828  18.447  12.091   0.603  0.3788 -0.1656  0.0058
17695W        W33829   7.875   5.517   5.179  0.2523 -0.0561 -0.3068
17696W        W33830   7.962   0.259  14.216  0.2701  0.0603  0.1587
17697W        W33831  15.047   7.124  10.674 -0.1343 -0.0842 -0.3548
17698W        W33832   4.521  17.063  10.184 -0.2053  0.0411 -0.2598
17699W        W33833   5.966  17.491  14.379  0.0298 -0.1659 -0.0702
17700W        W33834   6.038   6.142   2.692  0.0326 -0.1475 -0.1900
17701W        W33835   1.294   8.218   3.871  0.0014  0.0941  0.1560
17702W        W33836   9.578   2.797   2.386  0.0096 -0.0318  0.1382
17703W        W33837   6.516   3.554   0.876 -0.2208 -0.3901 -0.3332
17704W        W33838   0.060  18.032  14.524 -0.0956  0.1835  0.0410
17705W        W33839   8.318  17.557   3.286 -0.0217 -0.0002  0.1513
17706W        W33840  16.283  11.536   0.022  0.0795 -0.1931  0.1834
17707W        W33841  15.330   1.222   2.433 -0.0757 -0.0206  0.3177
17708W        W33842   2.605  13.442  11.703 -0.0386 -0.3516  0.0733
17709W        W33843  15.639  16.682   2.185  0.1928  0.0216 -0.0369
17710W        W33844   2.013  13.539   3.547 -0.1244  0.0290 -0.1293
17711W        W33845  16.976  10.233   2.968  0.2795  0.1169  0.1013
17712W        W33846   5.591  16.896   0.482  0.2047 -0.1715  0.2092
17713W        W33847   4.075   7.831   3.566  0.3354 -0.1348  0.1985
17714W        W33848  14.538   6.302  11.124  0.1168 -0.0750 -0.1430
17715W        W33849  10.282  14.353   3.818  0.1842  0.4391 -0.0262
17716W        W33850  11.622  14.528  13.381  0.0784  0.1018  0.0590
17717W        W33851  14.991  16.701   9.499 -0.2615  0.2426  0.0043
17718W        W33852   7.953  18.287  10.260  0.2143  0.0548  0.3205
17719W        W33853  12.563   8.899   4.796 -0.1714 -0.2345  0.2193
17720W        W33854  13.659  11.528   9.504  0.1530 -0.0617  0.2026
17721W        W33855   8.346   3.529   3.429 -0.0697 -0.1728  0.0038
17722W        W33856   4.337   8.120   4.314 -0.1028 -0.0717  0.0507
17723W        W33857  10.102  10.978   3.304  0.1419  0.2364  0.0545
17724W        W33858   6.659   7.050  11.388 -0.3834  0.1372  0.1822
17725W        W33859  13.829  16.716  12.616  0.4684  0.3745  0.0446
17726W        W33860   2.096  12.615   1.594  0.1750 -0.0694 -0.2432
17727W        W33861   6.972   5.377  11.944 -0.4110 -0.0134  0.1274
17728W        W33862  14.925  13.832   4.844 -0.1762 -0.0838  0.0446
17729W        W33863  18.740  14.674  14.996  0.1949 -0.2053 -0.0176
17730W        W33864  10.235   3.430   0.491  0.2284  0.0931 -0.0927
17731W        W33865   9.410   6.739   2.677 -0.2753 -0.0709  0.1306
17732W        W33866   8.533   1.603  11.879 -0.3185  0.1440  0.2998
17733W        W33867   6.829  13.535   1.527 -0.0363 -0.2175 -0.0685
17734W        W33868   8.411   4.462   1.799 -0.1665  0.1887  0.1407
17735W        W33869   0.156  12.677  12.069 -0.4640 -0.0210 -0.1135
17736W        W33870  13.098  13.475  11.780 -0.1550 -0.1650  0.1515
17737W        W33871   1.386  18.317  11.620 -0.1050  0.0540 -0.1026
17738W        W33872  15.779   4.267  13.911 -0.3685  0.1768  0.2822
17739W        W33873  12.092  17.489   2.951 -0.1208 -0.1716 -0.1447
17740W        W33874   0.593  15.460  13.877 -0.1607 -0.4654  0.0367
17741W        W33875   5.540  12.936   0.361  0.3515  0.0122  0.0024
17742W        W33876   5.339   8.892  13.906  0.3284 -0.1714  0.3215
17743W        W33877  18.600  12.989   1.593  0.0072 -0.2823  0.3073
17744W        W33878   5.817   5.404  11.298  0.2777 -0.2883 -0.2320
17745W        W33879  13.503  13.179  13.724  0.1528  0.0944  0.0916
17746W        W33880   6.036  18.799   2.701  0.1262  0.3719 -0.1607
17747W        W33881  11.560   6.305  11.634  0.1912  0.3071 -0.1346
17748W        W33882   1.611  15.658   3.868  0.0481 -0.1799 -0.2029
17749W        W33883   1.797  15.537  10.148 -0.0996  0.3432  0.0007
17750W        W33884  16.197   0.218  14.730  0.1525 -0.1785  0.0619
17751W        W33885   1.930  16.205  13.435 -0.1305  0.2023 -0.3417
17752W        W33886   3.836   4.939  10.049 -0.0983 -0.0086 -0.1049
17753W        W33887   3.221  13.216   1.980 -0.2133  0.2458  0.0205
17754W        W33888   7.690   8.854   5.464  0.0133 -0.0033  0.2164
17755W        W33889  16.943  15.256   2.481 -0.0872  0.2936  0.1957
17756W        W33890  13.760   0.576  11.356  0.0469  0.2082 -0.1858
17757W        W33891   8.697  15.899   5.590  0.1805  0.2481 -0.0735
17758W        W33892   4.168  16.698   1.067  0.1510 -0.1394 -0.1869
17759W        W33893  14.339  12.424   1.703  0.0126 -0.0177 -0.2128
17760W        W33894  13.329  17.198   0.635 -0.1809  0.1989 -0.2842
17761W        W33895   4.748  14.690  12.099 -0.2928 -0.1888 -0.2053
17762W        W33896  14.725  18.294  12.864  0.4178  0.2871  0.1558
17763W        W33897  10.131   3.561   2.430  0.2437  0.2100  0.0515
17764W        W33898  11.569  14.535   4.873  0.0485 -0.2242 -0.5297
17765W        W33899   2.581   9.580  14.004  0.1248  0.3024 -0.2787
17766W        W33900   6.143  12.627  14.263 -0.1183 -0.2234 -0.0488
17767W        W33901   1.355  15.580   4.657 -0.0330  0.0054 -0.0381
17768W        W33902  13.685  14.076   2.729  0.2001 -0.0701 -0.1788
17769W        W33903   7.948  16.663   3.938  0.4642  0.1265  0.1623
17770W        W33904   6.452   7.895   3.176 -0.0277  0.1652  0.1168
17771W        W33905   9.473  18.249   3.554 -0.1788  0.0875  0.0252
17772W        W33906  12.517   7.959  14.997 -0.1487 -0.1739 -0.0002
17773W        W33907   0.924  16.293  11.321  0.1516  0.0804 -0.0768
17774W        W33908  19.045  18.714  11.005 -0.2513  0.3025  0.0073
17775W        W33909  15.533  13.302  11.551 -0.3108 -0.2692 -0.3047
17776W        W33910  12.104  19.178   3.155  0.1074  0.1067  0.0779
17777W        W33911  11.623  18.998   3.823 -0.1143 -0.1901 -0.0837
17778W        W33912   4.544   4.683  11.797 -0.1883  0.2098 -0.1559
17779W        W33913   3.041   8.036   0.358  0.4681  0.2341  0.2145
17780W        W33914  18.659  11.228  14.397 -0.2057 -0.2175  0.1711
17781W        W33915  11.711   2.623  14.323 -0.1603 -0.3192  0.0266
17782W        W33916  11.129  12.860   3.192  0.1132 -0.1189 -0.2940
17783W        W33917   2.989   0.795  14.495 -0.0139 -0.0306 -0.1252
17784W        W33918  18.621  11.264  13.586  0.3279 -0.3062 -0.2331
17785W        W33919  14.606  12.797  11.609  0.2125  0.1486  0.2734
17786W        W33920  13.668   3.329  14.361  0.0211  0.1483 -0.0353
17787W        W33921  10.982   3.863  13.345  0.0866  0.0987  0.0704
17788W        W33922  14.918   2.558  12.394 -0.4499 -0.1312  0.1344
17789W        W33923   2.667   8.219   3.314  0.4148 -0.0214 -0.3811
17790W        W33924   7.818   8.651   3.980 -0.0364 -0.1081 -0.0192
17791W        W33925  17.317  16.481  11.726  0.2406 -0.0088 -0.0678
17792W        W33926   3.195  17.432   5.479  0.0388 -0.0682  0.3960
17793W        W33927   9.429   0.775   1.699 -0.0444 -0.4725  0.1150
17794W        W33928   8.383  11.419  11.291 -0.1867  0.0486 -0.0134
17795W        W33929   4.988   8.026   3.539  0.1106 -0.3566 -0.5509
17796W        W33930  11.528  14.005  11.287  0.0004 -0.4370 -0.2500
17797W        W33931   9.337   0.143  10.468  0.0070  0.2776 -0.0833
17798W        W33932   5.515   9.658   3.680 -0.1101  0.3186 -0.1576
17799W        W33933   2.950   4.823  14.531  0.0672 -0.1221  0.0559
17800W        W33934  12.584   7.724  10.515  0.0622  0.0896 -0.0506
17801W        W33935   1.121   1.799  14.848 -0.0950  0.0511 -0.2554
17802W        W33936   3.931   1.207  14.940  0.1315  0.1691 -0.1138
17803W        W33937   2.472   1.918   1.504  0.0788  0.2498 -0.2516
17804W        W33938  12.163   5.690  13.523  0.1134  0.1405  0.0963
17805W        W33939  18.437   4.308   3.073 -0.1126 -0.1261 -0.2032
17806W        W33940   8.064  17.277  11.356  0.2165 -0.0083 -0.3560
17807W        W33941   9.920  14.789   5.096  0.1065  0.0130 -0.2264
17808W        W33942   4.119  15.179  10.896 -0.1832  0.0654 -0.0277
17809W        W33943   8.807   7.787  13.760 -0.0805  0.0914 -0.1492
17810W        W33944   0.277  11.240   0.408  0.0970 -0.4205  0.1202
17811W        W33945  11.800   2.038   1.382 -0.0203 -0.1042  0.0258
17812W        W33946  10.648   9.435   3.114  0.1487 -0.2294 -0.0694
17813W        W33947   9.491  17.524   3.468  0.0396  0.3388 -0.0397
17814W        W33948  10.772  17.200  14.706 -0.1600 -0.2335 -0.0647
17815W        W33949  11.426   0.594   0.335  0.0572  0.0236 -0.1494
17816W        W33950  18.219   8.894   1.682 -0.0684 -0.0967  0.1939
17817W        W33951  12.084  16.997  11.798 -0.4474  0.1576  0.0079
17818W        W33952  10.220  16.410  12.123  0.2592 -0.1474 -0.1100
17819W        W33953  11.814   0.486  12.195 -0.0896  0.2497  0.0659
17820W        W33954   8.028   5.217  12.580  0.3526 -0.3342  0.1039
17821W        W33955  17.987  12.411   0.028 -0.4981  0.1291  0.0014
17822W        W33956   9.192   9.635  10.853  0.0975  0.0526 -0.1193
17823W        W33957   7.489  13.996  13.657 -0.1854  0.0148 -0.0830
17824W        W33958  17.654  10.013   3.161  0.1465  0.0329  0.1481
17825W        W33959   3.645   4.807   1.954  0.0125 -0.0388 -0.1537
17826W        W33960  17.996   1.133  11.309 -0.1612  0.0197  0.0047
17827W        W33961   8.585   3.073   4.964 -0.0313  0.1986  0.0575
17828W        W33962   6.360   4.301   1.361 -0.0517  0.0132 -0.1519
17829W        W33963   6.174   1.983   1.209 -0.2482 -0.3048  0.2964
17830W        W33964   4.716  15.069   1.391  0.2415  0.0312  0.1092
17831W        W33965   1.059  17.091  11.663 -0.0904 -0.0335 -0.2674
17832W        W33966  16.285  19.249  10.271  0.0205  0.2096 -0.0520
17833W        W33967   9.762  10.407   0.769 -0.0632  0.2552 -0.0211
17834W        W33968  17.605   0.171   5.118  0.0006 -0.1092 -0.1952
17835W        W33969  16.799   9.166   0.570 -0.2081 -0.0621  0.0716
17836W        W33970   9.763  16.825  10.632  0.0906 -0.1505 -0.4336
17837W        W33971   5.176  10.885   1.135  0.3125 -0.3671 -0.0101
17838W        W33972  14.928  15.438  11.080 -0.0119 -0.1574 -0.1793
17839W        W33973  15.944   2.595  14.513 -0.5209 -0.1464 -0.1237
17840W        W33974   0.558  10.356   1.269  0.3609 -0.0722  0.3404
17841W        W33975   1.285   7.487   4.033  0.0396 -0.0709 -0.1755
17842W        W33976   8.424   6.270   2.854  0.0636 -0.1604 -0.3065
17843W        W33977  18.729  14.720   3.715 -0.0622 -0.2341 -0.0799
17844W        W33978  18.409  12.213   2.035  0.0135  0.0730 -0.2356
17845W        W33979   1.574   7.908  11.501 -0.1444 -0.0654  0.0190
17846W        W33980   9.250   5.132   0.642 -0.1327 -0.1366  0.2510
17847W        W33981  15.694  14.500   2.002 -0.2356 -0.0142 -0.0994
17848W        W33982  15.272   0.456  14.613 -0.3704  0.3026  0.0039
17849W        W33983   0.514   2.050  13.204 -0.0206 -0.0692 -0.0592
17850W        W33984   0.575   5.339   0.878  0.2061  0.1118 -0.0997
17851W        W33985  13.993  14.208  12.153 -0.2912 -0.1438  0.1973
17852W        W33986  14.684  18.449   4.553 -0.2027  0.2088  0.0321
17853W        W33987   0.348  10.229   4.951  0.0564  0.0315  0.1861
17854W        W33988  11.059  18.865  11.404 -0.0523  0.0715  0.0641
17855W        W33989  13.689  10.671  13.951 -0.2380 -0.0760  0.1297
17856W        W33990  16.772   1.217  12.728  0.1667 -0.3067  0.1994
17857W        W33991   7.889  17.460  13.961 -0.0134  0.1191 -0.1365
17858W        W33992  12.727  11.486   2.568  0.0968 -0.3066 -0.1502
17859W        W33993  14.036  10.426  11.158  0.1285  0.2585  0.1715
17860W        W33994   5.137   2.765   1.208 -0.1324  0.3394  0.2016
17861W        W33995   6.044  15.859  12.586 -0.0347 -0.3523 -0.2506
17862W        W33996   6.488  13.588   4.256 -0.1074  0.1282  0.0371
17863W        W33997   4.878  10.285  11.326  0.1813 -0.0330 -0.1451
17864W        W33998   8.315   5.076   2.561  0.2322  0.0558 -0.2206
17865W        W33999  11.140   4.541  14.265 -0.3035  0.1918  0.1602
17866W        W34000   8.391   0.075   4.790 -0.0442  0.2786  0.2041
17867W        W34001  14.677  18.176   3.013 -0.4975 -0.1186 -0.2445
17868W        W34002  16.271  11.558   1.937  0.0540  0.0449  0.1114
17869W        W34003  13.099   5.537   2.705 -0.1098  0.1097 -0.1040
17870W        W34004   5.294   3.340   3.878 -0.1950  0.1832  0.2694
17871W        W34005   1.185  13.974   3.950  0.1547  0.1314  0.3486
17872W        W34006  12.072   6.457  14.855  0.1278  0.2970  0.2990
17873W        W34007   3.435  16.416  12.736  0.1840  0.2529 -0.1098
17874W        W34008   5.428  13.491  12.206  0.3219 -0.1709 -0.2743
17875W        W34009   9.739   1.806   5.486 -0.1654  0.3780 -0.2851
17876W        W34010  13.117  14.227   0.552 -0.0735 -0.0578 -0.0477
17877W        W34011   0.559  13.635   2.242 -0.1460  0.2209  0.0647
17878W        W34012   0.353   0.709   1.333  0.4766  0.0194  0.1330
17879W        W34013   2.925   6.522   2.994 -0.1257 -0.1921 -0.0776
17880W        W34014   9.361  10.568  12.501  0.0104 -0.1218 -0.2261
17881W        W34015   9.681  16.570  14.860 -0.3335  0.1902 -0.2351
17882W        W34016  16.792   1.696  10.721 -0.0359 -0.0743  0.0306
17883W        W34017  11.204   7.120  13.907 -0.3496 -0.3725  0.0934
17884W        W34018   0.182  11.700   3.601 -0.0395  0.1111  0.0605
17885W        W34019  14.426  15.669  11.207  0.0709 -0.0352  0.2288
17886W        W34020  14.311   7.976  13.524  0.0078 -0.2844 -0.2622
17887W        W34021   1.555   6.264   0.897 -0.2520  0.0369 -0.1167
17888W        W34022   4.769   2.124  13.569  0.1382 -0.0061 -0.1813
17889W        W34023  16.421   8.224  10.996 -0.3408 -0.2768  0.0536
17890W        W34024   2.184   4.993  12.991 -0.0141  0.4040  0.1471
17891W        W34025   6.072  13.739  10.874  0.0285 -0.3619  0.0775
17892W        W34026  18.854  10.064   1.589 -0.0588 -0.0842 -0.2071
17893W        W34027   4.632   0.318  12.900  0.0717  0.0288  0.2464
17894W        W34028   5.937   8.392   0.674 -0.3156 -0.1303  0.3678
17895W        W34029  12.882  17.751  11.783  0.0932  0.1658  0.2165
17896W        W34030   9.905   4.166  11.128 -0.2053 -0.1080 -0.2135
17897W        W34031  18.118   2.174  10.744  0.0025 -0.0561 -0.1023
17898W        W34032  11.624  12.870   0.186  0.2689  0.1962  0.3408
17899W        W34033   8.337  12.726  12.034  0.1185  0.4794 -0.1652
17900W        W34034  14.587   4.969  14.086 -0.1345  0.1705 -0.0529
17901W        W34035   2.676   2.620  12.289  0.2320  0.0385 -0.1509
17902W        W34036  15.238  12.655   2.157 -0.1250 -0.0539  0.2352
17903W        W34037   0.936  13.473   1.527 -0.0610 -0.1433  0.1375
17904W        W34038  14.574   9.322  10.366 -0.2379 -0.0109 -0.0135
17905W        W34039  17.156  13.321  12.184  0.3460  0.0752 -0.1250
17906W        W34040   1.311  11.171   2.589 -0.0525 -0.0370 -0.3961
17907W        W34041   4.801   9.421  12.654  0.0706 -0.1261  0.1062
17908W        W34042   3.346   7.149  13.439  0.2396  0.1425 -0.0344
17909W        W34043  11.839  11.196  14.382 -0.4640 -0.1340  0.2124
17910W        W34044   9.421  16.061   9.519 -0.0162 -0.4919  0.1378
17911W        W34045   9.427  18.286   5.791  0.0528 -0.0526 -0.0240
17912W        W34046  11.707  15.003  12.561  0.4128  0.1986 -0.2457
17913W        W34047  18.257   0.258  11.261  0.0640 -0.1460  0.1190
17914W        W34048   2.200  10.888   2.001  0.1285  0.0404  0.1208
17915W        W34049   0.369  16.391  14.888 -0.1059 -0.1491  0.1148
17916W        W34050   5.578  15.392  13.395  0.1252  0.4209  0.1128
17917W        W34051   6.429  11.612  10.412  0.3232  0.0178  0.3002
17918W        W34052   4.084  17.981  11.473 -0.3082 -0.0180 -0.2980
17919W        W34053   6.250  11.101  10.696  0.3817  0.1649 -0.3221
17920W        W34054  10.289  16.257   1.938  0.2469  0.1698  0.0941
17921W        W34055  15.312   8.977   0.910  0.4170 -0.2078  0.0814
17922W        W34056  11.819   3.890   4.930  0.1252 -0.1737  0.1229
17923W        W34057  12.713   8.714   9.631 -0.1097  0.2354 -0.1045
17924W        W34058  13.094  18.736   4.050  0.1438  0.4426  0.0396
17925W        W34059  17.375   8.981  13.568  0.3330  0.0445 -0.0400
17926W        W34060   5.409   7.785  11.288 -0.0192  0.0786 -0.2491
17927W        W34061   2.754  14.093   0.826 -0.0335 -0.1177  0.1813
17928W        W34062   4.078   0.122  12.813  0.0961 -0.2734  0.2224
17929W        W34063  16.826  14.165  12.997  0.1285 -0.3133 -0.2613
17930W        W34064   8.358  10.228   4.122  0.3553  0.2566 -0.0105
17931W        W34065  16.343  17.965   3.929  0.0069 -0.0186 -0.0603
17932W        W34066   1.680  16.132   3.411  0.1173 -0.1743  0.1927
17933W        W34067  16.990  14.495  11.683  0.2804  0.0600  0.1638
17934W        W34068   7.951   4.997   2.222  0.2671  0.4215  0.0746
17935W        W34069  12.193   3.254   0.732 -0.3968  0.0159  0.0656
17936W        W34070   1.516   5.616  11.868  0.1278 -0.1260 -0.1525
17937W        W34071   8.293  15.487   4.417 -0.0905  0.2077  0.0765
17938W        W34072   2.437   5.926  11.733 -0.1714 -0.0909  0.3204
17939W        W34073  10.643   2.083  13.572 -0.0135 -0.0920  0.0308
17940W        W34074  10.158  14.886  10.042  0.0945 -0.4842  0.1419
17941W        W34075  16.835  17.576   3.930 -0.0224  0.0506 -0.1848
17942W        W34076   2.072   1.316  13.274 -0.0476  0.0099  0.1949
17943W        W34077   8.924   6.561  12.388  0.4063  0.2153 -0.2344
17944W        W34078   3.056   4.331  11.805  0.2362  0.0967  0.2265
17945W        W34079   6.630  15.760  14.916  0.0784 -0.2187  0.0395
17946W        W34080   7.033   7.839   4.911 -0.0702  0.1606 -0.0909
17947W        W34081   0.615  10.826  11.441  0.3720  0.4957  0.2898
17948W        W34082   5.892  16.332   4.411  0.3150 -0.2022 -0.2207
17949W        W34083   1.986  11.674  13.797 -0.0270  0.1534  0.2018
17950W        W34084   1.674   1.358   0.135 -0.3460 -0.2159  0.1263
17951W        W34085  13.633  13.099  12.831  0.2532  0.0604  0.2867
17952W        W34086   8.297   8.241  14.618 -0.1716  0.0883 -0.0358
17953W        W34087   3.076  12.478  10.916  0.4885 -0.2854  0.0036
17954W        W34088   7.524   5.140   5.373  0.2715  0.3341  0.0136
17955W        W34089  18.549   0.944  12.576 -0.1988  0.0827  0.1981
17956W        W34090  18.059   6.604   1.357  0.2482 -0.1365  0.1788
17957W        W34091  15.261   1.983   2.075 -0.1867 -0.1042  0.0587
17958W        W34092   4.026   0.343  14.460 -0.0098  0.2234 -0.1421
17959W        W34093   6.104   1.361   1.385 -0.2689 -0.0285 -0.0953
17960W        W34094   6.342   0.684   2.627 -0.1081 -0.1158  0.4301
17961W        W34095  17.521   7.337   1.488 -0.1849 -0.0003 -0.0573
17962W        W34096  18.385   1.422   0.327  0.0393  0.0606  0.0175
17963W        W34097   7.595  16.045   1.306 -0.1898 -0.0641 -0.3272
17964W        W34098   7.149   4.519  14.734  0.2427  0.0108  0.1812
17965W        W34099  17.314   4.394   1.842  0.0462  0.1455 -0.0746
17966W        W34100  13.100  13.765   2.447  0.0052  0.4114  0.1425
17967W        W34101   2.291  13.815  14.258  0.0419 -0.2019  0.0285
17968W        W34102   3.572  13.650   9.413  0.1743 -0.1962 -0.3581
17969W        W34103   1.179  12.929  13.184  0.1786  0.1270  0.3258
17970W        W34104  10.552  11.482   0.783 -0.3796 -0.0974  0.4466
17971W        W34105   1.801   8.699   4.557 -0.0694  0.2641  0.1198
17972W        W34106   2.096   0.297  11.731  0.1022  0.0834 -0.0592
17973W        W34107   1.019   7.521   0.720 -0.0718  0.0205  0.2380
17974W        W34108  11.063  12.176   2.729  0.3533  0.3144 -0.1255
17975W        W34109  12.560  14.586  12.327 -0.1723  0.2859  0.0905
17976W        W34110  15.583  12.033  13.459  0.0957 -0.1537  0.1561
17977W        W34111  17.496   4.140  12.266  0.3963  0.0220 -0.2243
17978W        W34112   1.109   2.365   1.582 -0.3539 -0.0663 -0.0513
17979W        W34113   9.950   7.167   5.489  0.2054  0.0131 -0.1143
17980W        W34114   2.762   5.246  14.295 -0.1188 -0.2117  0.0373
17981W        W34115   7.236   8.110   2.232  0.2492 -0.2651 -0.3327
17982W        W34116  12.501   8.631   0.721  0.0112 -0.0065  0.0330
17983W        W34117  12.536  12.394  10.573  0.2033 -0.1591  0.1414
17984W        W34118  10.261  12.913   1.179 -0.1403 -0.0694  0.1747
17985W        W34119  17.722   4.910   0.940  0.1898  0.1070 -0.1576
17986W        W34120   8.283  16.361  12.817 -0.0725  0.0329 -0.0079
17987W        W34121   2.940  13.147  12.573 -0.0770 -0.2054 -0.0882
17988W        W34122  12.819   6.446  12.497  0.1955 -0.1296 -0.0126
17989W        W34123  13.399   5.793   2.082  0.0640 -0.2438  0.0254
17990W        W34124  16.311  14.231   9.774  0.1171  0.1557 -0.1105
17991W        W34125   5.631  16.534  14.259 -0.3185 -0.1496 -0.3515
17992W        W34126  10.820   2.766   4.331  0.3404 -0.1600 -0.0989
17993W        W34127  18.594  10.267  11.409  0.1942 -0.1605  0.0351
17994W        W34128  12.893  15.951   3.597 -0.0400 -0.0631  0.0463
17995W        W34129  16.719   1.735  11.208  0.1456  0.1308  0.1661
17996W        W34130   4.742   2.672   4.412 -0.0888 -0.1626 -0.1396
17997W        W34131  11.889  10.988   0.453  0.1567 -0.0537  0.2291
17998W        W34132   0.231   1.710  11.427  0.2441 -0.1461  0.2126
17999W        W34133   8.739   5.845  13.670 -0.0151  0.1660  0.2121
18000W        W34134   0.846  16.480   2.198  0.0672  0.1532  0.0487
18001W        W34135   0.425   3.689   4.464  0.0362 -0.1486 -0.1361
18002W        W34136  13.293  15.114   0.382 -0.2416 -0.0869 -0.1344
18003W        W34137  14.944  11.176   1.623  0.1533  0.1209  0.1702
18004W        W34138   1.626   9.826  12.884  0.2810 -0.1228  0.0849
18005W        W34139  17.346   5.746   3.074 -0.1399  0.1024 -0.1897
18006W        W34140   2.799   2.893   1.698  0.1854 -0.1683 -0.1851
18007W        W34141  12.326   1.683   1.735 -0.2617 -0.2871  0.0494
18008W        W34142   8.579  14.447   1.098  0.2586  0.1553  0.1999
18009W        W34143   1.907  19.064  11.402  0.2262 -0.0011  0.2500
18010W        W34144  14.220   5.610  10.677  0.2797  0.0259 -0.0118
18011W        W34145   3.888   9.510   2.283  0.0449  0.0501  0.0437
18012W        W34146  18.936   5.734  10.832 -0.0382 -0.0395 -0.1340
18013W        W34147  18.143  17.065  10.388  0.1953 -0.1805  0.1533
18014W        W34148   9.388  18.470  10.695 -0.3086 -0.0466 -0.3833
18015W        W34149  19.023  18.384  11.325  0.0655 -0.0676 -0.0983
18016W        W34150  15.078   9.456   4.675 -0.1287  0.0248  0.0854
18017W        W34151   0.112  11.685  12.118 -0.3046 -0.0509 -0.0768
18018W        W34152  17.801   3.010   0.987  0.3410 -0.0728  0.1048
18019W        W34153   7.903  12.174  12.546 -0.2124  0.1813  0.0312
18020W        W34154   9.801  19.199   2.193 -0.0533 -0.1594  0.2025
18021W        W34155  10.796   2.422   3.058  0.1335  0.1703 -0.2118
18022W        W34156  10.005  12.340   4.637  0.1192 -0.3141  0.1987
18023W        W34157   6.558  18.656   2.603 -0.2128  0.0181 -0.1256
18024W        W34158  15.755  10.068   3.588 -0.2205  0.1411  0.3746
18025W        W34159   4.139   0.900  14.517  0.1463  0.3796  0.0206
18026W        W34160  11.226  17.287   4.673 -0.4884  0.3074  0.2530
18027W        W34161  11.623  13.270   4.633  0.1509 -0.0590 -0.3235
18028W        W34162  16.783  12.398  11.243  0.0124  0.0019  0.1182
18029W        W34163  11.015  14.287  14.769 -0.1674 -0.1852  0.1123
18030W        W34164   9.482   2.666   3.967 -0.0301 -0.0062 -0.0391
18031W        W34165  19.068  17.359   1.739  0.0443  0.2154 -0.1191
18032W        W34166  13.793   7.167  13.679 -0.2358 -0.1388 -0.3512
18033W        W34167  15.429  12.032  12.771 -0.1487 -0.3866 -0.2539
18034W        W34168   3.680  10.395  13.600 -0.0177 -0.0753  0.2386
18035W        W34169   4.377   0.961   3.431  0.1273 -0.0308 -0.2911
18036W        W34170   2.760  17.961  13.995 -0.1543  0.1265  0.1718
18037W        W34171  12.230   5.674  11.030  0.0480  0.0581 -0.2427
18038W        W34172   3.577  11.606   0.489 -0.2199 -0.6491 -0.4659
18039W        W34173   1.740  16.565   2.266 -0.1171 -0.3007 -0.3843
18040W        W34174   5.648   1.503  11.681 -0.2170 -0.1342 -0.0563
18041W        W34175   3.623  14.504  11.742 -0.1842  0.0813  0.2658
18042W        W34176  13.474  10.643   4.342  0.4627 -0.2380  0.6355
18043W        W34177   1.220   6.095  12.120 -0.1385  0.1349  0.3488
18044W        W34178  14.309   7.809  12.234  0.0514 -0.0069 -0.1866
18045W        W34179   9.941  17.557  14.585  0.0801 -0.0466  0.2169
18046W        W34180  13.481   3.007  10.548 -0.0110 -0.1211  0.1611
18047W        W34181   0.567  16.166  13.316  0.0528  0.1685  0.1019
18048W        W34182   6.302  17.174  11.823  0.2919  0.0364  0.0497
18049W        W34183   2.850  18.260   5.019  0.0084 -0.1085 -0.2235
18050W        W34184  12.266   4.558  14.374 -0.1650 -0.0131  0.0553
18051W        W34185  14.484   2.012  10.276 -0.0002 -0.2044  0.0110
18052W        W34186  11.954   4.614  13.804  0.0050  0.1099 -0.1329
18053W        W34187  10.488   6.320   4.450  0.0152  0.0563 -0.2460
18054W        W34188  14.873  13.065  14.150 -0.3081 -0.4993 -0.0414
18055W        W34189  11.979  14.955   3.725  0.2507  0.1976 -0.1435
18056W        W34190  11.554   1.283  13.719 -0.2294 -0.0948  0.0312
18057W        W34191   7.603   5.667   1.605 -0.0940 -0.1552 -0.2929
18058W        W34192  16.577  13.848  10.003  0.3716 -0.1299  0.1084
18059W        W34193  13.512  13.303  12.021  0.1330 -0.0193 -0.0328
18060W        W34194  18.862   8.054  11.578 -0.1515  0.1181  0.1140
18061W        W34195  17.060  14.608  10.151  0.0999  0.0842  0.0804
18062W        W34196  11.160  15.854   0.267  0.2017 -0.0663 -0.0766
18063W        W34197   2.234   5.283  12.023  0.1385  0.2154 -0.1682
18064W        W34198  12.553  18.015   0.077  0.1138  0.3403 -0.1081
18065W        W34199  17.346   0.646   0.155 -0.0441  0.0553 -0.1069
18066W        W34200   0.270  16.906  14.692  0.1540 -0.0005  0.1469
18067W        W34201  14.669   7.797   3.072  0.2761  0.1008  0.3030
18068W        W34202   3.784   0.450   3.321  0.5016  0.3083  0.0100
18069W        W34203   3.757  16.104   2.444  0.0129 -0.2081 -0.0005
18070W        W34204   3.729   7.575   1.033  0.0024 -0.0206 -0.2551
18071W        W34205   6.708  16.463  12.443  0.1073  0.2129 -0.1617
18072W        W34206   3.272   0.639  12.979  0.0612 -0.3088  0.1750
18073W        W34207  15.335   1.197   3.925 -0.0416  0.2316 -0.0333
18074W        W34208   0.451   8.964   1.241  0.1148 -0.1741  0.1958
18075W        W34209   4.278   7.065   1.907  0.1127  0.1775  0.0498
18076W        W34210  12.995  18.795  14.503  0.3378  0.3047  0.1723
18077W        W34211   1.978  16.364   1.123  0.2647  0.1050  0.1419
18078W        W34212  15.198   8.288   0.323 -0.2614 -0.1336 -0.2260
18079W        W34213  10.997   3.462   5.187  0.2767  0.3385  0.1882
18080W        W34214   4.019  13.122   4.559 -0.1910 -0.1224  0.2114
18081W        W34215   1.012  10.621  14.118  0.4015 -0.0226 -0.1734
18082W        W34216   5.148   7.528   0.224 -0.0040  0.3595  0.2861
18083W        W34217   6.040  18.931   4.712 -0.0885 -0.0570 -0.2714
18084W        W34218   9.271   4.700  10.352  0.1572  0.0396  0.1514
18085W        W34219   8.421   3.256  14.012  0.0982 -0.2706 -0.0134
18086W        W34220   8.735  11.353  14.465 -0.2952 -0.0616  0.0226
18087W        W34221   6.283   3.651  13.216  0.2096 -0.1548 -0.3816
18088W        W34222   8.322  13.764   3.424  0.3719  0.1235 -0.0351
18089W        W34223   9.999  10.724   2.848  0.0023  0.2395 -0.0947
18090W        W34224  10.056  12.032   5.472  0.0198  0.4382  0.1199
18091W        W34225   4.762   7.175  11.794  0.0433  0.0633  0.0080
18092W        W34226  17.942  17.581   1.456  0.1755 -0.1588 -0.2112
18093W        W34227   8.866  12.521   1.511  0.0668  0.0702 -0.0363
18094W        W34228   1.915  18.915   2.085 -0.0945 -0.1268 -0.0623
18095W        W34229   9.378  10.314   3.975  0.0164 -0.0512  0.1315
18096W        W34230  11.025  14.884   9.882  0.3054  0.0550 -0.4384
18097W        W34231   5.955  10.451   1.154  0.0901  0.1155  0.2174
18098W        W34232   6.711   6.148   4.497  0.0230 -0.2606  0.0349
18099W        W34233  16.549   5.157  10.723 -0.0429  0.3537  0.0527
18100W        W34234   8.931   1.351   5.112 -0.1351 -0.2090 -0.0566
18101W        W34235   3.121  15.402  12.969  0.2967 -0.1916 -0.1439
18102W        W34236   2.394   5.372   9.928 -0.0349  0.0442  0.3390
18103W        W34237   5.342   5.178   2.751 -0.4344  0.3127  0.2278
18104W        W34238   7.060  12.762   3.866 -0.1312  0.0967 -0.3712
18105W        W34239   7.636   5.988   4.478  0.0278 -0.1073  0.1590
18106W        W34240   9.996  17.394   2.210  0.0467  0.1001  0.1232
18107W        W34241   1.594  16.951   2.529  0.2031  0.1253 -0.0669
18108W        W34242   9.127  16.174  12.197 -0.0941  0.0663 -0.0306
18109W        W34243   9.437  17.964  11.677  0.2678 -0.0096  0.0243
18110W        W34244   3.384  10.603   2.988 -0.0910  0.1613  0.0003
18111W        W34245   7.587   0.445   2.115 -0.3954 -0.1396  0.0690
18112W        W34246  19.292   2.877   1.399 -0.2964 -0.2881 -0.0229
18113W        W34247   9.572   0.342   2.073  0.0187  0.1495  0.2521
18114W        W34248  17.709  14.277   2.391 -0.2539 -0.0123 -0.0512
18115W        W34249  15.205   6.033  11.770 -0.1509 -0.3872  0.2484
18116W        W34250  13.487  12.267   2.475 -0.0625  0.1161  0.1665
18117W        W34251   3.446  13.705   1.764 -0.1861 -0.2419  0.1701
18118W        W34252  10.962   1.384   3.905  0.1535  0.1953 -0.1782
18119W        W34253   2.046  18.109  12.315 -0.1212 -0.0335  0.2341
18120W        W34254   1.383  15.943   2.437  0.0049  0.0725  0.0308
18121W        W34255  10.914  16.670  10.341  0.2144  0.2798 -0.0268
18122W        W34256   8.432  13.857  12.118 -0.2260 -0.0536  0.0551
18123W        W34257   3.352   8.967   2.164  0.1904  0.3733  0.1514
18124W        W34258   1.881   5.639   4.022 -0.0486 -0.2789  0.3140
18125W        W34259   9.245  10.121   3.056 -0.1713  0.1941  0.0752
18126W        W34260   4.238   5.234  14.780  0.2075  0.0106  0.0404
18127W        W34261  13.387   7.943   3.017  0.1512  0.2022 -0.0329
18128W        W34262  18.866  12.654  10.215 -0.0315  0.2063 -0.1756
18129W        W34263   0.555  15.999   0.951 -0.0450 -0.1262 -0.2901
18130W        W34264  10.107   8.439  12.608  0.3014 -0.1889  0.1490
18131W        W34265   3.716  14.715   2.912 -0.1257  0.0315 -0.2827
18132W        W34266  14.924  18.554  10.150  0.0316  0.1382  0.2916
18133W        W34267  10.500  17.733  11.824 -0.3458  0.0298  0.3442
18134W        W34268  14.496   0.949  12.618 -0.1477  0.2509 -0.2250
18135W        W34269   4.497  19.030  15.008  0.2604 -0.0729 -0.2526
18136W        W34270   1.547  15.908  13.719  0.2218  0.3186  0.3526
18137W        W34271  17.174  13.848   4.276  0.1845  0.1572 -0.4595
18138W        W34272  11.503  16.793  12.410 -0.0970 -0.1115  0.2672
18139W        W34273   4.394  15.867  13.112  0.2654 -0.1182 -0.0797
18140W        W34274  10.532  15.932   2.768 -0.3249 -0.2107  0.3113
18141W        W34275   5.440  16.051   2.978  0.1095 -0.1666  0.2292
18142W        W34276   0.291  11.133   0.900 -0.1021  0.0206 -0.2207
18143W        W34277   9.459   2.387  11.389 -0.1587  0.4408  0.0247
18144W        W34278   8.362  12.591  10.938  0.2500  0.0003 -0.1704
18145W        W34279   3.606   1.656   3.221 -0.0057 -0.1265 -0.0610
18146W        W34280  16.509   6.310  11.730 -0.2047 -0.2769 -0.2631
18147W        W34281  11.437   8.060   4.608  0.0098 -0.1287 -0.0090
18148W        W34282   0.178  10.431   0.871 -0.2460 -0.0395  0.6122
18149W        W34283   6.724   5.488  10.283 -0.0815 -0.2788 -0.2454
18150W        W34284   6.044   7.730  14.959  0.0107  0.0550  0.0844
18151W        W34285  14.712  16.991   3.742  0.2572 -0.1024 -0.0489
18152W        W34286   8.684   1.519  12.773  0.2059  0.2966  0.0048
18153W        W34287  17.071   8.516   2.559 -0.1873 -0.0439 -0.1441
18154W        W34288  18.314   2.880   0.273  0.3171 -0.1715  0.3691
18155W        W34289   2.852  15.828   3.110  0.0455 -0.0213  0.0980
18156W        W34290  17.070  12.449   1.322 -0.0897  0.3035  0.3583
18157W        W34291   9.899   2.492   1.399 -0.2213  0.1543 -0.0224
18158W        W34292  12.386  14.821  14.470 -0.1929 -0.1159 -0.0579
18159W        W34293   0.182  15.762   1.203  0.1734 -0.0737  0.0637
18160W        W34294  18.232   3.683  10.367 -0.1662 -0.4238  0.0413
18161W        W34295   3.404  15.732   1.196 -0.0368 -0.2614 -0.2624
18162W        W34296  11.647   0.394  11.711  0.0044 -0.2705 -0.1968
18163W        W34297   8.475  12.016   2.712 -0.0858 -0.0989 -0.3336
18164W        W34298  11.976   7.800   0.697  0.3019  0.4009 -0.2673
18165W        W34299  15.968   4.529   2.747  0.0289  0.2002 -0.2851
18166W        W34300   8.115  11.399  11.801 -0.0638  0.1086  0.1568
18167W        W34301   9.463  16.444   1.659 -0.3504  0.0619  0.1803
18168W        W34302  16.017  17.642   3.629 -0.0218  0.1086  0.1602
18169W        W34303   0.665   7.179  10.292 -0.1512 -0.0604 -0.3207
18170W        W34304  15.656   4.932  10.418  0.2313 -0.2372 -0.1555
18171W        W34305   9.629   6.712  14.204 -0.0787  0.1173 -0.0798
18172W        W34306  15.227   3.513   5.550 -0.1293  0.1387 -0.3989
18173W        W34307   5.202   5.474  14.882 -0.0724  0.3156  0.1270
18174W        W34308  13.092   0.796  13.173  0.0005  0.2560  0.2423
18175W        W34309   3.900  17.091  11.155 -0.0008  0.0812 -0.0035
18176W        W34310   3.181   9.162   0.976  0.2508  0.2827 -0.0161
18177W        W34311  16.002  19.200   1.250  0.0262 -0.0910 -0.1864
18178W        W34312   6.374  11.927   4.426 -0.0250 -0.0813  0.2860
18179W        W34313  14.989   3.819   4.213  0.0387  0.1807  0.0538
18180W        W34314   1.478   2.530   1.934  0.3049  0.1633 -0.0173
18181W        W34315   3.752  15.016   2.462 -0.1980  0.0939  0.2735
18182W        W34316  16.875   9.826   5.616  0.1179 -0.3288 -0.0491
18183W        W34317   5.441   1.047  11.932  0.2446  0.0374 -0.1616
18184W        W34318   3.378   6.558   1.950 -0.1207 -0.0178  0.0567
18185W        W34319  15.805  18.347   5.359 -0.1234  0.3569  0.0148
18186W        W34320  15.469   9.607  10.459  0.0176  0.2370  0.0702
18187W        W34321  13.223  18.484  13.047 -0.0493 -0.0434  0.2232
18188W        W34322   4.877   7.451  10.573 -0.2289 -0.2245 -0.1182
18189W        W34323  13.687  16.457   3.446 -0.0641  0.0562  0.1557
18190W        W34324   1.600   8.578   2.688 -0.2110 -0.1304 -0.3356
18191W        W34325   8.134  13.624  13.394 -0.0271  0.0572 -0.0556
18192W        W34326  14.176  15.282  10.601 -0.1503  0.1932  0.3721
18193W        W34327   2.625  16.252   4.555 -0.2022  0.1700  0.3191
18194W        W34328  12.481  14.357   4.609  0.0100 -0.2666  0.0767
18195W        W34329  11.470   3.206  13.053 -0.2217  0.0177 -0.0457
18196W        W34330  17.596   2.044   3.213 -0.1789 -0.3356 -0.1276
18197W        W34331  13.441   2.711  13.305 -0.3274 -0.3716 -0.0981
18198W        W34332   1.877   1.800   2.809  0.1923 -0.1498  0.2543
18199W        W34333  17.258  16.379   1.398  0.2062  0.3702  0.1194
18200W        W34334   1.826  13.273  10.176 -0.1109 -0.0379 -0.0588
18201W        W34335   2.447  12.536   2.419  0.0179  0.0898  0.1510
18202W        W34336  15.210   1.106   4.811 -0.3780 -0.0994  0.0357
18203W        W34337   7.150   8.533  14.829  0.2642 -0.2680  0.1445
18204W        W34338  12.967   4.651   3.927  0.0555 -0.0454 -0.1751
18205W        W34339   3.332   9.983  11.677  0.0781 -0.1376  0.3718
18206W        W34340  18.943  10.616   5.014  0.0639 -0.4382 -0.0995
18207W        W34341  17.485  13.767  11.830  0.3327  0.3071 -0.1634
18208W        W34342   1.913   3.566  13.858  0.5273  0.1363  0.0773
18209W        W34343  10.101   6.156   3.416 -0.0529  0.2114  0.0169
18210W        W34344  18.982  12.503   3.272  0.1511  0.0847  0.0034
18211W        W34345   1.957  12.824   5.381  0.1379  0.1847  0.3767
18212W        W34346  14.950   3.423  14.325  0.2871 -0.0920  0.1169
18213W        W34347   6.419   1.938  14.047 -0.3265  0.1729  0.0111
18214W        W34348  13.865   7.780   1.957  0.3162  0.1976  0.0870
18215W        W34349  13.202  10.065   3.581  0.0612  0.1724  0.3111
18216W        W34350  13.116   5.189   1.933  0.1174 -0.1289 -0.0900
18217W        W34351   8.665  11.655  12.613  0.1816  0.1872 -0.1002
18218W        W34352   3.715   6.490  10.579  0.4420 -0.0923  0.2132
18219W        W34353   3.605  11.277  10.608 -0.0126  0.1365  0.3102
18220W        W34354  15.421  16.170   1.710 -0.2834  0.1124  0.1551
18221W        W34355   3.484  18.778   4.514  0.1144  0.2897  0.0309
18222W        W34356   9.595   2.135  13.571 -0.2118  0.0408 -0.2306
18223W        W34357   3.482   4.892  12.232  0.0450 -0.2672  0.0279
18224W        W34358   7.237   0.368   0.588  0.2654  0.2740  0.0388
18225W        W34359   6.884   6.906  11.865 -0.0705 -0.4328  0.0257
18226W        W34360   6.343   0.541  13.698  0.0939 -0.0040  0.3660
18227W        W34361  18.019  15.619  10.070 -0.1592  0.2055 -0.0781
18228W        W34362   4.453  13.698   5.141  0.0800 -0.2921  0.0435
18229W        W34363  12.160   8.788  12.646  0.0956 -0.0867 -0.0944
18230W        W34364  11.302  12.623   2.611  0.3010 -0.2531 -0.0014
18231W        W34365   8.157   0.433   2.245 -0.3821  0.0012  0.2969
18232W        W34366   3.816  12.757  14.173 -0.0135 -0.1068  0.3659
18233W        W34367  11.667   8.023  10.359 -0.3202  0.4118  0.0268
18234W        W34368   7.811   6.840  11.960 -0.0050 -0.0087  0.0187
18235W        W34369  17.802  16.787  11.623 -0.3069 -0.0926 -0.2138
18236W        W34370   4.772   1.832   1.576  0.4029  0.2735  0.0003
18237W        W34371  16.955   0.190   2.643  0.1276  0.2472  0.3868
18238W        W34372  15.551  12.597   4.301  0.0827  0.1602 -0.1232
18239W        W34373   3.740  17.390   4.137  0.0355 -0.0994  0.0816
18240W        W34374  12.551  14.798   2.282  0.0172 -0.2500  0.2484
18241W        W34375  14.428   5.082   4.377  0.1232  0.1362  0.2333
18242W        W34376   5.335   0.688  10.489  0.2299 -0.0199  0.1526
18243W        W34377  16.350  19.115   4.584  0.2277 -0.2118  0.3582
18244W        W34378  11.271  18.861   3.382 -0.0835  0.2044  0.1085
18245W        W34379   4.271   0.601  12.757  0.1955 -0.0167 -0.1867
18246W        W34380   8.157  14.034   1.043  0.1779 -0.0005  0.0827
18247W        W34381   0.104  14.571   1.217 -0.0001 -0.1053 -0.0295
18248W        W34382  17.938   6.074  11.866  0.0250 -0.1256 -0.0191
18249W        W34383   3.744   8.020  14.618  0.0147  0.0552 -0.2521
18250W        W34384   2.160   3.882   1.159 -0.0694 -0.5962  0.2582
18251W        W34385   2.440   0.018   1.347 -0.0379  0.0065  0.0391
18252W        W34386  14.001  14.580   3.947  0.0946 -0.1116  0.1025
18253W        W34387   5.136   3.402   1.811 -0.0330  0.1417 -0.0773
18254W        W34388  10.097  17.734   1.822  0.0146 -0.1259  0.0655
18255W        W34389  10.449  16.081   0.163  0.0504  0.1436  0.1060
18256W        W34390  15.363   5.681  11.154  0.3091 -0.3822  0.1669
18257W        W34391   2.896  15.419   4.933  0.4814  0.0843 -0.1364
18258W        W34392   7.300   9.109   0.265  0.2286  0.1957  0.1952
18259W        W34393  12.609   2.915   0.827 -0.0735  0.1775 -0.1889
18260W        W34394   1.721  12.791  15.009 -0.1248  0.1286 -0.2933
18261W        W34395  14.757  17.064  14.202  0.1871 -0.1308 -0.0850
18262W        W34396  15.812   6.233   2.645 -0.2035  0.4294  0.2335
18263W        W34397  17.784   9.024   1.429  0.0043 -0.0319 -0.0509
18264W        W34398  14.885  16.229  12.813  0.2075  0.1021  0.0974
18265W        W34399   5.242  18.049  12.523  0.1076  0.2117  0.1780
18266W        W34400   9.558  17.111   2.382  0.1193 -0.1399 -0.1244
18267W        W34401   7.156  17.092   9.828  0.0521  0.0049  0.1734
18268W        W34402  17.726   6.699   3.508 -0.0720 -0.2436  0.1549
18269W        W34403   9.510  17.933  14.675 -0.2093 -0.1539 -0.1027
18270W        W34404   0.354  18.375  11.763  0.1922 -0.0987 -0.3573
18271W        W34405   7.694  18.994  10.449 -0.1223 -0.1469 -0.1272
18272W        W34406  13.496   3.966   2.570  0.1404  0.1091 -0.0617
18273W        W34407   3.847  15.431  11.737 -0.3135 -0.3366 -0.3458
18274W        W34408  15.653   3.080  14.298  0.2024  0.3137  0.2092
18275W        W34409   1.903  12.077   2.267  0.0054  0.2444  0.2122
18276W        W34410  16.882   0.899  13.070  0.4771 -0.1076  0.0079
18277W        W34411  15.521  18.105   1.463  0.1650 -0.0697 -0.0223
18278W        W34412  13.288  19.104   3.324  0.2004 -0.2155 -0.0097
18279W        W34413  16.304  16.649  13.731 -0.1993 -0.1650  0.0887
18280W        W34414  12.531   8.241  13.667 -0.2171  0.0291 -0.1607
18281W        W34415  10.865  12.339  10.429  0.4963  0.2690 -0.1546
18282W        W34416   6.824  16.397  11.486  0.0508 -0.0062  0.3983
18283W        W34417  13.319   6.626   4.300  0.0473 -0.3537  0.0398
18284W        W34418   2.073   3.489  12.958 -0.1029  0.2090  0.0761
18285W        W34419   0.318  17.184   0.098  0.2482  0.5108  0.2759
18286W        W34420  13.769  11.791  12.160  0.2064  0.1009  0.1895
18287W        W34421  15.044  10.663   3.884  0.3657 -0.1961  0.1858
18288W        W34422   3.990  14.704   4.244  0.0153 -0.3340 -0.0850
18289W        W34423  15.197   4.605  10.455  0.0013  0.2284 -0.1726
18290W        W34424  17.607   0.976   1.707  0.1192 -0.5384 -0.5203
18291W        W34425  13.496  11.153  10.916 -0.2976  0.2304 -0.0955
18292W        W34426   8.862  16.029   3.696 -0.1360 -0.0338  0.2605
18293W        W34427  16.583  17.551  13.100  0.2210  0.0511  0.0035
18294W        W34428   3.034  17.528  13.967 -0.1389  0.0789 -0.1828
18295W        W34429   0.174   3.361   1.323 -0.1394  0.0680 -0.1008
18296W        W34430  17.322  17.553  10.176  0.1005  0.3429 -0.0676
18297W        W34431   5.558  16.998  11.597  0.0731 -0.0551 -0.0431
18298W        W34432   3.743  14.884  12.169 -0.0349  0.2521  0.0772
18299W        W34433  18.756   7.205  14.459  0.2754  0.1861  0.0687
18300W        W34434   2.871  15.397  13.870 -0.3037 -0.0212 -0.2533
18301W        W34435   5.676  14.306  12.047  0.2101  0.0131  0.2169
18302W        W34436   6.886  11.483   3.784  0.1452  0.2074 -0.0344
18303W        W34437   1.981  12.007   4.720 -0.2910  0.2622 -0.2233
18304W        W34438   8.901   9.056   4.675  0.0701  0.3116 -0.0987
18305W        W34439  12.464   0.946   2.973 -0.1780  0.0711 -0.0200
18306W        W34440  16.774  16.844   1.913  0.1459  0.4013 -0.1847
18307W        W34441   1.542   9.563  13.989  0.0078  0.2098 -0.2726
18308W        W34442  19.233  13.501   0.965 -0.1350  0.0198 -0.2487
18309W        W34443  19.178   5.946  12.271 -0.0497 -0.0281  0.0805
18310W        W34444   6.122   6.355  14.009 -0.1319 -0.1841 -0.0487
18311W        W34445   1.928   7.386   4.209  0.1134 -0.0960  0.0762
18312W        W34446   5.169  10.175  12.542  0.1389  0.0022 -0.1763
18313W        W34447  11.157  14.746   2.222  0.0739 -0.2041  0.1212
18314W        W34448  12.411   7.319  14.527 -0.0125  0.0204 -0.1912
18315W        W34449  15.028   6.158  11.308  0.2326 -0.1915  0.1810
18316W        W34450  18.694  15.398  11.945 -0.1111  0.3059  0.3389
18317W        W34451  14.656  13.281   0.203  0.0172  0.1741  0.0682
18318W        W34452  17.685   7.955  14.879  0.1703 -0.1383  0.0117
18319W        W34453   5.295   5.962  10.251 -0.0278 -0.1592 -0.2038
18320W        W34454  18.215  18.876  14.050  0.1238  0.0865  0.0431
18321W        W34455   2.177   6.272   3.571 -0.0066 -0.0657 -0.1783
18322W        W34456   0.310   1.348  10.464  0.1061 -0.1282  0.2424
18323W        W34457   8.775   9.119  14.165 -0.3029  0.2319 -0.2093
18324W        W34458   8.674   8.372  13.877  0.1429  0.4165  0.0550
18325W        W34459   3.607  12.047   2.795  0.1755 -0.2302 -0.1789
18326W        W34460  12.730   4.354  11.879  0.2750  0.1517 -0.2291
18327W        W34461   2.006  15.388   1.657 -0.0856  0.1024  0.4964
18328W        W34462   4.663   5.203   0.039  0.2225  0.0726  0.2261
18329W        W34463   3.587  13.602  13.210 -0.1961 -0.0239  0.0525
18330W        W34464  10.070  10.694  11.293  0.2607  0.2813 -0.1622
18331W        W34465  17.108   7.579   1.728 -0.0527  0.0509 -0.0584
18332W        W34466   0.915   2.829  11.181  0.0902 -0.2033 -0.2022
18333W        W34467   8.742  14.847   0.041  0.1051  0.1435 -0.0584
18334W        W34468   3.407   8.497   3.196 -0.1297 -0.3841  0.2417
18335W        W34469   0.178   8.862  10.838 -0.0967 -0.0186 -0.0598
18336W        W34470  17.505  12.696  14.999  0.2419 -0.3492  0.1359
18337W        W34471  18.729   7.217  13.282  0.0392  0.1010 -0.2268
18338W        W34472  15.274  13.866  13.915 -0.0179  0.0160  0.0870
18339W        W34473  18.935  18.830   2.368  0.0184  0.0958 -0.0223
18340W        W34474   3.464   2.253  10.250  0.0507  0.0567 -0.1252
18341W        W34475  12.121   5.236  12.341 -0.1211  0.3159 -0.2575
18342W        W34476  16.768  15.467   9.909 -0.1033 -0.0280 -0.0075
18343W        W34477  15.395   6.001   2.902  0.0576  0.2457  0.0578
18344W        W34478   4.063   6.340  10.326  0.0292 -0.0560  0.3134
18345W        W34479   8.464  15.638   2.373  0.1655 -0.1370 -0.1612
18346W        W34480   7.548  10.760  10.285 -0.0878 -0.1842  0.3280
18347W        W34481   4.977   5.499  13.808 -0.1733  0.1287  0.0420
18348W        W34482   1.701   3.469   3.051 -0.2205 -0.0197 -0.0958
18349W        W34483   4.925   3.728   0.378 -0.0000  0.0438 -0.1334
18350W        W34484  12.347   4.827   2.848 -0.1623  0.2474  0.0432
18351W        W34485   6.335  13.931   2.621 -0.1097 -0.0254  0.0275
18352W        W34486   0.865   6.034   9.999 -0.1174 -0.0337  0.0109
18353W        W34487  10.654  15.795   0.552 -0.1223 -0.0486  0.2109
18354W        W34488   4.103  14.208   3.174  0.5181 -0.1366 -0.4815
18355W        W34489   8.483   4.927   0.961  0.2316  0.2192  0.1396
18356W        W34490  15.198  14.689  14.943  0.0604 -0.1909 -0.0068
18357W        W34491  16.944  18.415   4.032 -0.0700  0.1406 -0.0957
18358W        W34492   3.821   3.415  14.786  0.0834  0.2876 -0.0197
18359W        W34493  12.026  16.512   3.492  0.2151 -0.3751 -0.1420
18360W        W34494   8.407  12.515   3.550 -0.1662 -0.1131 -0.0385
18361W        W34495  13.773   6.626   4.145  0.0062  0.0597 -0.2294
18362W        W34496   6.441   9.085  11.514 -0.0845 -0.2441 -0.1842
18363W        W34497   7.971  17.215   4.095  0.1738  0.1074 -0.1927
18364W        W34498  12.577  12.162  13.944  0.1001  0.1392  0.3345
18365W        W34499  14.254   7.009  13.888 -0.0924 -0.4749 -0.1532
18366W        W34500   7.988   4.372   3.544  0.0663 -0.1409 -0.2106
18367W        W34501   1.959   8.042  10.426  0.1038  0.0598  0.1432
18368W        W34502   7.075   9.756  10.308  0.1705  0.0577  0.0313
18369W        W34503   3.994   4.579  13.582 -0.1521  0.0550  0.1882
18370W        W34504   4.252  14.151  13.091  0.2433 -0.1052 -0.2089
18371W        W34505   2.502  14.737  11.469  0.1696 -0.0297  0.1329
18372W        W34506  12.906   1.943  14.935 -0.0218  0.3089 -0.0321
18373W        W34507   6.760   6.504   5.605 -0.0678  0.5564 -0.0539
18374W        W34508   1.319   7.684   2.986  0.2087  0.2335  0.1104
18375W        W34509  16.257   3.352  14.822 -0.0133  0.2338 -0.0223
18376W        W34510   2.566  17.965   1.815 -0.1407  0.0809  0.1153
18377W        W34511  16.764  14.981  11.533  0.1327 -0.0584 -0.3141
18378W        W34512  11.344   2.414   1.650 -0.3893 -0.1238  0.0954
18379W        W34513   5.660   9.432  12.121 -0.3029 -0.2821  0.1250
18380W        W34514   1.981  14.451   1.545 -0.2360  0.1810  0.0224
18381W        W34515   3.421  12.127  12.338 -0.0192 -0.3425  0.0429
18382W        W34516  16.814   6.058   8.951  0.0625  0.1747  0.1060
18383W        W34517  11.908   4.311  14.877 -0.0047  0.3090  0.0050
18384W        W34518   5.355  18.929   3.970 -0.0139 -0.0559  0.0588
18385W        W34519  15.980  18.559  11.454 -0.0738  0.0468 -0.1648
18386W        W34520  15.361  12.218  14.908 -0.2180 -0.2624  0.2623
18387W        W34521   8.418  14.782  13.978 -0.0422 -0.2018  0.0943
18388W        W34522  17.266   0.508   1.792 -0.2679 -0.2373 -0.2631
18389W        W34523  13.209   5.825  11.650 -0.3056 -0.3910 -0.0715
18390W        W34524  15.121  15.764  14.962  0.0599 -0.0717 -0.1177
18391W        W34525   6.295   0.235   3.449 -0.0574 -0.2364 -0.2264
18392W        W34526   5.247   6.566  13.031  0.1127  0.1898  0.0797
18393W        W34527   5.611   2.746   9.957 -0.0343 -0.2559  0.1684
18394W        W34528  11.078   9.580  13.841  0.1936 -0.1694 -0.1339
18395W        W34529  10.338   3.051   0.804  0.2367 -0.1178 -0.0485
18396W        W34530  14.606  16.687   4.182  0.1465 -0.2027  0.1181
18397W        W34531   3.113   2.551   3.019 -0.1793 -0.3216  0.3875
18398W        W34532  13.023  11.846   4.109  0.0379  0.1658 -0.1039
18399W        W34533   0.129  18.587   2.698 -0.1045 -0.3494 -0.1408
18400W        W34534   7.299  16.295  11.803 -0.1190 -0.1618 -0.2863
18401W        W34535   1.963   1.556  10.968 -0.2324 -0.0852  0.0364
18402W        W34536  15.411  17.288   2.640  0.0152  0.0899 -0.1050
18403W        W34537  14.268   0.610   4.578 -0.0187  0.0254  0.1020
18404W        W34538   3.547  15.503   0.293  0.0095  0.1422 -0.2122
18405W        W34539   3.417   9.857   4.433 -0.0901  0.1302  0.0428
18406W        W34540   4.641  11.169  13.378  0.1737 -0.1003 -0.1032
18407W        W34541   5.317   7.404   1.041 -0.0388 -0.3088  0.2229
18408W        W34542   0.165   0.016  10.455 -0.1698 -0.1390  0.1384
18409W        W34543  10.793  16.182   1.883 -0.3487  0.2676 -0.1287
18410W        W34544   8.813  17.964   2.715 -0.0458 -0.1270 -0.0365
18411W        W34545   5.946   3.801  14.969  0.0183 -0.2866 -0.0643
18412W        W34546  12.807  11.653  13.401  0.0350  0.1961  0.0062
18413W        W34547  13.247  18.950  10.417  0.0636 -0.2945  0.2917
18414W        W34548  11.631  13.795   1.009  0.4132 -0.0396  0.4691
18415W        W34549   1.567   0.403   1.607  0.2818  0.1159 -0.4734
18416W        W34550   3.754   6.523   1.640 -0.0917 -0.0445  0.1691
18417W        W34551  18.449   0.470   9.753  0.1802 -0.3356 -0.1277
18418W        W34552   7.158  18.324  12.603 -0.0901  0.2271  0.1376
18419W        W34553  18.032  17.312  14.358  0.2646 -0.2462  0.0081
18420W        W34554  15.562   8.330   2.537  0.2278  0.0297  0.0161
18421W        W34555  14.946   7.130  14.749  0.1327 -0.0870  0.0439
18422W        W34556   2.826   4.888   4.599 -0.0726 -0.0293 -0.1292
18423W        W34557  11.352   3.783   0.098 -0.3404 -0.3898 -0.2448
18424W        W34558  15.550  18.965  14.158  0.1764  0.3178 -0.0709
18425W        W34559   4.026  14.858  11.276  0.3600  0.0546  0.3011
18426W        W34560   5.195   3.366   3.266  0.1113  0.1824  0.1059
18427W        W34561  18.267   1.014   2.587 -0.2707  0.0797  0.3627
18428W        W34562   2.343  12.172   4.184  0.2021 -0.1834 -0.2539
18429W        W34563   6.657   1.592  14.970 -0.0859  0.1503 -0.1599
18430W        W34564  18.226   0.527  14.243 -0.2944 -0.3746  0.1682
18431W        W34565   5.989  16.865   4.109  0.0053 -0.1307  0.1108
18432W        W34566   1.576  18.827   2.867 -0.0314  0.2814 -0.0685
18433W        W34567  16.821   5.819  14.162 -0.0189  0.3144  0.2192
18434W        W34568  17.853  19.203  14.759  0.1650  0.0430  0.4035
18435W        W34569   1.221  18.020  10.382  0.1197 -0.1108 -0.0941
18436W        W34570   9.478   2.709   5.352  0.3072  0.1340 -0.0916
18437W        W34571  18.532  18.438  12.258 -0.2945  0.0829 -0.3335
18438W        W34572  19.174  16.149  12.681 -0.1263  0.1748  0.1301
18439W        W34573  14.338  18.600   1.963  0.0398 -0.0370 -0.0407
18440W        W34574   4.344  18.055  12.360  0.1001 -0.2407  0.0825
18441W        W34575  14.383  13.790   4.958  0.1810  0.0294  0.0124
18442W        W34576  14.122  16.429   2.313  0.2346 -0.1996 -0.1768
18443W        W34577  15.682   2.311  12.777 -0.2487  0.4116  0.0847
18444W        W34578   3.205  15.040   2.244  0.3018  0.1291  0.4680
18445W        W34579  14.254  13.143  10.203 -0.2420  0.1366  0.1181
18446W        W34580  16.876  11.232   2.986  0.1897 -0.0505  0.0192
18447W        W34581   8.759  17.709  12.647  0.1135  0.1496 -0.1135
18448W        W34582   7.764  18.826  11.571 -0.1550 -0.1665  0.0413
18449W        W34583  16.773  10.911   2.421  0.3707 -0.2820  0.0135
18450W        W34584  11.163  17.438   5.225 -0.1244 -0.0194  0.1501
18451W        W34585   4.511   2.537   0.985 -0.0748 -0.2778 -0.1046
18452W        W34586   7.397  16.422  12.358  0.1139 -0.0269  0.3178
18453W        W34587  13.495  16.534   0.011  0.1866 -0.2743  0.1757
18454W        W34588  15.878   8.515   5.268 -0.0010  0.1741 -0.0675
18455W        W34589  15.826  10.563  12.869 -0.4282 -0.1873 -0.2677
18456W        W34590   7.653   3.300   4.992 -0.0469  0.0103 -0.2179
18457W        W34591  13.170  10.303   1.855 -0.1078 -0.0901  0.0792
18458W        W34592   5.362   3.211  13.638 -0.0343 -0.0969 -0.1661
18459W        W34593   3.951   7.806   4.857  0.0122 -0.1118 -0.0126
18460W        W34594   4.463  14.244  12.192  0.0902  0.0049  0.0841
18461W        W34595  13.892  16.151  13.627 -0.3489  0.1639 -0.1311
18462W        W34596  15.340   7.809   9.766  0.0220  0.0664  0.0960
18463W        W34597  11.525   2.928   3.157  0.2018 -0.0283 -0.3659
18464W        W34598  11.427  13.092   2.775  0.3053  0.2436  0.0464
18465W        W34599  17.424   5.801  12.837 -0.1005 -0.2661  0.1474
18466W        W34600   3.742  18.309  14.817 -0.2671 -0.1332 -0.4424
18467W        W34601   9.438   8.007  11.545 -0.0239  0.0251 -0.2406
18468W        W34602   2.658  14.971   2.319  0.0812 -0.0920  0.1236
18469W        W34603   1.605  18.534   4.695 -0.1923  0.1304  0.0631
18470W        W34604   8.818   9.122  10.085  0.0581  0.0772 -0.0980
18471W        W34605   3.983  13.876   5.415  0.5428 -0.1334 -0.1333
18472W        W34606   9.493   4.963   9.974  0.0251 -0.4786  0.2187
18473W        W34607  19.046   5.994  14.887 -0.2939  0.5001  0.2138
18474W        W34608  15.363  10.542   1.923 -0.1038 -0.0238 -0.0704
18475W        W34609  13.784  10.555   2.571  0.1206 -0.1432  0.0744
18476W        W34610   8.787  16.444  12.614 -0.0799  0.2244  0.0636
18477W        W34611   7.009  14.391  14.224 -0.1565  0.1766  0.1818
18478W        W34612  14.134  18.218   2.897 -0.4260  0.0755 -0.2321
18479W        W34613  13.458  18.480   5.146  0.1547 -0.1897 -0.0479
18480W        W34614   5.109   1.986  12.784  0.0696 -0.2494  0.2181
18481W        W34615  13.715  12.684   0.502 -0.1562  0.1103 -0.1937
18482W        W34616   1.657   5.571   2.717  0.3032 -0.0577 -0.4126
18483W        W34617   8.989   2.921   1.923 -0.2311  0.3315 -0.1608
18484W        W34618   9.044  15.607  10.119 -0.2077 -0.4074  0.2734
18485W        W34619  11.038   2.751   3.335 -0.4794 -0.1381 -0.1640
18486W        W34620  16.226   0.733   0.712  0.0366 -0.0737 -0.2916
18487W        W34621   4.907   3.294  12.086  0.0491  0.2706  0.2967
18488W        W34622   7.677  12.814  10.645  0.0150 -0.0346 -0.1837
18489W        W34623  13.599  12.982   0.062  0.2019  0.1654  0.1571
18490W        W34624   5.661  12.279  11.485 -0.0371 -0.3080 -0.1518
18491W        W34625  12.788  18.349  14.791  0.0781 -0.0437  0.2938
18492W        W34626   4.571   3.997  12.619 -0.0980 -0.1229 -0.3670
18493W        W34627  19.019   7.563   1.092  0.0771  0.5001  0.1150
18494W        W34628  17.396  12.475   4.892  0.2546 -0.1042 -0.0258
18495W        W34629   8.983  12.605   3.975 -0.1059  0.1414  0.0892
18496W        W34630   8.384  16.486   1.443 -0.0002  0.0262 -0.1750
18497W        W34631   2.078   6.739   2.028 -0.4200 -0.0645 -0.3594
18498W        W34632   5.348   2.720   0.489 -0.0973  0.4040  0.3292
18499W        W34633   0.273   5.291   0.184 -0.0613  0.0702 -0.0683
18500W        W34634  13.512   0.035   3.796  0.1476 -0.0109 -0.2626
18501W        W34635   1.546   1.211  10.292 -0.0089 -0.0607  0.1055
18502W        W34636   2.548  18.248  10.967  0.0884 -0.2355 -0.0914
18503W        W34637   0.014  16.552   0.671  0.0700 -0.3583  0.0608
18504W        W34638  10.789   9.037   1.406 -0.1692 -0.0552  0.2696
18505W        W34639  16.158  16.249   3.762  0.1263  0.2454 -0.0283
18506W        W34640  15.347  14.967   4.784 -0.2814  0.0078 -0.0800
18507W        W34641  16.316   4.201   1.864 -0.1681 -0.2280 -0.1164
18508W        W34642   4.606  17.959   0.874 -0.1468 -0.1449  0.2549
18509W        W34643  10.865  11.360  12.956  0.0823 -0.0622 -0.3575
18510W        W34644  15.267   2.502   3.759 -0.2996 -0.0643  0.1859
18511W        W34645  18.450   2.715   1.730 -0.0439 -0.3765 -0.2449
18512W        W34646  14.456   8.011   1.390 -0.0011  0.0170 -0.0429
18513W        W34647  13.818  18.591   4.173  0.1971  0.1676 -0.1698
18514W        W34648   8.761  17.619   3.516 -0.0068  0.0771 -0.2028
18515W        W34649   7.433   4.499  12.179  0.0991 -0.1414 -0.0857
18516W        W34650  18.646   1.528  13.474 -0.1000 -0.0193 -0.0848
18517W        W34651  10.303  13.942   4.507  0.2572 -0.2931  0.3790
18518W        W34652  12.763  14.560   3.132 -0.2240  0.4096 -0.2328
18519W        W34653   5.200  10.169  14.158 -0.0819 -0.2962 -0.0653
18520W        W34654  18.873  12.456   1.996  0.0204 -0.0543  0.0938
18521W        W34655   3.399   9.055   3.163  0.1347  0.1531 -0.0301
18522W        W34656   5.996  19.219  13.039  0.0803 -0.1096 -0.2170
18523W        W34657  17.597   8.245   3.610  0.2356  0.1284 -0.1409
18524W        W34658  15.091  12.130  13.198  0.1720  0.3076 -0.1868
18525W        W34659   8.289  18.482   1.482 -0.0632 -0.0555  0.2612
18526W        W34660  13.467  13.447  10.388  0.0044 -0.0420 -0.0521
18527W        W34661  11.972   1.022   0.168 -0.0953  0.1173  0.0344
18528W        W34662  17.425   2.649   0.343  0.1922 -0.2247  0.0566
18529W        W34663   3.945  12.268   1.498 -0.0923  0.3204  0.6596
18530W        W34664   6.026   9.659  11.757 -0.0708 -0.1523  0.0400
18531W        W34665   8.739   8.920   3.348  0.3809 -0.0209 -0.4487
18532W        W34666  18.003   9.398  11.371 -0.0183  0.0803  0.0550
18533W        W34667   2.398   8.177  13.340 -0.0554  0.0105 -0.0034
18534W        W34668   9.534  16.793  12.067  0.1821  0.2457  0.3559
18535W        W34669  10.552   9.264   1.887  0.0437  0.3161  0.0488
18536W        W34670  18.943  10.374   2.100  0.0959 -0.0795  0.1957
18537W        W34671  17.528  13.192   0.241 -0.2608 -0.0015  0.1358
18538W        W34672  12.624   1.103   0.255  0.1430  0.1016  0.3529
18539W        W34673  17.746   4.155   0.198 -0.1864  0.0293  0.1660
18540W        W34674   9.740  10.493  14.707 -0.0201  0.0822  0.2686
18541W        W34675  14.639   4.817   9.352 -0.2356  0.1456  0.2338
18542W        W34676   7.966   9.448   0.847 -0.3683 -0.3234 -0.2073
18543W        W34677   8.264  16.105  13.706 -0.1004  0.0492 -0.1293
18544W        W34678  16.725  11.579   3.400 -0.0993  0.2523  0.3286
18545W        W34679  18.492   3.271   0.525 -0.1573 -0.0630  0.1823
18546W        W34680   7.489   6.894   4.737  0.1011  0.1417  0.2157
18547W        W34681   3.519   3.154   4.478  0.0010 -0.0207  0.1419
18548W        W34682  18.820  17.703   0.268  0.1860  0.1992 -0.3251
18549W        W34683  14.894  12.292   4.654 -0.1581 -0.1633 -0.2518
18550W        W34684  14.242  10.296   0.429  0.2165 -0.0565  0.1535
18551W        W34685   8.226   2.909  11.569  0.1695 -0.1136 -0.0578
18552W        W34686  17.326   9.327  14.780  0.4363  0.0240  0.1546
18553W        W34687   7.928  18.365  11.162  0.0408  0.1952 -0.1691
18554W        W34688  17.531  17.155  14.738  0.2792  0.0928  0.0989
18555W        W34689   0.403  15.751   4.868 -0.1205  0.0593  0.3220
18556W        W34690   7.123  19.285  13.641  0.3015 -0.0590 -0.2302
18557W        W34691   6.600   1.019  12.851  0.2108  0.1141  0.4767
18558W        W34692  15.519  17.967   2.900 -0.0646 -0.1471 -0.1088
18559W        W34693  19.231   8.057   4.496 -0.0732 -0.2836  0.2913
18560W        W34694   9.120  11.561  12.933  0.1779 -0.0015 -0.2186
18561W        W34695  18.561  12.160  14.433 -0.0750  0.2152  0.0303
18562W        W34696  10.737   3.317   0.627 -0.0649  0.0317  0.1328
18563W        W34697   5.115   2.599   0.080 -0.0844  0.0443 -0.3523
18564W        W34698   9.390  14.235  13.087  0.0723  0.2934  0.1890
18565W        W34699  14.020  15.655  12.325  0.0726 -0.0519  0.0885
18566W        W34700   7.191  16.920   3.310 -0.0902  0.1699 -0.5708
18567W        W34701  18.671  17.172   2.978  0.1993 -0.0857 -0.3113
18568W        W34702   7.143  19.313   5.268  0.2698  0.0528  0.0274
18569W        W34703   4.607  17.317  12.686 -0.1602  0.3620  0.3161
18570W        W34704  13.736  11.057   2.628  0.2376 -0.3803  0.1744
18571W        W34705   9.253   3.514  10.272  0.4822  0.0488  0.2943
18572W        W34706  14.357  16.719   0.945  0.1401  0.1192 -0.0429
18573W        W34707  13.787   1.794   1.778 -0.2354  0.0321  0.2590
18574W        W34708  11.353  15.488   1.583  0.0339 -0.0344  0.0566
18575W        W34709   3.621  16.500   4.627 -0.2468 -0.0273  0.2429
18576W        W34710   6.161  12.490   5.257 -0.0294 -0.3798  0.3359
18577W        W34711  18.421  11.471  12.162 -0.2637  0.0591 -0.4085
18578W        W34712   4.745   4.456   3.321 -0.1066 -0.2216  0.0056
18579W        W34713   1.658  12.961  13.407 -0.1615  0.1256  0.2486
18580W        W34714   6.505   5.628  14.262 -0.0483  0.1824 -0.0244
18581W        W34715   0.673  15.004  13.652 -0.2970  0.4050  0.0344
18582W        W34716  12.645  18.138   4.242  0.1384 -0.1695 -0.1137
18583W        W34717   4.737   5.335   2.868  0.2630 -0.0719 -0.2799
18584W        W34718  17.293  19.119  10.030 -0.2920  0.1592  0.3046
18585W        W34719  17.411  11.896   0.638 -0.2284 -0.3812  0.0394
18586W        W34720  13.727   1.715   4.483  0.1471 -0.0657 -0.1424
18587W        W34721   9.431   4.492   0.085 -0.3629  0.0536 -0.0870
18588W        W34722   9.609   9.037   2.987  0.0637  0.0140 -0.2924
18589W        W34723   0.812   5.179  13.590 -0.0233 -0.1374  0.3947
18590W        W34724   0.810  18.303  10.250 -0.5486  0.1191  0.4576
18591W        W34725  17.397   7.330   3.882  0.0241  0.2242  0.1672
18592W        W34726  15.251   0.192  12.674 -0.1461  0.3746 -0.0278
18593W        W34727   1.764   3.618   5.117 -0.2172  0.0472  0.1260
18594W        W34728   3.507   5.116   0.286 -0.1787 -0.1390  0.0761
18595W        W34729  17.580   8.643   4.595 -0.1066  0.0472 -0.0686
18596W        W34730   9.646  18.134  12.434  0.2338 -0.1289 -0.0249
18597W        W34731  11.810   5.798   2.407  0.1578 -0.3339 -0.0487
18598W        W34732  16.069   5.168   0.507 -0.0182  0.0946 -0.0845
18599W        W34733  19.061   5.553   3.594 -0.0841 -0.1951 -0.0239
18600W        W34734  11.126   1.226  13.375 -0.0949 -0.2179 -0.0488
18601W        W34735  12.924   4.428  13.383 -0.1146  0.0946  0.1110
18602W        W34736   1.640  17.879  10.779 -0.0557 -0.1304 -0.2462
18603W        W34737   8.008   6.762   0.046  0.3089  0.3803 -0.2944
18604W        W34738  16.526   8.724   0.820 -0.4860 -0.0976  0.2631
18605W        W34739   6.745   3.341   0.148 -0.3695 -0.0448 -0.1632
18606W        W34740  18.789   7.493  11.610 -0.2172  0.0586 -0.0504
18607W        W34741   7.037   4.623   0.549  0.2599 -0.0415 -0.0007
18608W        W34742   7.190  17.632  11.624  0.0788  0.1025  0.1180
18609W        W34743  16.600   3.584  11.148  0.0284  0.1043 -0.1748
18610W        W34744   0.125  12.304  14.975 -0.0735  0.1278  0.1717
18611W        W34745  17.587  15.341   9.927  0.1797 -0.0524  0.1272
18612W        W34746   3.920   1.889  12.236 -0.2472 -0.0470  0.3582
18613W        W34747   3.598   8.073  13.230 -0.1536 -0.1794  0.0321
18614W        W34748  13.296  12.421  11.723 -0.0661  0.0524 -0.1109
18615W        W34749   1.391   6.770  12.097 -0.1867 -0.4691  0.2106
18616W        W34750   1.170   5.149   5.113  0.4507  0.1959 -0.0220
18617W        W34751  16.999  19.125   0.966 -0.1820  0.0325  0.0104
18618W        W34752   6.496   6.658  12.239 -0.0441  0.0234 -0.1192
18619W        W34753   4.638   6.961  12.262 -0.2285  0.2254 -0.1243
18620W        W34754   4.307   7.504   3.195 -0.5483 -0.0609 -0.2286
18621W        W34755   0.510  14.860  12.150  0.1777 -0.1279 -0.0535
18622W        W34756  17.163   6.780  14.956 -0.0781 -0.0259  0.0330
18623W        W34757  15.729  17.402   0.551  0.4106  0.1180 -0.1572
18624W        W34758  10.968   5.953   1.717 -0.0492 -0.1453  0.0191
18625W        W34759  17.806  11.467   1.938 -0.0921  0.1632 -0.2823
18626W        W34760  14.322  11.654  11.439  0.4912 -0.2940  0.1719
18627W        W34761   6.508   1.990  13.316  0.2142 -0.4491 -0.2261
18628W        W34762   8.255   0.147  12.619  0.1078 -0.3127  0.0579
18629W        W34763   0.427   7.753  12.456  0.0324  0.1518  0.0648
18630W        W34764   3.143   3.620  13.745  0.1896  0.3608 -0.0743
18631W        W34765   9.814  14.328  13.498 -0.5148 -0.0147 -0.0656
18632W        W34766  14.987  13.903  13.499 -0.0630 -0.1307 -0.0717
18633W        W34767  17.538   2.875  10.496  0.1637 -0.0988  0.5350
18634W        W34768  17.442  16.700  13.494 -0.4345 -0.1203  0.1655
18635W        W34769   8.198  11.896  11.703  0.0312  0.2324  0.0234
18636W        W34770  11.450  18.136   4.271 -0.0076  0.1495 -0.0671
18637W        W34771  12.158   9.221   4.535  0.0197  0.1438  0.1509
18638W        W34772   3.449  15.898  11.781  0.0984  0.1753  0.1154
18639W        W34773   2.852   2.330   3.857 -0.1536 -0.1612 -0.0038
18640W        W34774  18.532   6.268   0.640  0.0353  0.3225 -0.0852
18641W        W34775  11.715  18.580   4.231  0.0756  0.2106  0.1104
18642W        W34776  14.707   3.464   4.732  0.1905 -0.0494  0.2141
18643W        W34777   9.416  11.564   1.615 -0.0180 -0.2678 -0.1515
18644W        W34778  11.258  15.358   1.038  0.3272 -0.2645  0.1820
18645W        W34779   9.139  18.051  10.660  0.1225  0.1161 -0.1319
18646W        W34780   0.578   3.217   4.754  0.1425 -0.0320 -0.3636
18647W        W34781  18.799   2.773   4.040  0.0858  0.0222 -0.0216
18648W        W34782   9.283   4.888  12.098  0.2748  0.2972 -0.5289
18649W        W34783  11.895  17.168  12.621 -0.0994 -0.2096  0.0650
18650W        W34784  11.505  18.279  13.860  0.1461  0.0386  0.3669
18651W        W34785  10.221  18.459  12.455 -0.0219  0.0940  0.0096
18652W        W34786  18.724  14.037   1.439 -0.0248  0.1206 -0.3316
18653W        W34787   5.464   1.769   3.629 -0.1940  0.0403 -0.3322
18654W        W34788   4.615   5.440  13.394  0.0963 -0.0306  0.4822
18655W        W34789   6.743  10.200   0.523  0.0378 -0.1125 -0.0627
18656W        W34790   7.582   6.581  13.881 -0.6894 -0.0888  0.1402
18657W        W34791  11.823   3.381  12.233  0.1332 -0.0458 -0.0423
18658W        W34792   5.023   3.834   4.416  0.1332  0.3943 -0.3179
18659W        W34793   9.377   7.826  12.020 -0.0108 -0.1260 -0.0086
18660W        W34794   0.847   3.943   3.255 -0.1151 -0.0659  0.1616
18661W        W34795   9.800  15.903   0.401  0.1032  0.1225 -0.1219
18662W        W34796  12.497   7.556   4.794  0.0761  0.1075  0.1303
18663W        W34797   7.203  14.218   1.178 -0.2091  0.0192 -0.1952
18664W        W34798   3.815   0.712  14.978  0.3819  0.0833 -0.2320
18665W        W34799   7.085   1.648  13.180 -0.1223 -0.0575  0.1513
18666W        W34800   7.417   7.346   0.577  0.2003 -0.0394  0.0161
18667W        W34801   4.195  10.672   5.110  0.0005 -0.0804 -0.3045
18668W        W34802  19.252   4.178  13.578  0.1363  0.2022  0.2232
18669W        W34803   9.865  15.295  12.757  0.1097 -0.2621 -0.1256
18670W        W34804  13.051  17.851  11.302 -0.1876  0.3907 -0.1052
18671W        W34805   8.657  16.638   1.912  0.2567 -0.0114  0.0588
18672W        W34806  17.225  19.150   2.902 -0.0707 -0.0117 -0.0413
18673W        W34807  18.280   3.201   2.620 -0.1712  0.0703 -0.0922
18674W        W34808  13.909   6.826   3.196 -0.1139  0.2235  0.3580
18675W        W34809   4.085   7.088   2.394  0.1747  0.1774  0.0719
18676W        W34810  14.172  12.070  11.979 -0.1510 -0.0984  0.1045
18677W        W34811  14.779  11.255   1.081  0.1034 -0.1219 -0.5393
18678W        W34812   5.195  15.784   1.560  0.1145  0.0355  0.1133
18679W        W34813  15.120   4.993   4.060 -0.1566  0.0871  0.0227
18680W        W34814  14.435  12.550  14.558 -0.1421  0.1119 -0.2405
18681W        W34815   2.870  15.409   2.803  0.0008 -0.1139  0.0951
18682W        W34816  19.311   0.496  13.824  0.1679 -0.0615 -0.0988
18683W        W34817  17.672   7.264   4.323  0.2198 -0.0873  0.0722
18684W        W34818   9.455  14.946  12.811 -0.0048  0.2851  0.0418
18685W        W34819  12.731   0.053  12.721 -0.0645 -0.1907  0.0572
18686W        W34820   8.911  16.105  11.720 -0.0891  0.3414 -0.2892
18687W        W34821  18.914  18.031  11.004  0.0420 -0.2336  0.1177
18688W        W34822   7.425   6.356  14.761 -0.0365  0.4269 -0.0413
18689W        W34823  11.605   9.199   3.279 -0.0064 -0.1192  0.0988
18690W        W34824   5.509   4.114   3.603  0.0479 -0.2111 -0.0843
18691W        W34825   7.890   3.501  13.887  0.0714  0.1201 -0.0815
18692W        W34826   9.911   8.068   4.082 -0.1476  0.1626  0.1283
18693W        W34827   9.094   7.312  12.172  0.0166  0.2368 -0.0088
18694W        W34828  14.982   0.272  10.268 -0.1907 -0.0948  0.1419
18695W        W34829   8.308   8.347  12.800  0.3018  0.1867 -0.3788
18696W        W34830  10.969  14.775  11.573  0.3015  0.0318 -0.1387
18697W        W34831  11.246  19.302  14.008 -0.0025 -0.1215  0.0564
18698W        W34832  14.347  17.601  14.618 -0.0495  0.1717  0.0391
18699W        W34833   3.814   4.177   4.215 -0.1823 -0.0833 -0.0201
18700W        W34834  16.621  10.941  11.686 -0.1006 -0.0602 -0.2622
18701W        W34835  16.909   2.569   0.305  0.0814  0.1093  0.1578
18702W        W34836  17.375  14.679   1.376  0.1349 -0.1872 -0.0242
18703W        W34837  18.167   1.674  10.872  0.0736  0.0186 -0.1667
18704W        W34838   6.065   4.414   1.766 -0.2191 -0.0508 -0.3176
18705W        W34839  19.037   7.923  14.103  0.0175  0.0287 -0.0521
18706W        W34840  14.783  17.696  11.658  0.1959  0.0856 -0.2163
18707W        W34841   9.949  14.665   3.564 -0.1396 -0.2742  0.0111
18708W        W34842  13.376  10.460  12.978  0.0895  0.1716  0.1290
18709W        W34843   3.274  13.236  13.033  0.2571 -0.2695  0.0483
18710W        W34844   3.468  18.129   2.437  0.0449 -0.1970 -0.4467
18711W        W34845   3.678  18.668   3.465 -0.1025  0.0756 -0.2560
18712W        W34846  10.113   2.245   6.238 -0.0633  0.0024  0.1479
18713W        W34847   2.732  13.429  12.228 -0.1419  0.0787  0.0618
18714W        W34848  13.475   4.643  12.526  0.3148 -0.1309  0.1560
18715W        W34849   2.249  18.575  11.646 -0.4280 -0.2681 -0.0052
18716W        W34850   2.636   7.948  11.190 -0.2581 -0.0215 -0.1986
18717W        W34851   5.701  16.065   3.374 -0.0871  0.3000 -0.1656
18718W        W34852  13.280   8.291  12.318  0.0138 -0.0389 -0.0878
18719W        W34853   3.191  17.511  11.793 -0.1986 -0.2472  0.2315
18720W        W34854   8.794  11.600  14.932  0.2851 -0.2711 -0.2042
18721W        W34855  16.242  11.732   4.833  0.2162 -0.6490  0.1775
18722W        W34856   0.948   9.151   1.232 -0.0730  0.1866  0.0187
18723W        W34857   3.929   2.757   4.525 -0.1084  0.1811  0.0696
18724W        W34858   1.372   9.246  13.437 -0.1324 -0.0258  0.2008
18725W        W34859   8.424   3.791   2.452  0.3444  0.3179  0.2317
18726W        W34860   8.965   7.205  10.768  0.2304 -0.0619 -0.1462
18727W        W34861  18.304   2.430  13.873 -0.1770  0.0272  0.3846
18728W        W34862   7.864  12.408   4.146  0.0538  0.0705 -0.2057
18729W        W34863  14.733  10.884  11.389 -0.1080 -0.1781 -0.1836
18730W        W34864  18.584  17.567   2.614 -0.3156 -0.0633 -0.1766
18731W        W34865   7.637   4.361   0.753 -0.1250 -0.1240  0.0388
18732W        W34866   1.202   3.867   3.643  0.0473 -0.0918  0.0901
18733W        W34867  18.552   7.834   1.592 -0.2586 -0.3099 -0.0793
18734W        W34868   8.136  11.068   4.120 -0.2184  0.1782 -0.0104
18735W        W34869  14.214   2.775  11.621  0.2022 -0.1184 -0.0862
18736W        W34870   6.354  18.335  10.421 -0.1054 -0.0944 -0.2203
18737W        W34871   7.163  10.679   2.094  0.3281  0.2805 -0.0887
18738W        W34872   0.284   1.625  13.378 -0.1305 -0.2779 -0.0028
18739W        W34873   9.019   9.873   5.021 -0.1950  0.0374 -0.0391
18740W        W34874   8.339  15.441  11.574  0.2158  0.1379 -0.3107
18741W        W34875   8.017  12.057   1.436  0.2696  0.1260 -0.1661
18742W        W34876  18.712  10.512   4.445 -0.1605  0.0647  0.0002
18743W        W34877   5.789   7.810  13.085 -0.0405 -0.3689 -0.0245
18744W        W34878  18.102   1.014   4.493  0.0485  0.5059  0.0936
18745W        W34879  10.275   0.208  10.917 -0.0442  0.0815 -0.0233
18746W        W34880   6.574  18.744   4.588  0.0176  0.1032  0.0117
18747W        W34881  11.866   1.704   0.645  0.2973  0.2935  0.1350
18748W        W34882   5.891  13.479   2.027 -0.2825 -0.0393  0.2905
18749W        W34883   7.205   0.846   4.826 -0.0848  0.1094 -0.1598
18750W        W34884  15.383   4.465   0.120 -0.1631  0.0980  0.0663
18751W        W34885  16.436   1.504   0.279  0.2512  0.0379  0.0686
18752W        W34886  17.121  15.815  11.822 -0.0462 -0.0407 -0.0093
18753W        W34887   0.427   6.548   0.188  0.2159  0.0400 -0.1542
18754W        W34888  18.248   9.617   1.923 -0.0503 -0.2590  0.0159
18755W        W34889  16.077   2.020   4.249  0.3426  0.1303 -0.3321
18756W        W34890   2.255   7.076  10.535  0.0003 -0.2824 -0.2159
18757W        W34891  10.156  15.618   3.430 -0.0171 -0.1082 -0.1724
18758W        W34892   7.934   5.495  11.379  0.0074 -0.3114  0.1139
18759W        W34893   5.122  18.267  10.142 -0.3839 -0.2134 -0.0365
18760W        W34894   4.402   6.673   0.297  0.1622 -0.0276 -0.1774
18761W        W34895   4.991  13.173  14.641  0.2145  0.2067  0.0653
18762W        W34896  10.880   9.561  11.150 -0.1466  0.0521  0.0566
18763W        W34897   2.348  18.708  12.593 -0.0484 -0.2027  0.1774
18764W        W34898   6.925   2.788   1.058  0.1150  0.1113 -0.0594
18765W        W34899   1.264   1.806  14.296 -0.0113  0.0571 -0.0661
18766W        W34900   9.750   7.266   0.038  0.3074 -0.1633  0.1176
18767W        W34901   6.479  17.360  12.714 -0.5377 -0.0227 -0.2327
18768W        W34902   0.063   4.372   1.156 -0.4387 -0.0824 -0.0619
18769W        W34903   4.889  18.199   2.699 -0.0687  0.1190  0.1515
18770W        W34904  13.789   3.804  12.459 -0.2875  0.0255  0.2080
18771W        W34905   7.818   7.788  13.017  0.1947  0.0118  0.0883
18772W        W34906  17.015   5.443   0.767  0.1489  0.0151 -0.0184
18773W        W34907  14.008  16.216   9.659  0.1671 -0.0298 -0.0228
18774W        W34908   4.717   2.754  12.832  0.2377 -0.3247 -0.1247
18775W        W34909  15.409  18.475   4.081 -0.0823  0.3919  0.2282
18776W        W34910   5.921  13.090  14.157  0.1324  0.0378 -0.0800
18777W        W34911   3.894   9.021   3.506 -0.1945  0.0154 -0.1378
18778W        W34912  12.228   9.869  11.762  0.1002  0.2032 -0.5005
18779W        W34913   3.275   5.157  12.660 -0.0434  0.1248  0.2170
18780W        W34914   9.464  11.697   4.801  0.3344 -0.0940  0.1540
18781W        W34915  13.666  15.136  13.462  0.0343 -0.2011 -0.0128
18782W        W34916   5.663  10.883   1.362  0.0742 -0.1057 -0.1324
18783W        W34917  14.081   6.646  11.147  0.4087 -0.1839 -0.0611
18784W        W34918   3.545  16.663  13.629 -0.0842  0.0442 -0.0836
18785W        W34919   1.433  13.884  11.283 -0.1763 -0.0519  0.1408
18786W        W34920  16.684   9.272   5.006  0.4215  0.0066  0.0804
18787W        W34921  15.881   2.593  11.906  0.1134  0.0743 -0.2361
18788W        W34922  10.803   8.004   1.543  0.0276  0.3450 -0.0067
18789W        W34923   0.773  12.614   4.003  0.4107 -0.0689  0.2814
18790W        W34924   9.609   5.324  11.009  0.0378 -0.0258  0.2746
18791W        W34925   2.364  12.695   3.943  0.3041  0.0521  0.2832
18792W        W34926  16.252  16.785  12.572  0.5119  0.1534  0.2228
18793W        W34927  14.911   7.567  12.828  0.0269 -0.1818 -0.0977
18794W        W34928  16.599  17.483  14.598 -0.1698  0.2543 -0.0011
18795W        W34929  15.112  14.733  13.269  0.1717 -0.0443  0.1728
18796W        W34930   1.493   2.024  13.253  0.2416 -0.3199 -0.2120
18797W        W34931   5.826   2.818   0.426 -0.0641  0.1860  0.0473
18798W        W34932  17.991  19.279  13.685 -0.0459  0.0108  0.2769
18799W        W34933  18.266  17.571   4.931 -0.1193  0.0453  0.1529
18800W        W34934   1.486   8.232   3.422  0.6025 -0.2380 -0.2096
18801W        W34935   2.378  10.768   2.528 -0.0793  0.0491 -0.1095
18802W        W34936   8.868  16.801   3.954 -0.0607 -0.2604 -0.3072
18803W        W34937  18.746  18.626   2.915 -0.3130  0.2780  0.1082
18804W        W34938   1.668  13.228  11.081  0.0797 -0.0727 -0.1225
18805W        W34939   2.467  18.707  10.747  0.2104 -0.0425 -0.1806
18806W        W34940   1.187   0.793  14.206  0.2598  0.2628 -0.0775
18807W        W34941  14.386   3.824   3.697  0.2571 -0.2528 -0.0104
18808W        W34942  18.738  11.816  12.435 -0.0417  0.0132  0.4573
18809W        W34943   3.930  15.850  12.028  0.2132  0.1519  0.1301
18810W        W34944   4.184   8.598  13.101  0.0423  0.0448  0.0724
18811W        W34945  13.191   4.067   1.623  0.0991 -0.0384  0.1169
18812W        W34946   2.040   8.972   3.292 -0.3752  0.0592  0.0570
18813W        W34947  13.111   1.034   1.826  0.4817 -0.0536  0.0265
18814W        W34948  14.698  13.607  12.072 -0.1304 -0.1196  0.1982
18815W        W34949   8.660  14.952   5.782 -0.1061 -0.5487  0.0977
18816W        W34950   8.669  18.246  12.883  0.0103  0.2915 -0.0919
18817W        W34951  19.133   8.718   9.210 -0.1304 -0.2345 -0.3660
18818W        W34952   9.875  15.484  13.932  0.0429 -0.0418  0.0008
18819W        W34953  18.976   8.496   4.368  0.0114 -0.0956  0.2191
18820W        W34954  15.499   1.090   0.156 -0.0217  0.1948  0.2120
18821W        W34955  14.083   5.008   2.797 -0.2536 -0.0792 -0.0436
18822W        W34956  10.705   9.395   0.676  0.0646  0.3696  0.0185
18823W        W34957  12.727  19.237  11.384  0.1081 -0.1402 -0.1728
18824W        W34958   9.639   3.876   2.652 -0.2432 -0.1866  0.0479
18825W        W34959   9.761   8.330   3.172  0.2854  0.0344  0.2366
18826W        W34960   5.357   7.869   1.264  0.0901 -0.3368 -0.3318
18827W        W34961   5.854  17.298  12.046  0.1866  0.5687 -0.0725
18828W        W34962   3.961   2.096  13.784 -0.3945  0.2106 -0.3883
18829W        W34963   5.953   7.580  14.455  0.0991 -0.2981  0.0769
18830W        W34964   4.189   3.272   2.046 -0.1460 -0.2860  0.0760
18831W        W34965  19.171   7.198   0.721  0.0432  0.0731  0.1287
18832W        W34966   0.976   8.851   0.097 -0.0964 -0.2505  0.0365
18833W        W34967  14.611  17.053  12.488 -0.1426 -0.0716  0.1740
18834W        W34968  11.013   5.440  10.270 -0.0132 -0.1061 -0.1844
18835W        W34969   8.407  17.947   1.495 -0.1315  0.1711  0.0486
18836W        W34970   6.633   5.584   3.115 -0.0745  0.3141  0.0067
18837W        W34971   0.785   5.603  10.215 -0.2242  0.2297  0.2043
18838W        W34972  15.682  13.163  12.212 -0.2892 -0.0591  0.1895
18839W        W34973   8.116   8.985  14.589 -0.3383 -0.1356  0.2447
18840W        W34974   8.440  12.872  12.593  0.2198 -0.0583 -0.1112
18841W        W34975   2.108   3.997   0.481 -0.0509  0.0267 -0.1158
18842W        W34976   5.986  18.442  14.583 -0.0960  0.1017  0.2374
18843W        W34977  15.628  15.727   9.007  0.0327  0.3036 -0.0764
18844W        W34978  15.693   3.103   1.849 -0.1269 -0.0154 -0.2757
18845W        W34979   9.240   7.771   2.727 -0.1637 -0.1146 -0.0141
18846W        W34980   6.934  12.413   0.789  0.0157 -0.0785 -0.0313
18847W        W34981  17.802  16.845  10.779 -0.3761 -0.1833  0.3418
18848W        W34982  14.741   5.491   4.599 -0.2143  0.0620  0.0461
18849W        W34983  19.033   1.744   1.293 -0.1909  0.0760 -0.1882
18850W        W34984   2.277   2.296  14.861  0.0520  0.1619  0.2048
18851W        W34985  19.022   6.007   4.487  0.1446  0.0898 -0.2228
18852W        W34986   8.477   2.283   2.717  0.3804  0.0420 -0.1111
18853W        W34987   2.518   0.750  11.248  0.0407 -0.1319  0.3066
18854W        W34988  11.712  13.422   3.023 -0.2138  0.0280  0.2153
18855W        W34989   5.081   9.844   2.667 -0.2055  0.2740 -0.0566
18856W        W34990  16.813  13.641   3.007  0.0554  0.1424  0.1990
18857W        W34991  19.061   4.973   0.199  0.2852  0.0389 -0.0055
18858W        W34992   3.778  11.330   3.259  0.0614 -0.0146  0.3764
18859W        W34993  17.654  11.931  10.868  0.0412  0.2889  0.0117
18860W        W34994   1.625   0.525  11.586  0.3635  0.3287  0.2306
18861W        W34995  10.055  11.859  15.008  0.3685  0.2789  0.1047
18862W        W34996   3.086  15.706   1.618  0.0088  0.1405  0.3011
18863W        W34997   2.177  16.290  12.016  0.2619  0.0234  0.0845
18864W        W34998  11.497   0.763  12.694  0.2776 -0.0005  0.1308
18865W        W34999  17.363  10.099   3.844 -0.1208  0.0133 -0.4079
18866W        W35000   2.441   2.765   2.231  0.1213  0.0716  0.3221
18867W        W35001   5.915   7.396  12.354  0.4094  0.1112  0.4559
18868W        W35002  11.519   2.469   1.051  0.0189  0.2401 -0.2977
18869W        W35003  13.589  14.780   9.741 -0.0146 -0.2235 -0.0611
18870W        W35004  10.383   0.307   2.782 -0.0905 -0.0327 -0.0151
18871W        W35005   6.702  14.026   1.342  0.0637 -0.0481  0.0737
18872W        W35006  10.824  13.507   1.818 -0.0423  0.2840 -0.2214
18873W        W35007  10.521   6.529   3.222 -0.0909  0.1637 -0.0787
18874W        W35008  11.551  11.881  11.540 -0.0233  0.3425  0.0755
18875W        W35009  15.218  19.155   2.153  0.2655  0.0545 -0.0465
18876W        W35010   2.066   7.594   2.825 -0.0896  0.1335  0.0364
18877W        W35011   7.632   8.424   0.885  0.3276 -0.2821  0.2950
18878W        W35012  12.776   3.840  14.600  0.2555 -0.2008  0.1292
18879W        W35013  15.589   0.264  12.218 -0.1293  0.2232  0.3049
18880W        W35014  18.741   8.773   2.090 -0.1211 -0.2722  0.2904
18881W        W35015   9.678  18.980   5.089 -0.0463 -0.2053 -0.2710
18882W        W35016  17.249   4.428   0.967  0.4288  0.1550  0.0993
18883W        W35017  19.045  10.507  11.253  0.1354 -0.1506 -0.1409
18884W        W35018  16.187   8.269  13.135  0.1119  0.1805  0.4904
18885W        W35019   3.025  16.141  11.594  0.1401 -0.1435 -0.1054
18886W        W35020  13.345   9.286   4.613  0.2658 -0.2946 -0.0935
18887W        W35021   1.457  15.912   1.134 -0.0219 -0.4129 -0.0848
18888W        W35022  17.000  14.587  10.837  0.1914 -0.0064  0.0728
18889W        W35023   5.306   3.516   0.832 -0.1830 -0.1244 -0.6009
18890W        W35024   6.108   6.355  10.343  0.0746 -0.0945 -0.3495
18891W        W35025   6.675   9.553   1.848 -0.1872 -0.0264 -0.2123
18892W        W35026   6.148  13.930   4.581  0.2493 -0.0553  0.0757
18893W        W35027  14.137  10.268   1.686 -0.2339 -0.1334 -0.0888
18894W        W35028   2.333   2.609   3.249  0.0686  0.1509 -0.4770
18895W        W35029   8.973  14.017   0.389  0.0919  0.2318 -0.0417
18896W        W35030   3.723  10.870  11.680  0.0110  0.0768  0.0570
18897W        W35031   3.455   4.933   1.391 -0.0081 -0.0099 -0.0188
18898W        W35032   5.954   6.525  13.196 -0.3178 -0.0776  0.1510
18899W        W35033  15.304  17.725   1.225 -0.1551  0.0022  0.2174
18900W        W35034   5.799  15.959  11.271 -0.2124 -0.2139 -0.2025
18901W        W35035   7.264   5.837  13.262 -0.0894 -0.6472  0.0885
18902W        W35036   4.174   3.604  13.392 -0.1125 -0.1477  0.0785
18903W        W35037  19.199  17.992  12.796 -0.0315 -0.0313  0.1451
18904W        W35038   8.409   6.907  14.715  0.1955  0.2871  0.1845
18905W        W35039  11.601   1.952  13.936  0.2698 -0.0816  0.3420
18906W        W35040   5.392  14.503   1.347  0.4122  0.2517  0.3203
18907W        W35041  15.802  16.595   5.236  0.2258 -0.2138 -0.2972
18908W        W35042   5.556  10.068   3.448  0.0953 -0.2242 -0.1343
18909W        W35043   6.119  13.471  12.276 -0.0133 -0.0701  0.0013
18910W        W35044   4.490   9.410  10.853  0.2604 -0.2227 -0.0115
18911W        W35045   3.208  11.087   4.422 -0.1845 -0.1103  0.0554
18912W        W35046   8.811  14.079  12.960  0.1738  0.0592 -0.1192
18913W        W35047  16.438   1.882   3.498 -0.3844 -0.0104  0.1712
18914W        W35048  17.768   6.590   1.763  0.1156 -0.0444 -0.1733
18915W        W35049   7.383   4.330   2.665  0.0373 -0.0029  0.1454
18916W        W35050  15.269  14.650   5.324  0.1755  0.0726 -0.0521
18917W        W35051   9.273  13.091  10.729 -0.0563 -0.0011 -0.0593
18918W        W35052  11.461   9.405   2.812 -0.0921 -0.1658  0.1216
18919W        W35053  15.051   6.173  14.038 -0.0426  0.1580 -0.1677
18920W        W35054   7.985   5.783   4.148  0.0551 -0.2172 -0.0645
18921W        W35055  12.426  17.753   4.545 -0.1553 -0.0761  0.3717
18922W        W35056  18.967   1.300   0.967  0.1608 -0.1694 -0.2277
18923W        W35057   5.756  11.989  12.169  0.0928  0.1400  0.3121
18924W        W35058   4.967  11.395   0.858  0.1275  0.4211 -0.0311
18925W        W35059   6.066  19.174   5.423  0.0342 -0.2708 -0.0148
18926W        W35060  16.883  16.008  14.769 -0.2245  0.0606  0.2497
18927W        W35061  18.620   3.662  12.645  0.1576  0.3208  0.1083
18928W        W35062  17.431   3.810  14.994 -0.3349  0.0114  0.1731
18929W        W35063  10.198  10.473  10.351 -0.2902  0.1927  0.2663
18930W        W35064  11.761  17.566   2.493  0.2808  0.0146 -0.2759
18931W        W35065  12.473   9.102  14.205  0.0937 -0.3264  0.1355
18932W        W35066   6.237  10.922  14.885 -0.3663 -0.1400 -0.4250
18933W        W35067  10.135  16.795   4.703 -0.1238 -0.4202  0.0118
18934W        W35068   7.529  14.398  13.926 -0.3201 -0.0877 -0.2084
18935W        W35069   4.295   2.129  13.438 -0.0275 -0.0221 -0.1399
18936W        W35070   0.899   4.112  13.405  0.1813 -0.0197  0.0616
18937W        W35071  10.173   7.677   0.870 -0.0372 -0.1595  0.0122
18938W        W35072  16.558   6.124   3.487  0.1400  0.0680 -0.0499
18939W        W35073   7.974   9.025   1.626  0.1872 -0.0218 -0.0035
18940W        W35074  13.778  14.559  10.715 -0.2609 -0.0550  0.3511
18941W        W35075  12.178  13.508  14.906 -0.0659 -0.0918  0.0359
18942W        W35076  16.125  11.902  11.304 -0.2356 -0.1317 -0.0245
18943W        W35077   0.623  12.982   3.202 -0.2387  0.1740 -0.1131
18944W        W35078  11.609   0.870   3.311  0.0117 -0.0739  0.2910
18945W        W35079   1.762   3.137   5.333 -0.1563 -0.1209 -0.2058
18946W        W35080  15.058  16.425   2.648  0.1918  0.0854  0.1312
18947W        W35081  12.474  11.588  13.821  0.0896  0.2183  0.3020
18948W        W35082   1.106   5.428   1.604 -0.1139 -0.0967 -0.2978
18949W        W35083  17.117  10.780   1.862  0.1237 -0.0674  0.0456
18950W        W35084  14.992  18.518  11.125  0.0411  0.0818  0.1790
18951W        W35085  12.903   0.416  10.444  0.2763 -0.2353 -0.0317
18952W        W35086  11.013   3.619  11.210  0.2706  0.2257  0.3061
18953W        W35087   4.778   8.370  11.118 -0.0360 -0.0849 -0.5905
18954W        W35088   2.501  18.951   2.966 -0.0570  0.5555  0.1627
18955W        W35089   9.304  10.888   0.457  0.1706  0.3150 -0.2040
18956W        W35090  14.102  11.181  14.254  0.1920 -0.0045 -0.2020
18957W        W35091  13.517   5.950   5.511  0.1654 -0.3314 -0.0818
18958W        W35092  16.864  16.689   2.583  0.0360  0.2360  0.1525
18959W        W35093  14.479   3.788  10.643 -0.0157 -0.0469  0.1960
18960W        W35094   0.590   0.949   5.029 -0.1682 -0.1572  0.1359
18961W        W35095  17.613   7.203  11.927 -0.0992 -0.2024 -0.0759
18962W        W35096  12.898  19.224  13.195  0.1627 -0.2627 -0.1735
18963W        W35097   8.156  13.134   0.407  0.2230  0.0547  0.1029
18964W        W35098  13.060   9.247  12.201 -0.1418  0.2262 -0.3105
18965W        W35099  10.434  15.510  10.829  0.0399  0.0104 -0.3279
18966W        W35100  18.380  10.004  13.480 -0.3332  0.1964 -0.0897
18967W        W35101   7.430  16.558   1.767 -0.1284 -0.2564 -0.1068
18968W        W35102   2.684  15.756  13.045 -0.6814  0.2827 -0.2011
18969W        W35103   6.222   1.092   2.094  0.1131 -0.3542 -0.0664
18970W        W35104   4.503   2.376   9.974 -0.1105  0.1548  0.0172
18971W        W35105   1.473  10.887  12.525 -0.0184  0.2133  0.0597
18972W        W35106   7.341  13.398   5.505  0.0883  0.3367  0.1847
18973W        W35107   7.237   8.164   3.276  0.0982 -0.0229 -0.0965
18974W        W35108  14.179   4.172   2.653  0.0019  0.2537  0.0361
18975W        W35109   4.656   2.238  11.656  0.1957  0.2250  0.0763
18976W        W35110  18.718  11.835   9.331 -0.0879 -0.3778 -0.1973
18977W        W35111   2.658  10.023   9.894  0.1556  0.1058  0.2646
18978W        W35112  11.641   6.419   0.119 -0.1505 -0.2237 -0.1981
18979W        W35113  13.146   4.920   0.278  0.1356 -0.3407  0.1664
18980W        W35114  17.576  17.056  14.244 -0.1611  0.1311 -0.0611
18981W        W35115  18.320  19.048   2.334  0.1514  0.0185 -0.1892
18982W        W35116   5.690   2.454   3.821 -0.0153 -0.1885  0.0606
18983W        W35117  11.545   6.597   4.335  0.3078  0.1543  0.3856
18984W        W35118   6.595  17.377   5.141 -0.1123 -0.1238 -0.2232
18985W        W35119  12.089  11.757  14.352  0.0281 -0.3411 -0.0045
18986W        W35120  18.294   8.631   0.189  0.2445  0.1790 -0.2049
18987W        W35121  11.061   6.164  11.309  0.1317  0.2032 -0.1368
18988W        W35122  15.060   5.823   4.291 -0.0211 -0.2972 -0.1281
18989W        W35123  15.186   5.613   2.135 -0.1876 -0.3369 -0.0480
18990W        W35124   2.303   8.336  14.709  0.0505 -0.1795 -0.1016
18991W        W35125   6.301   6.087   0.405 -0.1565  0.1709 -0.0113
18992W        W35126  12.239   3.053  13.543  0.1233  0.2108  0.0603
18993W        W35127   4.515  11.162  11.377 -0.1981 -0.2569  0.1418
18994W        W35128   4.796   6.338  12.828  0.0004 -0.2047  0.1601
18995W        W35129   9.663  17.599   4.516 -0.1350  0.0720 -0.1990
18996W        W35130  12.333  11.282   9.557 -0.0220  0.0033  0.0318
18997W        W35131   3.506  13.915  12.265  0.0917 -0.2046  0.2868
18998W        W35132   8.896   7.679   2.241  0.1055 -0.0753 -0.0635
18999W        W35133  14.693   6.176  10.224  0.0427 -0.1981 -0.0438
19000W        W35134   2.625   9.573  11.212  0.2185  0.4674 -0.0341
19001W        W35135  12.001   6.852   0.266  0.0756  0.0194  0.1765
19002W        W35136  14.588  11.816   5.273  0.3265  0.2797  0.2404
19003W        W35137   6.329   1.028  12.078 -0.3346 -0.4229  0.1414
19004W        W35138   8.662  18.688  14.746  0.2382  0.1344 -0.0108
19005W        W35139   0.146   1.809  10.535 -0.0892 -0.3691 -0.3686
19006W        W35140  11.257   6.112   4.811 -0.0537 -0.0657  0.1730
19007W        W35141  19.212   5.619   4.712 -0.0511 -0.0362 -0.0230
19008W        W35142  16.270   2.555   0.178 -0.1624 -0.1235 -0.1299
19009W        W35143  16.346   9.337   0.736 -0.2611 -0.0529  0.0079
19010W        W35144   3.968  19.307  10.329 -0.0429  0.0497  0.3686
19011W        W35145  16.207   2.453   2.022 -0.0092  0.0831 -0.2010
19012W        W35146  14.291   3.576   1.352  0.0244 -0.3599 -0.3617
19013W        W35147   8.549   2.550  11.440  0.2160  0.2091  0.0801
19014W        W35148  14.829  17.113  12.950  0.0653  0.0445  0.1163
19015W        W35149  17.874   6.369  10.513  0.1463  0.0777  0.1835
19016W        W35150   8.236   2.483   3.743 -0.1166 -0.2712 -0.0791
19017W        W35151  11.722  19.245   2.814  0.1435 -0.1186 -0.2419
19018W        W35152  10.115  14.754   4.062 -0.0567  0.1684 -0.1583
19019W        W35153   1.887  15.457  13.491  0.1395  0.4340 -0.1187
19020W        W35154   5.984   3.656  11.499 -0.1884 -0.2095 -0.1943
19021W        W35155   9.129  17.434  11.814 -0.0865 -0.1278 -0.4331
19022W        W35156  16.115  13.824  10.690  0.0095  0.1717  0.1326
19023W        W35157  14.916  10.000  11.215  0.1802 -0.0169 -0.0219
19024W        W35158   0.047  13.657  11.598  0.1044 -0.0222  0.0670
19025W        W35159  12.098   4.704  11.447 -0.1646 -0.2501  0.0782
19026W        W35160   6.312  18.984  14.422 -0.2315  0.1958  0.2658
19027W        W35161  12.462   2.512   3.234 -0.0346  0.0619  0.3157
19028W        W35162   7.369   2.651  12.146 -0.1465 -0.4706  0.1559
19029W        W35163  16.189   4.368  14.624 -0.1747  0.0386  0.1875
19030W        W35164  18.661   3.984  10.459 -0.3084  0.1650 -0.1295
19031W        W35165  12.289   8.761  14.441 -0.1259  0.6480 -0.1249
19032W        W35166   7.448  17.549  14.283 -0.0851  0.0269  0.0753
19033W        W35167   3.850  13.864   3.469 -0.1717 -0.1746  0.0089
19034W        W35168  17.892   0.326  10.385 -0.0552  0.2155 -0.1743
19035W        W35169  18.596  10.265   4.942 -0.1302 -0.0165  0.1812
19036W        W35170   1.738  17.681   1.754  0.0014  0.0188 -0.0510
19037W        W35171   3.422   1.293   3.538 -0.1688 -0.1502 -0.0788
19038W        W35172  18.522  10.977   1.840 -0.1733  0.0720  0.1118
19039W        W35173   5.193   2.315  11.550 -0.0347  0.4478 -0.2182
19040W        W35174  12.195   8.635   3.903  0.1169 -0.0500  0.0153
19041W        W35175  15.299   0.960   1.861  0.0102  0.0016 -0.0712
19042W        W35176   5.272   8.232  11.075  0.3602  0.3323  0.0029
19043W        W35177  14.761  15.641   3.950  0.1908  0.1313  0.1537
19044W        W35178   4.626   8.246  11.658  0.3318 -0.4445 -0.0182
19045W        W35179   3.928  18.818  14.750 -0.0534 -0.1355 -0.1308
19046W        W35180  11.223   3.903   0.575 -0.0043 -0.1645  0.2536
19047W        W35181   8.810   5.202   3.883 -0.1298  0.1092  0.1842
19048W        W35182   5.883   1.016   5.244  0.0341 -0.0401 -0.1698
19049W        W35183   0.518   8.664   4.277  0.1037  0.2745  0.1194
19050W        W35184  18.296  11.483   1.891 -0.0468  0.0520 -0.0523
19051W        W35185  11.341  11.617   4.062 -0.0307  0.1750  0.2142
19052W        W35186  15.552  18.852  10.699 -0.2192 -0.2185  0.0539
19053W        W35187   0.395  11.854  10.366 -0.5035 -0.1167  0.0536
19054W        W35188   9.700  11.447  11.707 -0.1260 -0.4014  0.0769
19055W        W35189   4.251   9.242  12.589  0.3745  0.3591 -0.2416
19056W        W35190  18.133  13.378   0.869  0.2246  0.0773 -0.1868
19057W        W35191   0.481  16.237  10.934 -0.0444 -0.3953 -0.6221
19058W        W35192  15.804  13.035  14.489 -0.0025 -0.1376  0.0761
19059W        W35193  17.437   7.466   0.283 -0.1078  0.0958  0.3081
19060W        W35194  10.052  10.701  14.282 -0.5965  0.1541  0.0874
19061W        W35195   5.910   5.955   1.318  0.1426  0.2147 -0.4672
19062W        W35196   5.740  10.413  12.913 -0.1705  0.1252  0.0872
19063W        W35197   6.829  12.179   3.020  0.1441 -0.0148 -0.3640
19064W        W35198  11.951   5.580  13.960 -0.3549 -0.0933 -0.0525
19065W        W35199   1.386  15.464   2.586 -0.2287 -0.0300  0.0225
19066W        W35200   6.538  11.484   0.509 -0.0973 -0.0527 -0.2131
19067W        W35201   4.500   6.688   5.331 -0.1162  0.1849  0.0390
19068W        W35202   8.083  12.797   5.058  0.1661 -0.1030  0.0724
19069W        W35203   7.998  16.751   4.451  0.2591  0.3417  0.0823
19070W        W35204  13.023  15.306   2.413 -0.4066  0.0580  0.1529
19071W        W35205  11.050   1.846   4.218  0.0051  0.0916 -0.0729
19072W        W35206   0.769   9.877   9.557 -0.0738 -0.0782 -0.0513
19073W        W35207   3.592   6.200   3.625  0.0435  0.0159 -0.1082
19074W        W35208   0.213   3.648   4.900 -0.1734  0.0069 -0.1923
19075W        W35209   1.997  11.280  13.481  0.2943  0.0084 -0.3619
19076W        W35210   4.671   9.792  13.507 -0.2124 -0.1668 -0.1822
19077W        W35211  11.166  18.405   3.897 -0.3232 -0.3422 -0.1466
19078W        W35212  11.577  16.108   0.046  0.0183 -0.1105  0.0242
19079W        W35213   4.353   7.877   2.849  0.0967 -0.1517  0.4593
19080W        W35214  11.361  15.473   4.410 -0.1245  0.0566 -0.2615
19081W        W35215   4.275   0.507   3.241 -0.2188 -0.1182  0.0923
19082W        W35216   8.375   3.673   5.423 -0.1471 -0.0279  0.0396
19083W        W35217  16.544   9.611  12.317 -0.1146  0.2406  0.1574
19084W        W35218  11.647   4.659   1.079  0.0731 -0.0862  0.1224
19085W        W35219   8.285  15.312   3.936  0.0910 -0.3065  0.1007
19086W        W35220   1.583  10.056   0.311  0.2958 -0.4148 -0.2668
19087W        W35221   7.718  13.726   0.174 -0.0166  0.0906 -0.3158
19088W        W35222   0.859  18.384  14.414 -0.0425 -0.1891  0.2325
19089W        W35223  10.368  13.606   2.099 -0.2376  0.0980  0.0641
19090W        W35224  13.553   5.902  14.786  0.0058 -0.1745 -0.0612
19091W        W35225   8.412  11.262   1.694  0.3979 -0.2540  0.1740
19092W        W35226   8.530  12.420   3.049 -0.0108  0.0995  0.0772
19093W        W35227   7.456  14.645   3.728  0.0952  0.0011 -0.3026
19094W        W35228   0.502  10.507  11.040 -0.0263 -0.2177 -0.1832
19095W        W35229  15.869   7.209  14.939 -0.1344 -0.1722  0.2141
19096W        W35230  13.691  11.432   0.149 -0.1012 -0.3496  0.4496
19097W        W35231   9.248   1.953  14.460 -0.1598  0.1669 -0.0521
19098W        W35232  14.456  18.056   0.235  0.0456 -0.0384  0.1572
19099W        W35233   6.240   9.563  10.345 -0.2528 -0.0408 -0.0529
19100W        W35234  19.329  18.487  14.892  0.0035 -0.1933 -0.0317
19101W        W35235   5.185  12.858   3.470 -0.2249  0.0597 -0.0564
19102W        W35236   8.004   2.150   1.092  0.0376  0.0570  0.2514
19103W        W35237   9.817   4.679   4.433 -0.1279  0.0203  0.1168
19104W        W35238  14.486  15.375  13.743  0.0642 -0.0807 -0.2063
19105W        W35239   3.287  15.543   3.061  0.1090 -0.1208  0.0740
19106W        W35240   1.773   9.006   2.128  0.1554  0.1160 -0.1508
19107W        W35241  13.041  15.407  10.268 -0.1595  0.2532  0.2893
19108W        W35242   9.559  17.116  11.071 -0.0719  0.0370 -0.0502
19109W        W35243   2.613  13.741   4.841  0.0949 -0.1781 -0.0940
19110W        W35244   1.465   9.802  11.346 -0.1187 -0.1150  0.0118
19111W        W35245   4.514  14.747  11.622 -0.4119 -0.2498  0.2290
19112W        W35246   2.624  10.502  13.473 -0.3511  0.0213 -0.0870
19113W        W35247   4.578   1.541   2.948  0.1734 -0.2220  0.1309
19114W        W35248  18.439  15.743   9.190  0.2070  0.0529  0.0941
19115W        W35249   6.945  10.548  13.713  0.2479  0.0370 -0.0095
19116W        W35250  19.012   6.662  13.161  0.2778  0.2351  0.2287
19117W        W35251   5.377   2.858   2.128  0.2359 -0.0559  0.1073
19118W        W35252  13.986  11.008  13.769 -0.0785 -0.2080  0.1238
19119W        W35253   8.515  11.016   2.728  0.0281 -0.2246  0.3605
19120W        W35254  14.657   5.653   2.260 -0.0100  0.1007 -0.2281
19121W        W35255   0.367  14.295  14.040  0.2211  0.0928 -0.2657
19122W        W35256  19.180  10.961  13.702 -0.2437  0.0271  0.1809
19123W        W35257  16.150   1.770  14.434 -0.1914 -0.1588 -0.0986
19124W        W35258   7.157   4.347   3.736  0.0659 -0.1459 -0.0588
19125W        W35259   9.853  18.880   3.699 -0.0118 -0.0096  0.0344
19126W        W35260  10.152   3.393  11.699  0.4100  0.2882  0.0412
19127W        W35261  16.846   1.941  12.171  0.5573  0.2943  0.0317
19128W        W35262   0.691   6.561   1.511  0.2193 -0.1250 -0.0660
19129W        W35263  18.098   1.123  12.678  0.1737  0.0881 -0.3888
19130W        W35264  14.654   5.491  12.706 -0.0103  0.1295  0.2071
19131W        W35265   9.157   5.544  13.927  0.0026  0.2978  0.1607
19132W        W35266  17.035  12.077   5.077 -0.1597 -0.1177  0.1462
19133W        W35267  18.604   4.411  11.196  0.0742 -0.1567  0.3225
19134W        W35268   7.153   5.205   4.988  0.2393 -0.2584  0.0147
19135W        W35269  12.981   0.830   2.323  0.1488  0.1709  0.1522
19136W        W35270  17.718   9.990  13.491  0.0635  0.0034  0.0287
19137W        W35271  16.049   3.893   1.508 -0.0479  0.1500  0.0885
19138W        W35272  10.113   1.487   1.124 -0.1437 -0.1695  0.1414
19139W        W35273  16.121  13.744  12.758  0.2689 -0.1016 -0.1371
19140W        W35274   0.933  12.465   3.054  0.0993 -0.2964 -0.2097
19141W        W35275  10.999  18.402  13.952  0.2276 -0.2976 -0.2410
19142W        W35276   2.956  13.000   5.316 -0.1408 -0.0453  0.2202
19143W        W35277  10.399  17.716   9.919  0.5209  0.0140  0.1919
19144W        W35278   6.473   8.353   3.393  0.0583 -0.0667  0.2364
19145W        W35279   2.347  12.995   3.170 -0.1505  0.0559 -0.1817
19146W        W35280   1.224  14.834   3.865 -0.1943 -0.1782  0.0695
19147W        W35281  11.280   5.879  11.691  0.0697  0.1919  0.0914
19148W        W35282   1.251  15.265   1.716  0.0407 -0.3235  0.0788
19149W        W35283   5.575  17.210   1.933  0.1713 -0.1530 -0.2189
19150W        W35284  10.634  13.526   2.553 -0.1943 -0.0888 -0.0203
19151W        W35285   2.034   9.118   4.774 -0.1293  0.0407 -0.3343
19152W        W35286  12.412   7.022  14.048  0.0291 -0.1400  0.2524
19153W        W35287   1.705  16.076   4.818  0.1805 -0.0178 -0.4321
19154W        W35288   8.249  17.843  14.008 -0.1389  0.0634 -0.0638
19155W        W35289  15.277  11.273   1.253  0.5314  0.0644 -0.0914
19156W        W35290   6.261   3.323  11.249 -0.1180  0.0567 -0.0826
19157W        W35291  11.697   6.058  14.791 -0.0674 -0.2588  0.3812
19158W        W35292  13.865  15.228  14.645 -0.2208 -0.2183  0.0073
19159W        W35293  18.215  18.018  10.256  0.2327 -0.3336  0.1476
19160W        W35294  18.688  17.828   4.754 -0.3357  0.0517 -0.0812
19161W        W35295   2.752   7.196  11.182  0.0485 -0.0286  0.3336
19162W        W35296  13.521  15.568  14.833 -0.1789 -0.2639  0.1076
19163W        W35297  11.071  15.634   4.975 -0.0438 -0.1348  0.3113
19164W        W35298  17.784   3.563  13.182 -0.1448 -0.1669  0.1813
19165W        W35299  13.217  10.934  12.361 -0.0987  0.0057  0.0593
19166W        W35300  15.168  17.843   3.696  0.1771 -0.2091  0.2472
19167W        W35301  11.370   3.717   3.522 -0.3104 -0.1298  0.2933
19168W        W35302  17.734  16.638  13.916 -0.0043 -0.4165  0.1402
19169W        W35303  18.759   7.850   2.341  0.1697 -0.1096  0.3113
19170W        W35304   9.875  12.574  11.524  0.2163 -0.1103 -0.2796
19171W        W35305   8.445   4.309  14.122  0.0972 -0.1454 -0.1439
19172W        W35306   6.251   6.717   1.072  0.1812  0.1017 -0.1006
19173W        W35307  19.211  10.449  13.607 -0.0564  0.2350 -0.0735
19174W        W35308   6.372  11.043  11.257  0.0812 -0.2352  0.1443
19175W        W35309   1.447   1.806  11.808 -0.0460  0.0629  0.1532
19176W        W35310  19.168  15.232  14.354 -0.2004 -0.1567  0.1325
19177W        W35311  10.651  11.457  11.489  0.0309 -0.0030  0.2107
19178W        W35312  17.252  12.944   2.838  0.2126 -0.1462  0.0308
19179W        W35313  10.989  19.267   2.109 -0.0678  0.1365 -0.3259
19180W        W35314   4.505  17.333  11.080  0.2551 -0.0700  0.0082
19181W        W35315   2.582  13.050   0.647  0.3990 -0.1927  0.0444
19182W        W35316   9.841  13.439  11.850 -0.1206 -0.0690  0.2214
19183W        W35317  10.349   3.991   2.846  0.3620  0.0715 -0.3095
19184W        W35318   6.689   7.392   4.109 -0.1652  0.3851 -0.0964
19185W        W35319   0.735   2.381   1.203 -0.0258 -0.3298 -0.1250
19186W        W35320   5.541   4.580  11.426 -0.0521 -0.3299  0.1736
19187W        W35321  13.550   0.377   5.012  0.0638  0.0060 -0.1909
19188W        W35322  14.917   9.627   0.273 -0.0706 -0.1763  0.0109
19189W        W35323   0.037   9.391   2.255  0.0992  0.2782  0.0328
19190W        W35324   8.637   1.431   4.633  0.3226  0.2606 -0.2389
19191W        W35325  12.012  13.987   1.188 -0.2991 -0.1134 -0.0535
19192W        W35326   1.999  14.477  10.307 -0.0161 -0.1199 -0.2868
19193W        W35327  13.460   3.889   0.253 -0.3842 -0.2142 -0.4048
19194W        W35328   7.767   7.437   2.260  0.0688 -0.1056 -0.2853
19195W        W35329   7.417  15.856  14.792  0.0374 -0.0768 -0.0522
19196W        W35330   3.455   7.973   3.950 -0.1813  0.2562  0.2019
19197W        W35331   0.241   2.227  11.216  0.0401 -0.0544  0.0214
19198W        W35332   6.670   1.887   1.452 -0.0216 -0.1365 -0.4579
19199W        W35333  15.788   4.804   3.172 -0.0479 -0.3431 -0.2596
19200W        W35334   4.016  18.657   4.420  0.0296  0.1979 -0.0018
19201W        W35335  12.354  10.793   1.403 -0.1589 -0.1158  0.0778
19202W        W35336  10.652   6.274   1.041  0.1571 -0.2149 -0.1611
19203W        W35337   1.789  12.217  12.518 -0.3074 -0.2540 -0.2107
19204W        W35338  10.117   6.043  10.952  0.0367  0.1241 -0.0681
19205W        W35339  13.824   1.533  11.348  0.3173 -0.1821 -0.4680
19206W        W35340  16.428   4.690   0.566 -0.0559 -0.6502  0.0763
19207W        W35341   4.800   0.546  11.373  0.4646  0.0898  0.1931
19208W        W35342   2.426   2.805  10.428  0.0210 -0.0454 -0.1298
19209W        W35343   9.336   2.830  14.627  0.2025  0.0108  0.2442
19210W        W35344   3.569  13.988  11.776 -0.0562  0.1115  0.1457
19211W        W35345   2.725  18.091   2.261  0.2354  0.0754  0.2282
19212W        W35346   5.336  13.034  11.324  0.0876 -0.2112  0.0193
19213W        W35347   3.201  10.582  13.184 -0.3171  0.0568 -0.0615
19214W        W35348   6.007  17.214   2.775  0.1104 -0.2424  0.1028
19215W        W35349   1.238  14.819  13.827  0.1182  0.4586  0.0118
19216W        W35350   3.264   1.664   2.099  0.0465  0.0263 -0.2004
19217W        W35351   1.652  10.036   4.485  0.1599  0.0402  0.0966
19218W        W35352  18.446   5.926   4.595 -0.2269 -0.0724 -0.2323
19219W        W35353   1.861   2.728   2.922  0.0509 -0.0124 -0.3331
19220W        W35354  18.627   2.104  14.271 -0.1232 -0.0718 -0.1563
19221W        W35355  10.415   6.775  11.772  0.1978  0.0581 -0.1457
19222W        W35356  10.574   8.541   3.542  0.3481  0.0831  0.0880
19223W        W35357   7.554   8.498   1.812 -0.0280 -0.1424  0.1528
19224W        W35358   6.152   9.429   1.558  0.2351  0.1633 -0.2324
19225W        W35359   9.819   6.027   2.022  0.0684 -0.2084 -0.0402
19226W        W35360   8.545   0.160   0.298  0.0950  0.0200 -0.2900
19227W        W35361   5.764   2.720   1.777  0.0156  0.0479 -0.2198
19228W        W35362  13.929   0.811   0.926  0.0749  0.2173  0.1813
19229W        W35363   6.588  18.627  13.599  0.3570  0.0038  0.0105
19230W        W35364   1.260  18.125  13.148 -0.0580  0.2834 -0.2113
19231W        W35365  11.940   7.338  13.810  0.0101 -0.2150 -0.3164
19232W        W35366   5.479   3.813  10.869  0.0435  0.2998 -0.0311
19233W        W35367   3.860   5.193  14.340  0.1954 -0.2676  0.2167
19234W        W35368   5.304   9.724   2.186  0.1418 -0.1257  0.2694
19235W        W35369   4.842  13.165  13.667 -0.1530  0.0730  0.0704
19236W        W35370  13.687   8.148   4.865  0.0234 -0.0679  0.1201
19237W        W35371  16.089  18.394   1.756 -0.1518  0.1620 -0.1002
19238W        W35372   1.318   7.168   3.098 -0.2185 -0.0012 -0.0084
19239W        W35373   5.214   7.883  12.385 -0.1103  0.3118 -0.0204
19240W        W35374  13.789  15.366  12.793 -0.1525 -0.3564 -0.1530
19241W        W35375  18.085  11.918  13.074 -0.1274 -0.2172  0.0757
19242W        W35376   4.880   6.589   0.341  0.0976 -0.2506  0.0093
19243W        W35377   1.103  13.775   0.550  0.2526 -0.1374  0.0610
19244W        W35378  12.487  14.733   3.573 -0.0379 -0.0587 -0.0595
19245W        W35379   4.672  10.932  11.868 -0.0719  0.0882  0.2640
19246W        W35380   7.550  16.271  14.101  0.2247  0.1787 -0.1473
19247W        W35381   3.465  15.164   4.727  0.1320 -0.0828 -0.0189
19248W        W35382   3.679   0.421  12.657 -0.1393 -0.1470 -0.2450
19249W        W35383   4.640  14.998   0.496  0.2958 -0.1585  0.0432
19250W        W35384  15.670  13.442  14.930 -0.1250  0.2926 -0.0827
19251W        W35385   6.864  17.867   4.335  0.2455 -0.1794  0.1293
19252W        W35386   3.819   7.085  11.287 -0.4814 -0.3140  0.1201
19253W        W35387  12.985   4.963  11.314  0.1930 -0.2200  0.0808
19254W        W35388   3.112  17.992   3.620  0.2574 -0.1721  0.1014
19255W        W35389   3.993  15.756   0.192  0.2556  0.1318  0.0730
19256W        W35390  18.183   5.832  10.702  0.0825  0.2890 -0.0207
19257W        W35391  18.080   1.425  13.610 -0.1372  0.1428  0.1530
19258W        W35392  14.482   8.073  14.042  0.2230 -0.1113 -0.5226
19259W        W35393  14.430   0.884   9.948 -0.0239 -0.4183  0.0530
19260W        W35394  17.989   8.434   3.270 -0.0705 -0.2245  0.4673
19261W        W35395  15.643  10.433  10.673  0.0836  0.2703  0.4326
19262W        W35396  13.139  12.991  11.791 -0.0297  0.3192  0.4442
19263W        W35397  18.945   5.073   3.763 -0.1132 -0.1678  0.1317
19264W        W35398  16.701  13.964  11.418 -0.0828 -0.1983 -0.0312
19265W        W35399   0.233   0.589   3.832  0.1939  0.0666  0.2228
19266W        W35400  11.805   5.078   0.845 -0.2548 -0.1537  0.1210
19267W        W35401  12.631   4.187   4.959  0.3042  0.1409 -0.1006
19268W        W35402  13.756  14.823   3.148 -0.1319  0.0146 -0.2161
19269W        W35403   4.391   5.684   3.232 -0.3152 -0.0482 -0.1096
19270W        W35404   9.071  16.871   2.299 -0.1949  0.0064  0.0513
19271W        W35405   6.176   1.742   4.626 -0.4519 -0.3796 -0.1582
19272W        W35406  16.777   3.688  12.533 -0.0275  0.0816 -0.2248
19273W        W35407  11.303   4.125   3.978  0.0654 -0.2340 -0.0377
19274W        W35408   7.399   1.906   3.130 -0.1909  0.1185  0.1945
19275W        W35409   0.369  13.448  12.399  0.2869  0.0815 -0.0826
19276W        W35410   4.235   2.068   0.109 -0.1457 -0.0796 -0.2260
19277W        W35411   0.375   4.774   3.572  0.2409 -0.0715  0.0054
19278W        W35412  10.525   2.701   2.384 -0.1122 -0.2387  0.0106
19279W        W35413   5.151   2.968  11.057 -0.0730  0.0662 -0.2462
19280W        W35414  19.045  17.823  13.728  0.5105 -0.2375 -0.2272
19281W        W35415  18.367  16.603   0.860  0.1055  0.0647 -0.0144
19282W        W35416   3.034  14.327   4.471 -0.0199  0.1812  0.3024
19283W        W35417  15.095  16.028   2.883 -0.0300  0.1014 -0.2066
19284W        W35418  15.323   4.475   1.507 -0.2581 -0.1895 -0.2056
19285W        W35419  13.562  19.325  11.557 -0.2812  0.0859  0.2405
19286W        W35420   1.489  15.553  12.310  0.3873  0.0793 -0.1029
19287W        W35421   5.480   9.165  10.999 -0.1796 -0.1572  0.1794
19288W        W35422   7.526  10.180   1.943  0.1258  0.0940  0.3655
19289W        W35423  15.927   2.864   0.880  0.0199  0.1236 -0.0189
19290W        W35424   0.080   9.401  14.080  0.1571  0.3141 -0.0807
19291W        W35425  17.966  18.819  11.812  0.0733  0.3144 -0.1630
19292W        W35426   3.834  13.265  12.863 -0.2166  0.1519 -0.2615
19293W        W35427   1.650   0.333  13.569 -0.2195  0.1779  0.2188
19294W        W35428  10.122   9.996  14.637  0.2562  0.2704  0.4288
19295W        W35429  13.181   9.643  10.350  0.1333  0.0867 -0.2768
19296W        W35430   1.289   3.406   0.880 -0.0534  0.1507  0.3092
19297W        W35431   0.367   9.811  14.240  0.1491 -0.0900  0.0619
19298W        W35432   9.927  13.240   2.001 -0.0718 -0.1681 -0.2382
19299W        W35433  18.407   1.347   1.205 -0.1698  0.2238  0.0586
19300W        W35434   5.642  17.429  10.614  0.2659  0.2730 -0.2014
19301W        W35435   9.708   3.302   2.271  0.2954 -0.0889 -0.2725
19302W        W35436   4.283  11.691  11.275 -0.1382 -0.0247 -0.4513
19303W        W35437  10.243  15.181  11.689 -0.1181 -0.0265 -0.0273
19304W        W35438   4.461  10.698  14.146  0.3108  0.2042  0.1991
19305W        W35439   6.373  14.569   0.977 -0.1802 -0.3045 -0.1564
19306W        W35440   7.450  15.430   4.481  0.0348 -0.0981 -0.3687
19307W        W35441  18.508   9.272  12.900  0.0442  0.2641 -0.2745
19308W        W35442  17.664  18.890  13.819 -0.2735  0.2258 -0.1425
19309W        W35443  10.473  19.244  13.434  0.1632  0.1974 -0.1244
19310W        W35444  13.139   1.256   0.342  0.1006  0.4330 -0.3180
19311W        W35445  13.592   9.042   5.433  0.5081 -0.1891  0.0880
19312W        W35446  12.910  12.109  12.605 -0.2365 -0.1060  0.0647
19313W        W35447  11.378  17.064   4.234  0.0336  0.2264 -0.0900
19314W        W35448  13.641  15.663   4.453  0.1948 -0.0133 -0.1105
19315W        W35449   3.863  16.092  10.956  0.2047  0.1812 -0.3379
19316W        W35450  12.922  14.795  11.508  0.0228  0.1066  0.0153
19317W        W35451   8.617  11.807   3.854  0.0561 -0.0149 -0.2292
19318W        W35452   4.336  16.636   4.045 -0.3556 -0.1465 -0.0842
19319W        W35453   4.059   9.717  11.300  0.1727 -0.2420  0.0091
19320W        W35454   6.035  11.380  11.036  0.2952  0.0292  0.1679
19321W        W35455   6.090  16.868   5.671 -0.3968 -0.0054  0.0055
19322W        W35456  11.168   3.287   1.490  0.0899  0.1142  0.2790
19323W        W35457   7.968   7.864  11.303  0.1736  0.0658 -0.1995
19324W        W35458  16.047  14.946  14.080  0.2592 -0.2950 -0.1925
19325W        W35459  15.409   1.604  12.469 -0.0554 -0.0827  0.0267
19326W        W35460  10.763   3.555  14.830 -0.0304  0.2671 -0.0540
19327W        W35461  14.317  14.574   5.675  0.0548  0.2704 -0.0288
19328W        W35462  15.363  13.259   9.442  0.0040  0.0071  0.1440
19329W        W35463   0.091   2.202  11.692  0.3870 -0.1331 -0.1953
19330W        W35464  15.131  16.037  13.175 -0.1500 -0.0251 -0.1716
19331W        W35465   3.756   7.810   2.208  0.0406  0.1707 -0.1574
19332W        W35466  16.496  17.995   4.755  0.0291 -0.0436 -0.1558
19333W        W35467  13.793   6.530   0.445  0.1380 -0.2464  0.0605
19334W        W35468  14.588  15.584  10.725  0.2736 -0.1202  0.2662
19335W        W35469   4.801  11.102   2.125 -0.0212  0.0250  0.0748
19336W        W35470   1.720  12.439  11.161 -0.5039  0.1799 -0.3282
19337W        W35471   4.396   7.858   0.506  0.2010  0.0952 -0.2834
19338W        W35472   7.874   2.342   5.184 -0.3600  0.0248 -0.0498
19339W        W35473   5.057  16.281  11.969  0.5392  0.1637 -0.2813
19340W        W35474   6.262  13.069  10.266  0.1932 -0.0301  0.0418
19341W        W35475  13.941  13.577  10.395 -0.0450  0.0853 -0.0713
19342W        W35476   5.682  13.545   0.232 -0.0954 -0.2764 -0.1158
19343W        W35477   1.056  11.934   3.147 -0.0613  0.1614 -0.2751
19344W        W35478  17.195   4.977  14.046  0.4571  0.2289  0.2878
19345W        W35479  13.598   2.233  13.357  0.2788 -0.1675  0.1148
19346W        W35480   2.180  16.548   2.971 -0.0633 -0.1827  0.1435
19347W        W35481   0.452  17.520   2.966  0.0357  0.0699 -0.2117
19348W        W35482  18.513   4.146   0.854 -0.1760  0.0661  0.0590
19349W        W35483  12.228  15.812  11.990  0.2301 -0.1374  0.1564
19350W        W35484   6.172  16.027   0.437  0.0088  0.2449 -0.2731
19351W        W35485  15.154   1.969  14.032  0.2379  0.0007 -0.3073
19352W        W35486  18.725   6.275  13.968  0.0976 -0.0758 -0.2275
19353W        W35487  10.059   5.316  11.799 -0.2102 -0.0502 -0.1261
19354W        W35488   0.038  12.759   4.522 -0.0862  0.1047 -0.4227
19355W        W35489  11.636  18.474   3.741 -0.1279  0.0545  0.3326
19356W        W35490  14.839  12.377   1.941 -0.1995 -0.1405  0.3865
19357W        W35491   7.026  18.391  13.603 -0.0810  0.5284  0.1691
19358W        W35492  18.921  14.991  12.068 -0.0803  0.0178  0.0485
19359W        W35493  13.271   4.349   0.091 -0.1919 -0.0444  0.0957
19360W        W35494  16.820  14.113  12.091  0.1194 -0.0401 -0.1694
19361W        W35495  11.184   8.587   0.573 -0.1412  0.0374  0.0848
19362W        W35496  10.486   2.924   5.128 -0.2076  0.0379  0.1632
19363W        W35497   3.623   8.360  10.907 -0.1778 -0.3095  0.0419
19364W        W35498  13.929  13.824   1.944  0.3019  0.1989 -0.1472
19365W        W35499  11.797   9.570   4.577 -0.0311  0.0302 -0.2599
19366W        W35500   4.089  14.639  10.789 -0.1854  0.0378 -0.3341
19367W        W35501   2.963  16.444   5.225 -0.0013  0.1019  0.2095
19368W        W35502   6.277   0.737   5.457 -0.1018  0.2812  0.2259
19369W        W35503  15.307  10.535  12.734 -0.2486  0.2150  0.0256
19370W        W35504  11.945  11.195   2.108  0.7526 -0.0750 -0.1153
19371W        W35505  14.961  18.742   9.241  0.2823  0.2268 -0.1111
19372W        W35506   4.122  17.666   3.855 -0.0562  0.0097  0.0940
19373W        W35507   9.683   1.373   3.542  0.1186 -0.0893 -0.2330
19374W        W35508  17.087   9.529   4.708 -0.0595  0.1730  0.1962
19375W        W35509  16.889   7.461  12.942  0.2337  0.0707 -0.1020
19376W        W35510  14.424  11.598  14.759 -0.2252  0.3797  0.3190
19377W        W35511  14.195  13.353   3.134 -0.0529  0.0009  0.0117
19378W        W35512  14.850  14.388   1.890  0.1620  0.1401 -0.1866
19379W        W35513  12.465   3.766   2.503 -0.0729  0.0062 -0.1678
19380W        W35514   8.209  13.037   2.163  0.0662 -0.4158  0.0985
19381W        W35515  12.468   7.132   5.641  0.0237 -0.1510 -0.0106
19382W        W35516   9.440   5.655  11.559 -0.1425 -0.0842 -0.0534
19383W        W35517  11.443  14.169  13.959  0.1957 -0.1351  0.1072
19384W        W35518   1.557  17.516   2.172 -0.4572  0.0841  0.0113
19385W        W35519   7.441   3.172   9.646 -0.0802  0.4746  0.3005
19386W        W35520   7.574  10.256  12.695 -0.1764  0.0590  0.0817
19387W        W35521   2.572   0.900   5.042  0.0751 -0.1852 -0.0031
19388W        W35522  16.419   3.717   9.490 -0.1797  0.1678 -0.2200
19389W        W35523   4.842  17.093   1.691 -0.3641 -0.0418  0.0893
19390W        W35524  16.430  15.001   3.141  0.2051 -0.0642  0.2806
19391W        W35525   4.957   9.597   1.738  0.2962  0.1380  0.2493
19392W        W35526   7.620   6.038   2.681 -0.1184 -0.1637 -0.3345
19393W        W35527   8.001   9.964  14.103  0.0640 -0.0755  0.2640
19394W        W35528  13.965   7.682   1.401  0.1163 -0.2609 -0.0723
19395W        W35529   3.289   5.033   4.334  0.0734  0.3045  0.1610
19396W        W35530  13.960   5.584   1.088  0.1264 -0.1376 -0.2345
19397W        W35531  12.852   2.317  11.378 -0.1436  0.2383  0.1332
19398W        W35532  15.953   0.351  10.096  0.4041  0.2556  0.0744
19399W        W35533   0.448  18.631   4.132 -0.2999 -0.2242  0.0194
19400W        W35534  15.973   1.627  12.346 -0.1160 -0.0652 -0.3141
19401W        W35535   0.946   0.944   3.678  0.1936  0.0693  0.3277
19402W        W35536  11.833  13.364   0.888 -0.1027  0.1144 -0.1634
19403W        W35537  12.202   1.725  12.930 -0.3740 -0.0375 -0.1052
19404W        W35538   6.006   2.699  12.369  0.0298  0.1411  0.1457
19405W        W35539  19.077  15.719  14.353 -0.3462 -0.0805  0.0315
19406W        W35540  10.723  17.998  11.459 -0.1947  0.0083  0.1553
19407W        W35541  10.040  10.624   0.233  0.0452  0.1156 -0.0354
19408W        W35542  13.112   4.182   4.087  0.4108  0.1459 -0.1844
19409W        W35543   9.112  12.390   3.203 -0.0822  0.1253  0.1480
19410W        W35544  10.265   6.652   1.068 -0.0400 -0.0406 -0.1262
19411W        W35545   0.929   8.861  13.985 -0.0198 -0.0652 -0.0873
19412W        W35546   7.212   6.285  10.999 -0.3481  0.0918  0.0246
19413W        W35547   0.523  18.324   3.700 -0.3634  0.1968 -0.2414
19414W        W35548   6.143  12.077   5.560 -0.1126 -0.4586 -0.2443
19415W        W35549   4.520  13.375   4.495  0.0761  0.0566  0.1524
19416W        W35550  18.675   9.885   3.558 -0.3037 -0.1027 -0.3142
19417W        W35551  16.320   2.887   9.979 -0.0889 -0.0777  0.3080
19418W        W35552  14.663   3.066   0.311  0.0575 -0.2746 -0.1832
19419W        W35553  14.822  17.644   1.936 -0.0948 -0.3876  0.2862
19420W        W35554   9.685  13.364  14.636 -0.3329  0.0983 -0.2501
19421W        W35555  16.945  15.279  13.763  0.0980 -0.0982  0.2207
19422W        W35556   5.033   3.474  10.373 -0.2108 -0.0758 -0.1653
19423W        W35557  15.809  10.306  11.278  0.2162 -0.2051 -0.2807
19424W        W35558  10.838  13.889  12.667  0.2544 -0.0332 -0.1798
19425W        W35559  18.232   2.519   2.865  0.1095  0.0205 -0.2430
19426W        W35560  11.163  12.934  11.683 -0.2716 -0.2318  0.1636
19427W        W35561   5.112  12.755  14.391  0.0664 -0.1394 -0.0814
19428W        W35562   5.812  14.393  10.811  0.0411  0.0387  0.1516
19429W        W35563   5.512  10.307  14.679 -0.3085  0.1419 -0.2594
19430W        W35564   9.690  10.495  10.315 -0.1524 -0.1847  0.0475
19431W        W35565  14.359  17.872  11.445 -0.0960  0.1824 -0.1259
19432W        W35566  14.481   2.938   1.267  0.0543  0.1133  0.0847
19433W        W35567   1.895   8.215   5.000 -0.0729 -0.1283  0.2259
19434W        W35568   4.374   2.111  12.211 -0.3938 -0.0220 -0.2406
19435W        W35569  18.118   5.635   4.100  0.2622  0.0257 -0.1528
19436W        W35570   8.680   6.460  14.464  0.0413 -0.1483 -0.4973
19437W        W35571   5.199   9.332  11.408  0.2846 -0.2174  0.3153
19438W        W35572   5.457   3.813   0.378  0.0613 -0.2757  0.0994
19439W        W35573   8.645  16.402   0.045 -0.0458 -0.1381 -0.1709
19440W        W35574   4.675  15.812   3.328  0.0041 -0.0576  0.1039
19441W        W35575   3.911  15.122   5.682  0.1980 -0.0532  0.0967
19442W        W35576  10.657  13.090   4.088  0.4819  0.4320 -0.2740
19443W        W35577   1.448  16.728  13.040  0.5353 -0.0926 -0.0677
19444W        W35578   3.205   2.514  10.854 -0.2081  0.4136  0.3433
19445W        W35579   6.731   3.901   1.363 -0.2218  0.2067 -0.0311
19446W        W35580   9.463   9.535   0.662 -0.0843  0.2187 -0.0357
19447W        W35581  18.235   6.993   2.697 -0.3472  0.1605 -0.3215
19448W        W35582   4.147   6.480  13.532  0.0734  0.0115 -0.1597
19449W        W35583  16.722  17.333   3.160  0.2167  0.3237  0.1718
19450W        W35584  16.396   0.983   2.832  0.3213  0.2086  0.2123
19451W        W35585  17.411  15.384  14.529 -0.2105 -0.2085 -0.2017
19452W        W35586   1.015   7.878  13.074  0.2689 -0.0687  0.2083
19453W        W35587  12.385  15.255   4.441  0.0838 -0.0426  0.1093
19454W        W35588   5.518   8.227   4.311  0.4046  0.1953  0.0092
19455W        W35589  11.531  16.650  12.938 -0.0236  0.0005  0.0574
19456W        W35590  11.279  17.124  12.796  0.2081  0.0384 -0.1989
19457W        W35591  11.454   4.212  10.434  0.1343 -0.0766  0.4504
19458W        W35592  15.106   6.421   4.028  0.0461 -0.3321  0.0335
19459W        W35593   5.048   8.607  13.447  0.2130  0.2351  0.0851
19460W        W35594  10.730   3.706   3.031 -0.4051  0.0260  0.2525
19461W        W35595   3.922  13.223  13.359 -0.0749  0.2194  0.3908
19462W        W35596   6.740   3.959  13.052  0.1851 -0.1144  0.1478
19463W        W35597   3.836  18.143  12.823 -0.0145 -0.1276 -0.2226
19464W        W35598  12.664   9.062   3.059 -0.1197 -0.1161  0.0404
19465W        W35599   3.023  16.824   2.436  0.0302 -0.1925  0.0048
19466W        W35600  12.711  12.325   4.732  0.2346  0.1696 -0.1393
19467W        W35601   0.552   8.471  11.923 -0.2421 -0.1186  0.0351
19468W        W35602   4.941   9.706  12.267  0.2975  0.3072  0.0052
19469W        W35603  17.182   1.276  13.693 -0.2045  0.1832  0.5273
19470W        W35604   6.537   6.080  10.342  0.2263 -0.1357 -0.0880
19471W        W35605  12.489   1.747  13.466  0.1507 -0.0814  0.1466
19472W        W35606   6.804   9.696  12.467 -0.2657  0.3051 -0.2557
19473W        W35607  10.654  18.385   0.424 -0.1695 -0.0012 -0.0423
19474W        W35608  15.342  13.986  11.103  0.1860 -0.2201 -0.1208
19475W        W35609  18.308   7.628   2.041  0.0597  0.0918  0.1494
19476W        W35610   5.998   6.531   3.427  0.0221 -0.0617  0.0447
19477W        W35611   9.255   8.437   1.820  0.2248  0.1351 -0.1953
19478W        W35612   0.874   6.771  12.627  0.1062  0.1030  0.0280
19479W        W35613   8.581  13.297   1.885  0.0624 -0.3088  0.1467
19480W        W35614   1.085  16.646  12.282  0.2908 -0.2305 -0.0816
19481W        W35615   1.877  14.441  13.251  0.4645  0.1838  0.1732
19482W        W35616  16.082  17.488  11.301 -0.0266  0.2788  0.1314
19483W        W35617  15.578   8.094   0.637  0.1991 -0.1236 -0.1732
19484W        W35618   9.172   2.296  12.234 -0.2053 -0.0094  0.0451
19485W        W35619  11.841   5.676   0.601  0.1144  0.3309  0.0104
19486W        W35620   6.052  14.445  13.861 -0.0302 -0.5992  0.0152
19487W        W35621   3.002  13.531  14.596 -0.1201  0.2456 -0.1021
19488W        W35622  11.723   3.964   4.187  0.2820 -0.1363 -0.0538
19489W        W35623  16.416   6.446  10.851  0.0229  0.2047 -0.0130
19490W        W35624   6.297   8.113   4.448  0.1358  0.0905  0.2366
19491W        W35625  15.060   6.371   0.835  0.2439 -0.1050 -0.0816
19492W        W35626  18.088  17.231   4.570 -0.0149 -0.2506 -0.2035
19493W        W35627  11.107  11.637  11.431 -0.4612  0.1033 -0.0236
19494W        W35628   9.135  19.145  12.539  0.2962  0.3870 -0.4035
19495W        W35629  14.490  14.669  11.068  0.4685  0.2083  0.1830
19496W        W35630  17.266   0.787  14.062  0.1393 -0.2067  0.0435
19497W        W35631  11.457  13.389  14.349 -0.1368 -0.0233 -0.0204
19498W        W35632   5.928   4.360   4.146  0.0916 -0.2289 -0.0890
19499W        W35633  14.828   2.865  14.871  0.1749 -0.1462 -0.0639
19500W        W35634  18.687   6.644   1.342  0.2739  0.1675 -0.1717
19501W        W35635  19.072  19.293   9.269  0.0992  0.1696  0.2807
19502W        W35636   7.212   9.701   3.632 -0.1507 -0.0349 -0.0054
19503W        W35637   2.733  14.472   3.189 -0.0128 -0.1858  0.1283
19504W        W35638   1.124   4.161   1.435 -0.0090 -0.0371 -0.3004
19505W        W35639   5.771  10.912  12.903 -0.2606 -0.0034  0.2392
19506W        W35640   3.896   7.621  10.379 -0.0314  0.0085 -0.0980
19507W        W35641   7.730   6.016  14.557  0.1669 -0.2135  0.4658
19508W        W35642   6.967  10.021   2.466  0.7482  0.2354  0.0420
19509W        W35643  16.538   6.889   1.401  0.0485 -0.1229 -0.1215
19510W        W35644  12.354  12.435  12.870 -0.1072  0.0294  0.3770
19511W        W35645  12.678  13.233  11.705 -0.2359 -0.0507  0.1635
19512W        W35646   0.858   9.486  11.507 -0.3646 -0.2062 -0.0529
19513W        W35647  13.605  18.647  14.929 -0.2972  0.2273  0.1193
19514W        W35648  14.526  15.098   5.216 -0.2990 -0.1472  0.2815
19515W        W35649  12.658   9.554   3.942 -0.1100  0.2185 -0.2427
19516W        W35650  17.740   5.500  12.540  0.0498 -0.0529  0.2976
19517W        W35651  11.466  14.485   4.397 -0.0665  0.0870 -0.2994
19518W        W35652   3.700  19.286  14.552 -0.1309 -0.1162  0.0780
19519W        W35653   7.520  14.240   2.693 -0.0473 -0.0432 -0.0813
19520W        W35654   8.394  14.083  12.733 -0.1561 -0.0529  0.2873
19521W        W35655  11.048  17.149  13.741  0.0543 -0.1838 -0.2182
19522W        W35656  17.362   3.268  13.233 -0.0255  0.0134 -0.3202
19523W        W35657  11.983   6.625  11.890  0.2008  0.1165 -0.0513
19524W        W35658  15.777   0.576   1.762 -0.2482  0.1766  0.3402
19525W        W35659  14.044   9.550   0.373  0.1227 -0.0030  0.1835
19526W        W35660   7.571   4.414   1.584 -0.1706  0.0686 -0.2572
19527W        W35661   5.249   1.127   3.406 -0.1890  0.0375  0.0976
19528W        W35662  17.699  10.701   1.471 -0.1102  0.1462  0.1996
19529W        W35663  11.773  18.026   5.195  0.3875 -0.0125 -0.2572
19530W        W35664  18.532   5.511  14.283 -0.0274 -0.1388  0.0422
19531W        W35665  15.297  15.393  14.255  0.0094 -0.3307 -0.0371
19532W        W35666   7.895   8.331   2.751  0.1712 -0.3423 -0.0897
19533W        W35667  10.661   9.858   4.026 -0.2364 -0.2395  0.0995
19534W        W35668  14.118   8.300   5.728 -0.2806 -0.0631 -0.1543
19535W        W35669   0.091  13.413  10.089 -0.3524  0.0104  0.3254
19536W        W35670   0.516  11.889  11.850  0.1743 -0.0573  0.0514
19537W        W35671  18.875  11.190  13.000  0.0544  0.0160 -0.2257
19538W        W35672  14.669  15.952   0.442 -0.0246  0.0719  0.1668
19539W        W35673  15.695  11.612   4.063  0.2607  0.0035  0.2158
19540W        W35674   8.708  15.750  14.544 -0.2306 -0.0060 -0.0873
19541W        W35675  10.886  17.940   3.337 -0.0196  0.2346  0.2005
19542W        W35676  11.791   0.318   1.926  0.1988 -0.2855 -0.0215
19543W        W35677  15.413  13.903   2.889 -0.0479 -0.0045 -0.4300
19544W        W35678  13.162   5.859  11.011 -0.4052 -0.0001  0.0557
19545W        W35679   0.603   7.063   0.427  0.0724 -0.0376 -0.1685
19546W        W35680   8.518   3.107  12.042 -0.3182  0.2347  0.2116
19547W        W35681   3.658  10.448  10.829  0.1110 -0.1114  0.1641
19548W        W35682  17.793   3.527  14.846  0.1415  0.1923  0.3762
19549W        W35683  17.034  12.481  10.572  0.0148  0.1986  0.0427
19550W        W35684   0.041   2.151   3.353  0.1872 -0.1629  0.0205
19551W        W35685  17.764   5.217  11.403  0.1667  0.2397  0.1258
19552W        W35686  13.858  13.702   0.591 -0.1112 -0.0066  0.0384
19553W        W35687   0.383   4.267  13.409 -0.0253 -0.2096 -0.3113
19554W        W35688  14.190  17.279   1.236  0.5045 -0.2624 -0.0373
19555W        W35689   8.369   5.265   0.460  0.3016 -0.2479  0.0152
19556W        W35690  14.740  17.867   4.023  0.1947  0.0122  0.2404
19557W        W35691  11.997  13.758   2.244 -0.2745  0.2247 -0.0285
19558W        W35692   7.573   5.434   2.048 -0.3174  0.0233 -0.0543
19559W        W35693   8.449  13.902   4.475 -0.4028 -0.0424  0.1405
19560W        W35694   9.954   5.620   0.841 -0.3403  0.0932 -0.1172
19561W        W35695  13.007  11.047   0.645 -0.1099 -0.4983  0.3207
19562W        W35696  11.944   3.781  14.707  0.1863 -0.1439  0.0202
19563W        W35697  11.983   2.996   2.487 -0.1456 -0.1484  0.2978
19564W        W35698  18.736   0.739  14.205 -0.1546 -0.0143  0.1874
19565W        W35699  18.309   2.356  14.584 -0.1959 -0.0409  0.0055
19566W        W35700   8.158  17.493  13.437  0.0094 -0.0588 -0.0095
19567W        W35701  19.282   8.335  11.960 -0.0535 -0.2601  0.1495
19568W        W35702   3.322  17.490   3.817  0.0287  0.1952  0.1534
19569W        W35703   5.591  15.784   1.810  0.0416  0.0341 -0.0505
19570W        W35704   2.363   2.833  13.118  0.0109 -0.0798  0.2356
19571W        W35705  16.710  16.697  10.141  0.0548 -0.0370 -0.5034
19572W        W35706  18.806   2.050   9.716 -0.0192  0.0846  0.2194
19573W        W35707   4.418  11.039  10.032 -0.0285 -0.2200 -0.1915
19574W        W35708  10.377  13.945  11.225 -0.1153  0.1689  0.0079
19575W        W35709   2.245  14.294  11.552  0.1940 -0.0334  0.1354
19576W        W35710  18.609   3.603  11.805 -0.1149  0.2616  0.0602
19577W        W35711  10.658   4.585  13.663  0.2683  0.2134 -0.2282
19578W        W35712  12.287   3.695   1.477 -0.4391  0.2917  0.1974
19579W        W35713  15.897   6.507  10.797 -0.1654  0.2788 -0.2193
19580W        W35714   4.851  11.377  14.803  0.0421 -0.2235 -0.0187
19581W        W35715   3.286  15.864   2.152  0.2558 -0.0815 -0.2115
19582W        W35716   3.458  12.543   4.934  0.2030 -0.0370  0.2180
19583W        W35717   3.985   5.467   3.591  0.0648  0.1637  0.1041
19584W        W35718   5.451  18.852   2.920  0.0219  0.2249 -0.1932
19585W        W35719  18.858  14.239   4.500  0.0062  0.1077  0.1759
19586W        W35720  16.103   8.028   0.235  0.0489  0.0591  0.2231
19587W        W35721   9.187   8.555  13.606  0.0394 -0.2560 -0.0362
19588W        W35722   2.403   3.350   2.398 -0.0176  0.0391  0.3030
19589W        W35723   1.728  10.112  12.115 -0.1010 -0.1109  0.0627
19590W        W35724   1.366  14.757   4.316  0.2998 -0.0831 -0.0422
19591W        W35725  16.120  14.583   0.147  0.0194  0.0247  0.2390
19592W        W35726   8.978   1.579  13.227  0.2475  0.2281  0.3791
19593W        W35727  15.526   1.047   2.885 -0.2727  0.0407 -0.0542
19594W        W35728   0.562  16.102   4.180  0.1237  0.1302  0.1037
19595W        W35729   2.636  18.954   0.174 -0.0845 -0.2123 -0.0907
19596W        W35730  12.634   3.508  11.740  0.0596 -0.1604 -0.1371
19597W        W35731   6.304   5.222  13.300  0.0944  0.0514  0.1490
19598W        W35732  18.523   2.566   4.446 -0.1227 -0.2633 -0.0234
19599W        W35733   4.868  13.857  12.290 -0.1211  0.1151 -0.0434
19600W        W35734  14.075  10.753   1.733 -0.3506 -0.3441 -0.1028
19601W        W35735   1.433   0.729  13.735  0.3383  0.1376 -0.1659
19602W        W35736  11.862  13.295  10.475 -0.2252 -0.0039  0.0477
19603W        W35737  18.357   0.752  12.942  0.3031 -0.1640  0.0673
19604W        W35738  18.363  16.902  14.577  0.2538  0.0525  0.2198
19605W        W35739   7.830   3.502   0.300  0.0411 -0.0030  0.4021
19606W        W35740   7.869   5.613  10.876  0.2435 -0.2714  0.1090
19607W        W35741   2.073  11.053  11.006 -0.0218 -0.0754 -0.1042
19608W        W35742  16.033   1.433  14.104  0.0470  0.2824 -0.2175
19609W        W35743  14.194   5.836  13.947  0.3294 -0.0458 -0.0340
19610W        W35744   1.190   9.427  10.777 -0.0162  0.0574  0.2138
19611W        W35745   8.255   7.204  14.179  0.1087 -0.2663  0.1301
19612W        W35746   2.264   1.349  12.144  0.0409  0.0737  0.0386
19613W        W35747  13.933   6.689   5.100  0.1015 -0.1917 -0.1110
19614W        W35748  11.956   9.608   2.848  0.0292 -0.1456 -0.1383
19615W        W35749   0.005   8.418   1.882 -0.0411 -0.1378 -0.0273
19616W        W35750   9.888  15.345   5.054  0.0458 -0.0051  0.0305
19617W        W35751  18.561   1.979   0.376  0.1820  0.2737  0.2313
19618W        W35752   4.570  16.358   2.653 -0.1037 -0.0867  0.3570
19619W        W35753   4.913  17.395   2.129  0.2009  0.0068  0.0960
19620W        W35754  10.868  14.886   1.203 -0.0984  0.1819  0.0986
19621W        W35755  11.186   7.556   4.334  0.2168  0.0362 -0.0090
19622W        W35756   4.585  17.393   3.789 -0.0293  0.1027  0.1794
19623W        W35757   0.028  17.288   2.969  0.0240  0.1079 -0.0760
19624W        W35758  13.527  11.082  14.855  0.1840 -0.3077 -0.1138
19625W        W35759  12.216  14.236   0.336  0.1292  0.0243  0.1315
19626W        W35760   8.991   7.475   1.402 -0.3628 -0.2162 -0.3767
19627W        W35761   2.193   0.002   2.836  0.0721  0.1358 -0.2352
19628W        W35762  14.410  16.753  11.687 -0.2402  0.0139 -0.1656
19629W        W35763   7.734  10.976   3.759 -0.0716 -0.0031 -0.4025
19630W        W35764   9.611   2.856  13.661 -0.1227 -0.0076  0.0948
19631W        W35765  11.289   8.503  13.881  0.0342  0.2731  0.0529
19632W        W35766  10.391   1.018   4.160 -0.0093 -0.0234  0.2153
19633W        W35767   8.651   7.949  12.706  0.2104 -0.0342 -0.0452
19634W        W35768   2.457  12.064   2.237  0.0150  0.0693  0.0194
19635W        W35769   8.045  17.129  13.082  0.0331  0.2181  0.0613
19636W        W35770   1.182   0.303  10.488 -0.0602  0.3450 -0.2880
19637W        W35771   0.417   0.874  11.956 -0.2342 -0.2391  0.1717
19638W        W35772  10.529   7.246  14.388  0.0433  0.1616 -0.2651
19639W        W35773   8.423   3.194  13.518 -0.1446  0.0582  0.0533
19640W        W35774  12.821   5.395   1.554 -0.0659  0.2396 -0.2845
19641W        W35775  15.056  12.230  12.523  0.2659  0.1780 -0.0537
19642W        W35776  15.692  14.214   4.266  0.0631  0.0608  0.0531
19643W        W35777  16.034   8.800  12.264 -0.1459  0.1854 -0.0211
19644W        W35778   6.837  15.216   3.806 -0.0897 -0.1032  0.0559
19645W        W35779  10.583   8.269  10.174 -0.1039  0.1030 -0.1474
19646W        W35780  19.284  14.033  10.545 -0.0725 -0.1113 -0.1420
19647W        W35781   2.948  10.724  12.677  0.0873  0.2343 -0.1560
19648W        W35782   6.721   0.470  10.985  0.1314 -0.0584 -0.0716
19649W        W35783  10.239   3.631  14.526 -0.1626  0.3524  0.3096
19650W        W35784   3.275  18.605  12.494 -0.1902 -0.2619 -0.0033
19651W        W35785  13.160   8.423  14.580 -0.1071 -0.2841  0.0002
19652W        W35786   8.346   4.287   0.490 -0.2109 -0.1877  0.0811
19653W        W35787   2.490   0.327   5.213 -0.2168 -0.3588  0.0435
19654W        W35788  16.993  11.072  11.264 -0.2078 -0.3825 -0.1336
19655W        W35789  13.021   7.415  12.431  0.2484  0.2238 -0.2060
19656W        W35790  12.879   4.749  10.580  0.2047 -0.3539 -0.0369
19657W        W35791   7.961   0.698  10.914  0.1312  0.2456  0.0925
19658W        W35792  19.125   5.178   4.456  0.1216 -0.0278 -0.1911
19659W        W35793  18.918   6.242  14.414 -0.1480  0.2371 -0.1408
19660W        W35794  11.024  13.717   3.364 -0.4327  0.0078 -0.1157
19661W        W35795   8.314   7.295  12.675 -0.1127  0.2395  0.3925
19662W        W35796   0.326  17.253  13.280 -0.1773  0.0044  0.0514
19663W        W35797   6.779   5.603   4.821  0.1786  0.0715 -0.1091
19664W        W35798   3.011  19.118   4.787 -0.0607 -0.1520 -0.2642
19665W        W35799   1.640  16.603  14.414  0.0277 -0.2362  0.1716
19666W        W35800   3.120  15.687   3.700  0.1502 -0.2784 -0.3292
19667W        W35801  10.767  10.448   3.432 -0.2389 -0.2713  0.1216
19668W        W35802  12.667  16.459   4.156 -0.0539  0.1705 -0.2795
19669W        W35803  15.329   0.546   2.143  0.3806  0.0583 -0.0072
19670W        W35804  15.933  12.764   0.377 -0.1255 -0.0444  0.0284
19671W        W35805   9.611   4.934  12.742 -0.1053  0.0244 -0.0562
19672W        W35806   3.970   8.132   1.788  0.0327 -0.0500  0.1253
19673W        W35807  12.695   7.399  10.917  0.1336  0.0044  0.1066
19674W        W35808  14.005  14.590   9.500 -0.0768 -0.0736 -0.1636
19675W        W35809  11.949  12.995  12.783  0.3914 -0.0723  0.1467
19676W        W35810  17.394  12.993  13.098  0.0321 -0.0189  0.1806
19677W        W35811   3.739   9.229  14.251 -0.2067  0.1523  0.4059
19678W        W35812   8.844  10.549  12.312  0.2269 -0.2637  0.1141
19679W        W35813   1.068   6.906  14.062 -0.1166  0.0575 -0.3533
19680W        W35814   1.055  15.715   1.523  0.0275  0.0742 -0.1319
19681W        W35815  17.699   0.740  14.832  0.3920  0.1521 -0.2433
19682W        W35816  19.142   4.745   1.463  0.2273  0.0346 -0.0615
19683W        W35817   3.400  15.388   0.815 -0.2862  0.1762  0.1036
19684W        W35818   8.772  15.666   1.524 -0.1605 -0.1919 -0.2329
19685W        W35819  17.831  14.663  10.463  0.0894  0.4058  0.1378
19686W        W35820   2.256   3.982  12.148 -0.0761  0.1260  0.0725
19687W        W35821  13.750   4.350   4.654 -0.1454  0.1877 -0.1347
19688W        W35822   2.253  18.556   2.111  0.2723  0.4851 -0.2054
19689W        W35823   5.055   8.940   3.886  0.2793  0.1090 -0.2201
19690W        W35824  14.929   2.532  13.391 -0.2572  0.0404 -0.2459
19691W        W35825  14.300   1.780   5.499  0.0096 -0.3246 -0.1558
19692W        W35826  18.277   7.429  11.353 -0.1117 -0.1167  0.4348
19693W        W35827   6.079  15.733   3.170 -0.1397  0.2524  0.1348
19694W        W35828   1.281  10.985   4.274 -0.2585  0.3153 -0.1739
19695W        W35829  11.333  11.870   3.587 -0.1786 -0.1840 -0.1648
19696W        W35830   7.643  13.248  12.102 -0.1063 -0.0828 -0.2705
19697W        W35831   7.599   1.464  10.899  0.1811 -0.0660  0.0909
19698W        W35832  13.516  11.840   3.041  0.1892 -0.2040  0.1153
19699W        W35833  14.634   6.533  14.910  0.0217  0.0058  0.1194
19700W        W35834   7.341   1.875  12.613 -0.2832  0.1987  0.1385
19701W        W35835   4.296   4.825   0.334 -0.0722 -0.1682 -0.0142
19702W        W35836   4.878   4.929  13.521  0.0904 -0.0480 -0.1183
19703W        W35837  15.018  13.009   9.708 -0.2234 -0.0248  0.1973
19704W        W35838   4.889   8.142  13.621 -0.1191 -0.2782  0.2540
19705W        W35839  12.744   6.304  10.784 -0.1025  0.1273 -0.3017
19706W        W35840   6.232   6.928   2.459 -0.0655 -0.0823  0.0232
19707W        W35841  15.651   5.595   1.989 -0.1538  0.1389  0.0225
19708W        W35842   4.601   7.305  12.995  0.2623 -0.1664  0.2634
19709W        W35843   3.004   6.415  11.682 -0.1312 -0.3102  0.0377
19710W        W35844   5.557   4.809  13.238 -0.1616  0.0774  0.4487
19711W        W35845  19.290  15.200   2.922 -0.0409  0.3284  0.1814
19712W        W35846   2.816   5.548  10.621 -0.0582 -0.0659 -0.5216
19713W        W35847   2.536  12.829   1.232 -0.1779  0.1002 -0.3126
19714W        W35848  16.947  18.494  14.066  0.2580 -0.1515 -0.0506
19715W        W35849   8.295  12.621   5.472 -0.2403 -0.3907 -0.3657
19716W        W35850  17.164   5.477  13.909  0.2277 -0.0732 -0.0467
19717W        W35851  15.920   6.612  13.799 -0.1033 -0.2801 -0.2492
19718W        W35852   5.750   7.318   9.590  0.1401 -0.3624  0.0970
19719W        W35853   4.733   8.979   1.100 -0.3567 -0.2885 -0.1119
19720W        W35854   5.348   2.786  10.630  0.0790  0.0266 -0.1160
19721W        W35855  18.772   3.169   2.880  0.0658  0.3365 -0.2714
19722W        W35856  13.505   4.909   1.923  0.2546 -0.3301  0.2316
19723W        W35857  10.965   8.781   3.659 -0.0825  0.2533  0.1335
19724W        W35858  11.602   4.561  12.981  0.2918 -0.1964  0.0710
19725W        W35859  12.717   7.593   4.220  0.1719 -0.1763  0.0355
19726W        W35860   1.017  14.439   4.121  0.0530 -0.2073 -0.0933
19727W        W35861  15.286  15.642   1.914  0.0955 -0.0343 -0.0235
19728W        W35862   1.600   6.842   4.186 -0.2914  0.0242  0.4831
19729W        W35863  15.680   0.131  11.010 -0.1273 -0.1570 -0.0591
19730W        W35864  18.654  11.386   4.358 -0.2003  0.0602  0.1087
19731W        W35865   8.507  17.070  11.644  0.2868 -0.0447  0.0368
19732W        W35866   2.669   5.913  10.906 -0.1704 -0.1969 -0.0223
19733W        W35867  11.662   9.468  12.309 -0.3822 -0.0984  0.0057
19734W        W35868  11.914   8.038   1.119 -0.2608 -0.3588 -0.3649
19735W        W35869   3.406  14.497   1.884 -0.1464  0.1421  0.0606
19736W        W35870  18.344  12.075   1.079 -0.1173  0.0585 -0.2399
19737W        W35871  12.223   2.447   5.457  0.3512  0.0806  0.0506
19738W        W35872  11.532  18.555  14.241 -0.1383 -0.0080  0.2887
19739W        W35873  16.948  10.587   4.687 -0.0875  0.0233  0.2004
19740W        W35874  19.156   5.558  13.839 -0.0880  0.0656  0.2854
19741W        W35875   1.229   3.642  11.202  0.0265 -0.1144  0.3218
19742W        W35876   4.274  16.500   3.420 -0.1342 -0.2171 -0.1252
19743W        W35877   2.818   8.130   2.444 -0.3203 -0.3681  0.2959
19744W        W35878   4.416   8.326   2.630 -0.0190  0.3285  0.0825
19745W        W35879  11.629  18.322  10.711  0.2040 -0.1804 -0.3621
19746W        W35880   9.305  16.053   0.298  0.0852  0.1643  0.0222
19747W        W35881  17.578   8.657  11.321  0.0432 -0.0215 -0.1749
19748W        W35882   5.840  16.398   4.985 -0.1190 -0.1731 -0.2048
19749W        W35883   8.947   6.012   0.271 -0.0658 -0.2737  0.1019
19750W        W35884  15.739  11.951  10.904 -0.0529  0.1200 -0.1502
19751W        W35885   9.901  17.560  10.957  0.1165  0.0854  0.0801
19752W        W35886   2.704   5.123  12.262 -0.0497 -0.0263  0.0463
19753W        W35887   5.643   9.635   4.794 -0.1519  0.2536 -0.4300
19754W        W35888   5.063   5.605   9.906  0.4977  0.0526 -0.0737
19755W        W35889   9.708  19.196   2.758 -0.1615  0.0402 -0.1329
19756W        W35890  14.562   3.323  10.804 -0.0016 -0.0259 -0.0609
19757W        W35891   1.749   3.684  12.313 -0.0296  0.2214 -0.0290
19758W        W35892   3.900  17.038  10.596 -0.1844  0.0238 -0.1319
19759W        W35893   6.554   7.076   0.845 -0.0302 -0.1818  0.1079
19760W        W35894   1.804  16.439   5.215 -0.4327 -0.2605  0.3594
19761W        W35895  10.104  14.490  12.188 -0.1147  0.2326  0.2247
19762W        W35896   5.638   4.862   0.186 -0.2177  0.3997 -0.0638
19763W        W35897   8.465   8.728   1.328 -0.2110 -0.1955 -0.2576
19764W        W35898   9.184  19.063   2.842 -0.2171 -0.1540 -0.2305
19765W        W35899   1.482  18.171   0.530  0.3077  0.0280 -0.0335
19766W        W35900   9.418   5.526   4.989 -0.1773  0.1601 -0.3912
19767W        W35901  11.247   8.038  11.009  0.0730 -0.0837  0.0412
19768W        W35902   0.018  14.003  14.687  0.0821  0.0567 -0.1349
19769W        W35903  15.352   0.386  11.753  0.1679  0.0668 -0.1215
19770W        W35904  13.762   4.770  12.916  0.0131  0.2152 -0.1492
19771W        W35905   7.649  11.087  13.182  0.2048  0.0187  0.1302
19772W        W35906   4.772   1.124   3.154 -0.0697  0.1462 -0.1530
19773W        W35907  16.589   7.040  12.607  0.3343  0.0563 -0.0772
19774W        W35908   0.170  10.693   2.156  0.0613  0.1170  0.1084
19775W        W35909  16.139   7.823   3.146 -0.0331 -0.3162  0.2302
19776W        W35910  15.280   7.018   2.525 -0.1767 -0.0453  0.0329
19777W        W35911  17.716  18.776  14.573  0.3366  0.1604  0.2026
19778W        W35912   0.804   0.892   0.175 -0.2422 -0.0953 -0.0290
19779W        W35913  16.697   8.021  10.158 -0.0995  0.2535 -0.0428
19780W        W35914  18.279   7.880  12.228 -0.1621  0.1080  0.0016
19781W        W35915   0.421  18.206  12.849  0.0452  0.0759 -0.0177
19782W        W35916   5.502   7.438  13.088 -0.2131 -0.1216 -0.0762
19783W        W35917   9.847   7.134   4.436 -0.1289  0.0396  0.2216
19784W        W35918  13.768   4.828  13.443 -0.2513 -0.3820 -0.0971
19785W        W35919  16.902   4.818  14.479 -0.0556 -0.3655  0.2399
19786W        W35920   0.338   7.888  12.001 -0.0873 -0.0437  0.0042
19787W        W35921   7.975  18.684   1.939 -0.3101 -0.0698 -0.0485
19788W        W35922   1.380  17.992  13.954  0.2234 -0.0116 -0.1076
19789W        W35923   6.460   3.510  11.728 -0.2151 -0.1440  0.1371
19790W        W35924   8.005  18.597   4.302 -0.1009  0.1399 -0.1071
19791W        W35925   1.366   7.583   1.590  0.0988  0.0565 -0.1775
19792W        W35926   0.007   9.138  14.537  0.1475 -0.3552 -0.0062
19793W        W35927   0.934  10.712   1.401 -0.0867  0.2195  0.4307
19794W        W35928  18.476   4.151  12.637  0.1890  0.0152 -0.0282
19795W        W35929  14.193   8.728   4.256  0.0744  0.1326 -0.1962
19796W        W35930   2.417  19.070  11.674 -0.0576 -0.0049 -0.0999
19797W        W35931  12.225   9.800   2.452  0.0555  0.0356  0.0517
19798W        W35932  12.685  15.258  11.264 -0.2193 -0.3509 -0.2173
19799W        W35933   1.367   3.863  12.614  0.2282  0.0154 -0.2961
19800W        W35934  11.862  17.641   0.338 -0.4266  0.2999 -0.0767
19801W        W35935   5.982  10.538  14.108  0.1051  0.0821 -0.0477
19802W        W35936   5.655   0.474  11.806 -0.1320  0.0802  0.1609
19803W        W35937  17.079   1.792  13.530 -0.1872 -0.0313 -0.1214
19804W        W35938  14.587   8.232  10.230 -0.1392 -0.0435  0.1331
19805W        W35939  14.282  12.296  10.367 -0.1338 -0.1668  0.0837
19806W        W35940   3.006   3.228  13.550 -0.1709  0.1094  0.1877
19807W        W35941  18.107  19.279  11.620  0.1875  0.3120  0.1198
19808W        W35942  14.897  14.736   4.656  0.0791  0.2303 -0.0786
19809W        W35943  17.060   8.059  13.776  0.5550  0.1359 -0.1796
19810W        W35944   8.020   6.230  14.021 -0.0467 -0.3531  0.2208
19811W        W35945   0.530  11.959  14.880  0.0309 -0.0387 -0.1430
19812W        W35946  16.191   0.977  13.911 -0.0987 -0.2577  0.0464
19813W        W35947  14.403   7.255  11.202  0.1342 -0.1156 -0.1384
19814W        W35948   5.572  10.756   5.190 -0.2882  0.2483 -0.1621
19815W        W35949  11.125  13.502  13.952  0.0642  0.2160 -0.2689
19816W        W35950   2.894  15.986  10.922 -0.2297  0.1133 -0.2196
19817W        W35951   2.998  14.259  14.980 -0.1060  0.0040 -0.1085
19818W        W35952   7.749  13.322  13.021  0.1682 -0.1148 -0.1023
19819W        W35953   6.333   2.928  14.723  0.1304 -0.0179  0.1106
19820W        W35954  10.799   9.377  12.870  0.0664  0.1309  0.2072
19821W        W35955  14.341   1.207   1.101  0.3079  0.1755  0.1060
19822W        W35956   0.570  16.570   0.891  0.3280 -0.5135 -0.2483
19823W        W35957  12.309  12.108   3.442  0.2610  0.2019 -0.2453
19824W        W35958  19.211  12.499  12.996 -0.0224 -0.0668 -0.1659
19825W        W35959   5.676  14.742   2.881  0.2334 -0.0819 -0.2124
19826W        W35960  13.132   1.906  10.349  0.1305  0.1804 -0.0515
19827W        W35961   2.349  13.018   1.661 -0.0086  0.2906 -0.2393
19828W        W35962  10.493   4.052   1.324  0.2618  0.0158  0.1623
19829W        W35963   6.046   0.666   0.785  0.1393 -0.1312  0.1631
19830W        W35964  11.138   5.374  10.948  0.0514  0.1037  0.0513
19831W        W35965  13.900   5.272   4.372  0.2189 -0.1763 -0.0406
19832W        W35966   0.823   0.719   4.622  0.0030  0.1051  0.0285
19833W        W35967   9.699  17.990  10.698  0.1625 -0.1393  0.2381
19834W        W35968  11.440  16.721   4.643 -0.1507 -0.0619 -0.2684
19835W        W35969   4.166   2.623   1.355  0.1398  0.3460 -0.1501
19836W        W35970  10.848  13.274  13.657  0.0844  0.1854  0.0195
19837W        W35971   9.167   2.315   4.977 -0.2273 -0.1543  0.0302
19838W        W35972  12.298  15.583   0.101  0.4599 -0.4425  0.0191
19839W        W35973  12.717  11.110  13.099  0.1461  0.0742  0.1704
19840W        W35974   2.770   3.760  13.417 -0.0057 -0.4489  0.1121
19841W        W35975  10.589  12.753   3.289 -0.2607 -0.0123  0.2304
19842W        W35976   8.678   7.214   0.073  0.0850  0.0222  0.0388
19843W        W35977   9.257   7.007  13.108  0.0554 -0.2094  0.1717
19844W        W35978   2.449  14.831  12.882 -0.2883  0.1454 -0.1968
19845W        W35979   9.385  18.139   0.654  0.1044 -0.0788  0.0628
19846W        W35980  17.055  17.325  14.854 -0.2201  0.1870 -0.1244
19847W        W35981   4.989   1.155  12.145 -0.0962  0.0151  0.1498
19848W        W35982  13.886   8.577  13.446 -0.1647 -0.0695  0.4117
19849W        W35983  11.833   8.323  11.068  0.1384 -0.1229 -0.2303
19850W        W35984  11.569   6.559  13.081 -0.0030  0.0476  0.0267
19851W        W35985   9.567   4.480  12.713 -0.0530 -0.0875 -0.2600
19852W        W35986  14.632  11.892  13.720  0.2896  0.0998  0.2212
19853W        W35987   7.323   4.664  11.262 -0.3399 -0.0514 -0.0225
19854W        W35988   6.731  18.451   0.846 -0.0454 -0.2342 -0.1116
19855W        W35989  16.502  16.354   1.556  0.0424  0.1970 -0.4334
19856W        W35990  18.117   7.824  14.438 -0.0675 -0.1832  0.1688
19857W        W35991  11.278   6.735   2.393  0.2810 -0.0142  0.1855
19858W        W35992  19.161   8.359  12.620  0.0029  0.0417 -0.0990
19859W        W35993   8.008  13.774  11.199 -0.3078 -0.2552 -0.0134
19860W        W35994   6.304   6.462  12.859  0.0164 -0.0952  0.0385
19861W        W35995  17.888   0.348  14.569  0.0516  0.0477  0.0032
19862W        W35996   5.571  14.948  11.661 -0.3775  0.0890  0.0952
19863W        W35997  10.129   7.191  13.132  0.1450 -0.1992  0.2078
19864W        W35998  12.020   8.398  13.897 -0.1627 -0.1912 -0.0679
19865W        W35999  11.598   3.963   2.017  0.1032  0.0051 -0.1266
19866W        W36000  14.932  13.408   3.714 -0.0533 -0.2875  0.0097
19867W        W36001  16.387   2.935   4.192 -0.1195  0.1862 -0.1231
19868W        W36002  11.817   8.772  13.031 -0.0267 -0.0241 -0.0369
19869W        W36003   0.650  17.588  10.922 -0.0051  0.2181  0.1435
19870W        W36004   1.601  15.937   4.275 -0.0199 -0.4020  0.0036
19871W        W36005  17.005   8.089  11.815  0.4021  0.0261  0.1943
19872W        W36006   5.361   9.397   0.724  0.1406 -0.3061  0.0001
19873W        W36007  15.059   7.981   4.015  0.1195  0.1071  0.0812
19874W        W36008   7.926  15.071  13.367  0.0697 -0.1371 -0.1897
19875W        W36009  14.357  13.418  14.462 -0.0827  0.1333  0.0070
19876W        W36010  11.336  13.201   9.106 -0.1402  0.2738 -0.2983
19877W        W36011  15.153  15.038  12.440 -0.0688 -0.4676  0.1430
19878W        W36012   1.418   4.221  13.307 -0.0697  0.0345  0.1780
19879W        W36013  12.990  18.344  14.296  0.2489 -0.1143  0.2668
19880W        W36014   8.135  18.770  14.865 -0.0617 -0.0364  0.1718
19881W        W36015  11.142   0.663   2.583  0.0511  0.1437  0.0470
19882W        W36016   5.977   2.859   0.931  0.2521 -0.0133  0.1297
19883W        W36017   6.360   3.615   5.449 -0.0356 -0.1723 -0.0977
19884W        W36018   4.437  18.678   2.426 -0.1725 -0.2035  0.0264
19885W        W36019   5.914   8.702  10.847  0.0836 -0.0857 -0.0264
19886W        W36020  17.561  14.121  13.986 -0.1977  0.0727 -0.2392
19887W        W36021  14.439  17.850  12.808  0.2599 -0.1769 -0.1462
19888W        W36022   1.651   4.145   1.807  0.4588  0.2010  0.0495
19889W        W36023   8.321  14.487   9.500 -0.0951 -0.1595 -0.0155
19890W        W36024   7.374   3.712  12.070 -0.1248 -0.0558  0.1499
19891W        W36025   1.426   0.707  10.608  0.1660 -0.1049  0.0746
19892W        W36026  10.205   4.319   0.917 -0.0012  0.3301  0.1258
19893W        W36027  15.091  17.593   2.385 -0.0905 -0.2996  0.0300
19894W        W36028  13.778   9.993   2.966  0.0887 -0.0026 -0.1197
19895W        W36029  13.877   6.136   0.688 -0.0893  0.4306 -0.0718
19896W        W36030  14.723   8.756  11.856 -0.1804  0.1379  0.1311
19897W        W36031  15.667  11.888  11.819  0.1392 -0.1153  0.0085
19898W        W36032  18.138   8.485  12.522  0.2384  0.0309 -0.1241
19899W        W36033  18.104  13.482   1.908 -0.0116  0.1825  0.1585
19900W        W36034  15.241  17.672  12.010  0.1596  0.0165 -0.1112
19901W        W36035  15.887  14.809   4.586  0.2402 -0.3300 -0.1476
19902W        W36036   8.638   1.687   1.118 -0.0237  0.0972  0.0630
19903W        W36037   5.351   1.275   4.800  0.2163 -0.2401 -0.1042
19904W        W36038   8.444   5.988  12.648 -0.1903  0.1400 -0.0785
19905W        W36039  13.960  10.860   4.311 -0.1066 -0.1038  0.0803
19906W        W36040   3.938   7.023   0.482 -0.4140  0.0067 -0.0078
19907W        W36041   9.842   3.341   1.492  0.3229 -0.0369 -0.2761
19908W        W36042   3.441  11.684  12.137 -0.1477  0.4160 -0.1045
19909W        W36043  16.597   7.670  14.839  0.1088  0.2249 -0.2911
19910W        W36044   7.955   1.107  13.046  0.1232  0.0740  0.0689
19911W        W36045  12.710   6.283  13.777  0.2140 -0.5380 -0.1133
19912W        W36046   0.257  17.810  14.081 -0.1061 -0.1273  0.2784
19913W        W36047   7.644   7.958  14.260  0.0635  0.1305 -0.1317
19914W        W36048  13.274  12.534   0.128 -0.1501 -0.1331 -0.2247
19915W        W36049  11.894  17.844  13.035  0.1468  0.3393  0.2270
19916W        W36050  18.869   0.893   1.720  0.1339  0.0698  0.0424
19917W        W36051   0.903  12.671  12.857  0.1863 -0.0251  0.0529
19918W        W36052  18.016   0.719   2.293 -0.1396  0.0580 -0.1073
19919W        W36053   9.148  17.881  12.107 -0.0934  0.1686 -0.6834
19920W        W36054  19.116  19.220   9.744  0.0655  0.0945  0.0138
19921W        W36055  10.484  18.518  13.955 -0.1065  0.0488 -0.6544
19922W        W36056  10.978  12.189   0.763  0.0866 -0.2620 -0.1876
19923W        W36057   2.806  17.529   3.865 -0.0186 -0.1358  0.0070
19924W        W36058   7.687  15.035   3.310  0.2143 -0.0833  0.1300
19925W        W36059  17.447  17.275   3.380 -0.0743  0.0957  0.1863
19926W        W36060   1.106   4.319  10.712 -0.1333  0.0618  0.1339
19927W        W36061  11.845  18.807  11.471  0.0766 -0.0067  0.1639
19928W        W36062   3.108   8.667   0.898  0.0625 -0.3003  0.2049
19929W        W36063   0.795   7.703   9.689  0.2847 -0.0121 -0.1313
19930W        W36064  18.815  12.610  14.362 -0.0803 -0.0705  0.0347
19931W        W36065   3.688   4.226   2.879  0.1924  0.3061  0.2220
19932W        W36066  17.445  16.518   3.967 -0.1620  0.0781 -0.3315
19933W        W36067   6.686   6.009  14.550  0.3077  0.3533  0.0579
19934W        W36068  19.317  16.372   3.976  0.2532  0.3388 -0.1901
19935W        W36069   4.292   4.447  12.718  0.0873 -0.2588  0.2549
19936W        W36070   3.143   8.761  13.845  0.0295  0.2551 -0.0742
19937W        W36071   7.597  15.492   0.693  0.0918 -0.0424  0.0411
19938W        W36072   9.414   0.747  13.566 -0.2989  0.0131 -0.0469
19939W        W36073   6.301  14.940  13.793 -0.1302 -0.0781  0.1123
19940W        W36074  18.336   6.420  11.948  0.1008 -0.2839 -0.1208
19941W        W36075   4.316  15.697   1.910 -0.2490  0.2606  0.0266
19942W        W36076  15.782   8.959  11.043 -0.0422  0.2112  0.0300
19943W        W36077   0.274   9.436   1.220 -0.1891  0.4578 -0.2275
19944W        W36078  18.685  13.132   2.579 -0.1401  0.4060 -0.0098
19945W        W36079   9.339   9.593   3.196 -0.2250 -0.0185 -0.1330
19946W        W36080   9.452   9.900  11.248  0.0657  0.3141 -0.0215
19947W        W36081  16.273   0.004  14.302  0.1272 -0.2750  0.0593
19948W        W36082  14.662  14.477  13.304 -0.0319  0.0169  0.0550
19949W        W36083  10.929  15.277   1.520  0.0335  0.0257 -0.1323
19950W        W36084  14.333  15.956   3.361 -0.0647 -0.1983 -0.1825
19951W        W36085  17.876  10.993  13.909 -0.2277 -0.1008  0.3756
19952W        W36086  16.440  15.086   9.400 -0.1050 -0.2462  0.0068
19953W        W36087   7.740  18.491   1.155  0.1096  0.1707 -0.1164
19954W        W36088  13.634  15.312  12.236 -0.0896  0.0739  0.3428
19955W        W36089  15.142   3.853  12.914 -0.1881  0.0896  0.1671
19956W        W36090  12.775  13.700  12.117  0.3516  0.0135  0.0688
19957W        W36091  17.949  15.354   9.532  0.0527 -0.0058 -0.0933
19958W        W36092  18.532  12.304   1.539  0.0861  0.1000  0.1771
19959W        W36093  18.207   3.663  11.460  0.0896 -0.2081  0.3141
19960W        W36094   5.633  15.634   0.368 -0.1066  0.1385 -0.0844
19961W        W36095  18.672   9.781  12.522  0.3644  0.1652 -0.4742
19962W        W36096  11.281  13.799  14.860  0.3042  0.2416 -0.1122
19963W        W36097   7.843   6.880  14.212  0.0387  0.0547 -0.0653
19964W        W36098  15.715  14.335   5.214  0.2507  0.3628  0.0410
19965W        W36099  12.295   9.134   3.930  0.3815  0.2067  0.2040
19966W        W36100   8.410  14.352   5.186  0.6587 -0.1749 -0.4345
19967W        W36101   0.355  18.681  13.063  0.1973  0.1548 -0.1168
19968W        W36102   0.757  11.528  12.314  0.0731 -0.3820 -0.1146
19969W        W36103  15.343   4.539  12.112  0.1288  0.1052  0.1867
19970W        W36104   7.266  13.567   5.035  0.2844 -0.1697  0.0259
19971W        W36105   2.827   9.551  14.653  0.2687 -0.3040  0.1950
19972W        W36106   6.681  19.154  10.910  0.1558  0.0872  0.0145
19973W        W36107   6.972  17.304  14.548 -0.2175 -0.4370 -0.1259
19974W        W36108   0.483   9.061  12.846 -0.3457  0.1587 -0.0357
19975W        W36109  12.742  11.747  12.290 -0.4814 -0.1344  0.4005
19976W        W36110   7.696  13.079  14.568 -0.4691 -0.0025  0.0523
19977W        W36111  15.767   1.736   2.889  0.1376 -0.0954  0.1778
19978W        W36112   1.593   0.518  13.055  0.0330 -0.2546 -0.1601
19979W        W36113   6.500   1.491   3.289 -0.0116  0.2223  0.0513
19980W        W36114   6.029   0.671  14.107  0.0619 -0.1706 -0.0360
19981W        W36115  16.605  16.306  12.456 -0.0444  0.2061 -0.0929
19982W        W36116  14.754  10.025   3.059 -0.5186 -0.1928 -0.1948
19983W        W36117   3.932   5.849  10.347  0.1314 -0.1906 -0.2037
19984W        W36118   9.325   8.112   3.210  0.0891 -0.1873  0.0255
19985W        W36119   5.748   0.800   4.183 -0.0815  0.1676  0.0463
19986W        W36120  13.408  12.679   1.512 -0.0937 -0.2857 -0.0324
19987W        W36121  13.117   3.836  10.316 -0.3747  0.0787  0.2370
19988W        W36122   8.758   1.937  14.856 -0.5626  0.0651 -0.1153
19989W        W36123   7.853  17.169   5.242 -0.0987 -0.2182  0.1040
19990W        W36124   0.706  10.514   2.180  0.7276  0.1391  0.3093
19991W        W36125   7.328  13.184   3.444  0.2595 -0.1079  0.2364
19992W        W36126   9.150   9.054  13.756 -0.1342  0.1637 -0.0529
19993W        W36127   8.573  14.402  13.708 -0.1996 -0.1262 -0.3100
19994W        W36128   6.033  18.550  11.592 -0.0636  0.1335  0.1006
19995W        W36129   8.050   0.882   5.492 -0.2522  0.0646 -0.2573
19996W        W36130   2.498  11.041  14.304  0.1168 -0.1514  0.0325
19997W        W36131   5.548  13.680   3.820 -0.3730  0.0942 -0.0677
19998W        W36132   0.124   7.098   2.146  0.0455  0.1754 -0.0086
19999W        W36133  18.501  13.226   4.545  0.1051  0.2348  0.0912
20000W        W36134   8.080  12.019   2.089 -0.2107  0.0731 -0.2059
20001W        W36135   3.375   3.137  14.755  0.1864  0.0972  0.0530
20002W        W36136   2.218  18.241  11.307  0.0269 -0.0398  0.0624
20003W        W36137   8.915   8.711   1.591 -0.0232  0.2299 -0.0760
20004W        W36138   0.472  11.022   5.295  0.2392 -0.2345  0.3088
20005W        W36139   6.987  10.713   5.008 -0.2171  0.1101 -0.2561
20006W        W36140  16.369   0.006  10.707 -0.1695  0.0851 -0.0023
20007W        W36141   5.109   7.370  14.722 -0.0894  0.0367  0.1240
20008W        W36142   6.994   1.206   0.364 -0.0057  0.1776 -0.1286
20009W        W36143  13.460   0.908   4.801  0.2548 -0.1309 -0.0843
20010W        W36144   8.209   8.421   4.923 -0.0235 -0.0294 -0.0407
20011W        W36145  18.499   7.701   1.133  0.0906 -0.1014  0.0010
20012W        W36146   4.796   7.932   0.238 -0.0412  0.0640 -0.3146
20013W        W36147   8.890   7.683  13.198 -0.2018  0.1267 -0.1361
20014W        W36148   7.139  16.714   9.461 -0.1604 -0.2250 -0.0933
20015W        W36149   1.559  17.422  10.738  0.0074  0.0257 -0.1452
20016W        W36150  16.957  18.345   1.089 -0.0137 -0.1162  0.0310
20017W        W36151   3.146  18.942   9.975 -0.1322 -0.1842 -0.1049
20018W        W36152  15.741   9.561   3.690 -0.0772 -0.2450 -0.0140
20019W        W36153   6.272  14.181  10.879  0.0744 -0.1496  0.2968
20020W        W36154  17.665   8.941   0.908  0.0413  0.0954 -0.3897
20021W        W36155   6.133   7.708  11.964 -0.1353  0.1903 -0.2328
20022W        W36156  17.595   5.554   0.365 -0.3471  0.0212  0.3158
20023W        W36157   7.796   1.821  12.380 -0.0335  0.2151 -0.0552
20024W        W36158   3.385   0.694   2.427 -0.1063 -0.1007 -0.0826
20025W        W36159   6.712   9.782   2.832  0.2236  0.5205  0.1218
20026W        W36160   6.401  17.936   2.257  0.1752  0.0330  0.2202
20027W        W36161  17.528  14.040  10.027  0.0271 -0.1046 -0.1187
20028W        W36162   7.575   2.867   5.942 -0.0118 -0.1232  0.0332
20029W        W36163  15.462   0.457   3.540  0.0209  0.1554  0.0624
20030W        W36164  13.779   6.488   1.394  0.0250  0.0752  0.1664
20031W        W36165   7.086   8.561  13.885  0.0861  0.1532 -0.1467
20032W        W36166  10.302   6.074   0.468 -0.1000 -0.2824 -0.1405
20033W        W36167  18.668   0.463   1.015  0.0084 -0.2139  0.0279
20034W        W36168  18.026  13.286   1.340  0.1808  0.0611 -0.3109
20035W        W36169  18.237  18.188   9.765  0.0038  0.1737 -0.2997
20036W        W36170  11.530  14.324  14.660 -0.0686  0.0511  0.1375
20037W        W36171   1.557  18.374   2.655  0.1325 -0.1090  0.0214
20038W        W36172   3.583  15.446  12.951 -0.0054  0.2097 -0.0543
20039W        W36173   4.706  11.167   2.988  0.1264 -0.1761 -0.1272
20040W        W36174   9.327  12.026  11.084 -0.1794  0.0311 -0.0285
20041W        W36175  14.923   6.745   4.718  0.3793  0.1168 -0.1828
20042W        W36176   0.714   3.288  11.371 -0.0319  0.0662  0.2000
20043W        W36177  10.531  14.998  13.400  0.2913 -0.0379  0.0681
20044W        W36178   0.518  10.120  10.594 -0.0571  0.1871 -0.0802
20045W        W36179   6.371   0.336   3.928  0.0607 -0.0020 -0.0644
20046W        W36180  19.248   0.808   1.042 -0.0997 -0.2641  0.2090
20047W        W36181  16.859   3.006  12.533  0.1350  0.0043  0.2241
20048W        W36182  14.594  13.698  14.806 -0.0733 -0.2208 -0.3755
20049W        W36183   4.853   4.375   0.826  0.1728  0.1876 -0.3935
20050W        W36184  13.135  11.367   3.949  0.3501 -0.1415 -0.0693
20051W        W36185  16.842  15.545   4.528  0.1870 -0.0877 -0.0245
20052W        W36186  18.625   3.486  11.256 -0.0302  0.1030 -0.3179
20053W        W36187   7.224  16.122   2.458 -0.2179  0.2574 -0.1353
20054W        W36188   0.056   0.923  10.585 -0.1169  0.0842 -0.1582
20055W        W36189   0.002  14.824  12.284 -0.1301  0.2285 -0.2849
20056W        W36190  17.044  16.343   9.945 -0.2469  0.0998  0.1723
20057W        W36191   1.157  13.648  13.579  0.0999 -0.0989 -0.2570
20058W        W36192  13.953   7.139  10.246  0.0661 -0.0807 -0.0451
20059W        W36193   9.780  13.006   3.641  0.4371 -0.2204  0.0628
20060W        W36194   9.304  10.390   3.509 -0.0720  0.1180 -0.2456
20061W        W36195   3.742  10.009  14.911 -0.3037 -0.0986  0.0853
20062W        W36196  12.972   2.531   0.790  0.0382 -0.1864  0.0352
20063W        W36197  18.008   9.638  10.868  0.1714  0.0024  0.2899
20064W        W36198  10.752  15.117   3.245 -0.0710  0.1599  0.1661
20065W        W36199   7.230   5.200   1.770  0.1164  0.0076  0.0634
20066W        W36200  14.151  11.574  13.078 -0.1759 -0.0475  0.0268
20067W        W36201  18.315  16.429   0.376 -0.1968  0.0496 -0.2426
20068W        W36202  13.271  12.544   3.530 -0.4825 -0.0568 -0.2501
20069W        W36203   6.629  10.747   0.686  0.3272  0.0118  0.0089
20070W        W36204   1.122   1.650   2.984 -0.2874  0.3468 -0.1677
20071W        W36205   9.248  13.976  14.261  0.0681 -0.0505 -0.2244
20072W        W36206   8.252  16.830  12.604  0.1247  0.1814 -0.4596
20073W        W36207  17.673   5.050  13.731  0.1097 -0.1504  0.0199
20074W        W36208   5.698   1.449   0.374  0.0207  0.2095  0.1555
20075W        W36209   2.814   5.837  14.256  0.4177 -0.0642 -0.0515
20076W        W36210   7.656  10.064   0.193 -0.1738 -0.1419 -0.2216
20077W        W36211   0.358  16.850   3.015 -0.2834  0.3109 -0.1100
20078W        W36212   0.782   7.627  13.930  0.1246 -0.3127  0.1564
20079W        W36213  18.368   4.876  13.129  0.1976  0.0127 -0.2422
20080W        W36214   7.512   2.293  12.448 -0.1778 -0.6650 -0.0806
20081W        W36215   0.006  13.461  12.720 -0.1403  0.1187 -0.1320
20082W        W36216   0.087   4.553  12.021 -0.1265 -0.7297 -0.0875
20083W        W36217   0.453   1.585   4.853  0.4001 -0.2885  0.1360
20084W        W36218   1.085  14.728   0.580 -0.1196  0.0436 -0.0581
20085W        W36219   1.403  12.503  14.257 -0.2515 -0.4959 -0.1975
20086W        W36220   8.796   9.625   1.222  0.1463 -0.0829 -0.3346
20087W        W36221  17.856  12.902  10.816  0.0685 -0.0084 -0.1877
20088W        W36222   8.603   7.670   4.551 -0.1314  0.1498 -0.2304
20089W        W36223   8.551   0.638  11.579  0.0862 -0.0183 -0.0214
20090W        W36224   4.736   5.726   0.033 -0.1199 -0.2336  0.0537
20091W        W36225   7.985  10.281   2.713  0.3753  0.0149  0.0892
20092W        W36226   5.561   7.348   4.159 -0.0581 -0.0430  0.2276
20093W        W36227  18.054  12.937  13.199  0.1030 -0.5330  0.1822
20094W        W36228   6.717   9.104   4.862 -0.0575 -0.0722 -0.3618
20095W        W36229   9.851   2.459   4.290  0.0683 -0.0697  0.2116
20096W        W36230  12.315   6.304   5.699  0.1725 -0.3225 -0.1500
20097W        W36231  17.726   2.382  13.075  0.0523  0.2460  0.1897
20098W        W36232   9.493   8.706  11.112 -0.4319  0.2353  0.0667
20099W        W36233  17.787  11.662  13.396 -0.3713 -0.2117  0.1270
20100W        W36234  13.213   8.421   3.088 -0.3511  0.1481 -0.0954
20101W        W36235   7.515   1.021   2.784  0.0022 -0.1104 -0.0496
20102W        W36236   5.573  12.290   1.952 -0.1007  0.1296  0.1311
20103W        W36237  16.897  17.953  11.450 -0.0433 -0.4221  0.2879
20104W        W36238  14.163   9.104  10.245 -0.1529 -0.1048  0.0246
20105W        W36239  18.179   0.405  15.009 -0.1080 -0.0023 -0.2942
20106W        W36240   4.421   9.176   2.424  0.1187 -0.0453  0.1691
20107W        W36241  11.562  13.514  12.179 -0.1445  0.0197 -0.1118
20108W        W36242  19.231   8.913   4.187 -0.4827  0.1003  0.0399
20109W        W36243   2.168  10.793  13.639  0.1807  0.2504 -0.1575
20110W        W36244   2.288   0.384   3.673 -0.2881 -0.4450  0.0170
20111W        W36245  14.024   8.131   1.621  0.5360 -0.0171  0.1060
20112W        W36246  13.723   5.710   2.479 -0.0746 -0.1151  0.0260
20113W        W36247  14.817   0.882  14.884 -0.0431 -0.1810  0.3548
20114W        W36248  11.140  16.567   1.849 -0.2019 -0.1594  0.1360
20115W        W36249   4.994   8.660   3.081  0.3969 -0.2246 -0.2973
20116W        W36250  18.234  19.069   3.156  0.0531 -0.0827 -0.1007
20117W        W36251  16.315  16.180  14.116 -0.2297 -0.0388 -0.1249
20118W        W36252  13.332   7.526  14.754  0.2513  0.2024  0.1014
20119W        W36253  16.566   8.925  12.419 -0.1010 -0.1042  0.0660
20120W        W36254   0.629   3.115   5.234 -0.0005  0.0939 -0.2256
20121W        W36255   2.634   1.430   0.271 -0.0316  0.0323 -0.3145
20122W        W36256   4.911   4.947   2.498 -0.2046  0.2055 -0.0040
20123W        W36257  17.121  16.990   4.071  0.1742 -0.2514  0.1704
20124W        W36258   9.711   9.914   9.138  0.1544  0.0313  0.1006
20125W        W36259  15.214  10.492   0.932 -0.0792  0.4389 -0.1329
20126W        W36260  13.147   5.614   3.550  0.3667  0.1831 -0.4296
20127W        W36261  15.307   2.745  10.772 -0.4106 -0.1266  0.2453
20128W        W36262   5.913   5.421  10.687  0.2180 -0.1667 -0.1373
20129W        W36263  17.401  12.125   1.106  0.1309 -0.1511  0.0492
20130W        W36264   3.267   3.178  12.222 -0.0403 -0.3739 -0.0657
20131W        W36265  19.282   4.095  11.929  0.0405 -0.0750  0.0135
20132W        W36266   9.050   6.872   0.732  0.2397  0.0116  0.2338
20133W        W36267   3.797   7.475  11.699  0.0238  0.0895  0.0063
20134W        W36268  18.834   8.110  11.053 -0.1600 -0.0117 -0.0731
20135W        W36269   4.956   4.385  13.741 -0.2303  0.0228  0.1369
20136W        W36270   5.765   4.197   1.399 -0.1067  0.2399 -0.0303
20137W        W36271  13.507   6.640  11.144 -0.2183  0.2971 -0.2157
20138W        W36272  18.343  14.002  10.701 -0.1416  0.1732  0.2834
20139W        W36273  16.915  17.325  10.549  0.0832 -0.2195  0.1751
20140W        W36274  16.789   1.375   1.070  0.1983 -0.1902  0.0126
20141W        W36275   6.342   5.451  13.776  0.1243 -0.1976 -0.1060
20142W        W36276  14.440  11.714  12.749  0.1647 -0.2298  0.0648
20143W        W36277   1.726  16.376  12.984  0.0544  0.2039  0.0538
20144W        W36278   3.569   3.634  10.105  0.4760  0.0619 -0.2949
20145W        W36279   1.173  14.676  14.451 -0.1529  0.0754  0.3018
20146W        W36280  10.196   8.913   3.777 -0.0298  0.1282  0.5571
20147W        W36281   4.041   9.932   4.089  0.1816  0.0053 -0.1084
20148W        W36282  19.234   9.791  11.200 -0.0608  0.1186 -0.0738
20149W        W36283  18.272  19.171  10.892 -0.1290 -0.2215 -0.0594
20150W        W36284   8.794  15.622  11.853  0.0107  0.0585  0.1885
20151W        W36285   5.406   8.708   2.601  0.1712 -0.0972  0.2918
20152W        W36286  13.052   5.766   4.389 -0.3461 -0.0106 -0.1881
20153W        W36287  18.143  13.129   4.061 -0.0874  0.0786  0.2335
20154W        W36288   6.095   6.910   0.565  0.1223 -0.0015  0.1186
20155W        W36289   7.338  12.023   0.773 -0.1110  0.5227 -0.0551
20156W        W36290   9.881   3.673  13.162  0.0249  0.2803 -0.2169
20157W        W36291   3.077  12.299  14.179 -0.0076  0.1470 -0.0542
20158W        W36292  11.647  12.508   1.145  0.4294  0.1520  0.1741
20159W        W36293   1.961   3.846   0.038 -0.3151  0.0046 -0.2457
20160W        W36294   2.796   0.900   4.223 -0.1333  0.3198 -0.1804
20161W        W36295  16.394  17.159   4.842 -0.1222  0.1088  0.1002
20162W        W36296  18.736   4.443  12.998  0.1404  0.0064 -0.1209
20163W        W36297   4.146  10.970   0.892 -0.1438  0.1573 -0.2920
20164W        W36298   0.126   1.166  12.683  0.2977  0.0930 -0.2108
20165W        W36299  14.360   3.445   5.308 -0.1206 -0.1695  0.0210
20166W        W36300  16.264   7.523   0.238  0.1106  0.0765 -0.0937
20167W        W36301   5.952   3.020  13.780  0.1885 -0.1428 -0.3404
20168W        W36302  15.689   2.034  12.377  0.2613  0.2301  0.1772
20169W        W36303   6.501   5.946   1.490 -0.2300 -0.3152  0.2030
20170W        W36304   5.293  16.781   1.810 -0.1232 -0.0985  0.0723
20171W        W36305  10.805   6.842   2.255 -0.1869  0.0393 -0.0778
20172W        W36306  15.537  11.913   1.571 -0.0220  0.2308  0.1767
20173W        W36307   7.443   2.473  13.001  0.0185 -0.2177  0.0664
20174W        W36308   1.799   6.505   3.880 -0.3272 -0.3638  0.1215
20175W        W36309   1.816   8.255   1.949 -0.0377 -0.1126  0.0376
20176W        W36310  13.572  11.556  13.146  0.0774  0.0553 -0.2862
20177W        W36311   5.719  12.112   5.311  0.3088 -0.1279 -0.3072
20178W        W36312  12.234   7.219  11.349 -0.5817  0.1881  0.4298
20179W        W36313  13.462   9.961  12.224  0.2428  0.1757 -0.2650
20180W        W36314   7.688   4.862  10.945  0.0475  0.2997 -0.0471
20181W        W36315  11.996  15.593   0.519 -0.1514  0.1056  0.1966
20182W        W36316   5.299   6.349   5.692 -0.2285 -0.0174 -0.2609
20183W        W36317  16.096   8.080  11.428  0.0037 -0.1684 -0.3272
20184W        W36318   1.069  15.178  10.538  0.0608  0.2222  0.0120
20185W        W36319   7.472  18.647  13.430  0.0490  0.4315 -0.1501
20186W        W36320   2.913   1.364   3.485  0.1185 -0.4360 -0.1152
20187W        W36321  18.389  16.373   4.211  0.1299  0.1029 -0.1611
20188W        W36322   5.812  18.339   1.449  0.3672  0.1431 -0.1400
20189W        W36323  15.429   5.116  11.968 -0.1934 -0.0055 -0.2227
20190W        W36324   3.739   5.942   2.169 -0.0604 -0.1077 -0.0783
20191W        W36325   4.618  10.719  10.998 -0.0750 -0.1464  0.4220
20192W        W36326  18.581   1.351  13.963  0.0952 -0.3320 -0.0662
20193W        W36327   0.125  17.389  12.034  0.3838  0.3204  0.2684
20194W        W36328   0.271  17.191  13.823 -0.0884 -0.1814  0.0102
20195W        W36329   1.082  15.686  14.007 -0.4693 -0.3244 -0.2677
20196W        W36330   2.015   2.448   0.796  0.1599 -0.2223  0.4288
20197W        W36331  15.733  17.773  13.639 -0.0706 -0.5050 -0.1717
20198W        W36332  13.201  14.685   2.621  0.2578  0.0868 -0.0663
20199W        W36333  16.562   8.795   2.836  0.1324  0.0071 -0.1832
20200W        W36334   0.961   8.984  11.438  0.1638 -0.1258 -0.4075
20201W        W36335   1.699   6.379  12.306 -0.1866 -0.0731  0.2411
20202W        W36336   6.187  18.964  13.443  0.1455 -0.0826  0.0780
20203W        W36337   4.381  11.640   5.661 -0.0650 -0.2991  0.2823
20204W        W36338   0.987   0.317   4.960  0.0508  0.1908 -0.2272
20205W        W36339   2.246  18.460   2.954 -0.1120 -0.2517 -0.0004
20206W        W36340  18.020   2.648   3.389 -0.1587 -0.1707  0.5474
20207W        W36341   7.539   7.858   5.050 -0.0291 -0.0160  0.3889
20208W        W36342  14.539  18.889  10.362  0.1544  0.1359  0.0139
20209W        W36343   5.430   9.684  12.539 -0.4409  0.0158 -0.0942
20210W        W36344   6.070  18.679   5.527 -0.1897  0.1968  0.0401
20211W        W36345  12.274   2.271  11.434 -0.0387 -0.2260  0.2490
20212W        W36346   0.781  15.927  12.390  0.0803 -0.0571  0.1807
20213W        W36347   9.948  13.595   1.263  0.2240  0.0002 -0.1252
20214W        W36348   8.942  18.551   4.008  0.0334 -0.0766 -0.0859
20215W        W36349   1.883   4.237   0.866  0.0071  0.0214  0.1283
20216W        W36350  16.484   2.622  14.038  0.1460  0.3136 -0.0393
20217W        W36351  13.555   8.730   9.059  0.2276 -0.1436 -0.1774
20218W        W36352   7.327   3.436   1.483  0.0213  0.0409  0.4332
20219W        W36353  11.239  15.496   3.925 -0.1524  0.0637  0.0649
20220W        W36354  15.366   6.916   3.945 -0.0095  0.0998 -0.0193
20221W        W36355   5.653   6.379   1.131 -0.1701  0.2386  0.2350
20222W        W36356   1.421   2.186   0.192 -0.2078  0.0213 -0.0074
20223W        W36357   2.537   5.583  14.591  0.2022  0.0716  0.1576
20224W        W36358   6.889  16.307  10.881  0.1805  0.1095  0.2131
20225W        W36359   1.223  13.634  14.482  0.1325  0.0732 -0.0647
20226W        W36360  17.998  14.738  12.759  0.1768 -0.2084  0.2025
20227W        W36361   9.273   7.655  13.876 -0.3409 -0.6287 -0.0131
20228W        W36362   7.059  10.775   2.596 -0.0328  0.1775  0.2258
20229W        W36363  13.446   1.619  14.006 -0.2893 -0.2101 -0.1265
20230W        W36364  16.379  16.417   0.516 -0.1706  0.0543  0.0438
20231W        W36365   8.453   0.902  11.080  0.0066 -0.0025 -0.1947
20232W        W36366  14.295   2.626   2.169  0.2195  0.3178  0.3456
20233W        W36367   7.498   2.475   4.878 -0.3345 -0.0645  0.1218
20234W        W36368   8.093   9.961  12.221  0.0745 -0.1211 -0.1668
20235W        W36369   5.387   9.965   1.665 -0.2721 -0.1303  0.3365
20236W        W36370  11.071  16.910  12.161 -0.1100 -0.1376 -0.2252
20237W        W36371   4.694   5.291  10.285  0.1137 -0.0726  0.2182
20238W        W36372   3.021  15.575  10.541  0.0324  0.3044 -0.2246
20239W        W36373  18.993  17.366  11.816  0.3800  0.1183  0.2054
20240W        W36374   0.483   9.838  13.331 -0.2347  0.0292  0.1763
20241W        W36375  14.834  18.247  14.735 -0.3112  0.3376 -0.2110
20242W        W36376  11.726   8.148  14.886 -0.1706 -0.2307  0.1164
20243W        W36377   9.494   3.567  11.759  0.1070  0.0802 -0.0629
20244W        W36378  12.452  13.216   1.120  0.2439  0.2626 -0.0881
20245W        W36379   9.401  15.445  12.827  0.0051 -0.4197  0.3271
20246W        W36380  17.218   5.835   1.269  0.0812  0.1141 -0.0069
20247W        W36381  13.865   7.815   2.876 -0.3585 -0.1574 -0.0516
20248W        W36382  16.446  13.390  12.636 -0.0747 -0.3608  0.3526
20249W        W36383  18.154   8.411   4.295 -0.1689 -0.0255 -0.0443
20250W        W36384   0.849  17.341  10.435  0.0822  0.0700  0.2447
20251W        W36385  17.289  14.612   3.185 -0.1731 -0.1991  0.0576
20252W        W36386   1.523  18.978  14.736  0.3326 -0.2354  0.0279
20253W        W36387  10.814  15.879  14.725 -0.2739 -0.3077 -0.0147
20254W        W36388   0.230   7.964   1.702 -0.1025 -0.7248  0.1778
20255W        W36389  11.962   5.502   0.045 -0.1722  0.1534  0.0214
20256W        W36390  17.937   8.587   1.186 -0.5020  0.4162 -0.0091
20257W        W36391   0.048   5.110   3.530  0.0146 -0.0089  0.2733
20258W        W36392  14.918  10.415   3.402  0.3276  0.1501 -0.0385
20259W        W36393  15.352  16.739   0.978 -0.0460 -0.0660  0.0375
20260W        W36394  11.315   0.540  12.217  0.1066 -0.2615 -0.2150
20261W        W36395   0.754   5.004   0.132 -0.5493  0.2364 -0.3552
20262W        W36396  18.432   9.325  11.738  0.0265 -0.3728 -0.3509
20263W        W36397  18.098  11.275  13.501  0.2731 -0.0557 -0.1010
20264W        W36398   8.539  14.048   0.147 -0.1197  0.0561  0.0355
20265W        W36399  14.087   9.048   0.387  0.4113 -0.4469 -0.0543
20266W        W36400   1.730   9.104  12.275  0.3487  0.0204 -0.4666
20267W        W36401  17.337   7.922   0.807 -0.0977  0.0149 -0.3106
20268W        W36402  11.107  15.804   0.796  0.1375  0.1472 -0.0281
20269W        W36403  14.028   7.837  11.842  0.0115  0.2073  0.2204
20270W        W36404   8.242  11.811   0.046  0.2292  0.1950 -0.2778
20271W        W36405   5.643   0.159   4.627  0.1766 -0.2210 -0.2185
20272W        W36406  12.843  12.319   4.158  0.0000 -0.0577 -0.3996
20273W        W36407  14.045  18.048   0.617  0.3059  0.3960 -0.1845
20274W        W36408  17.981  11.655  14.837  0.2801  0.1994  0.2785
20275W        W36409   5.890  13.897   1.620 -0.1876  0.0501  0.1187
20276W        W36410   2.999  11.919   5.418  0.2267 -0.0506 -0.1810
20277W        W36411  10.910   5.553  11.883  0.2372  0.0490  0.0339
20278W        W36412  15.580   3.597  12.087  0.1495 -0.0966  0.1266
20279W        W36413   4.582  17.967  14.236  0.0947 -0.1234 -0.1132
20280W        W36414  15.438   3.786   2.583 -0.1441  0.0504 -0.0670
20281W        W36415  18.358  11.064  13.109  0.2874  0.0835  0.0730
20282W        W36416   0.447   8.319  14.514  0.4160 -0.3469  0.2006
20283W        W36417   8.209  17.624   4.311 -0.0889 -0.1230  0.2263
20284W        W36418  19.148  17.614   0.806 -0.0156  0.1798  0.2107
20285W        W36419   6.412  11.203   2.367  0.0070  0.1343  0.1579
20286W        W36420   6.912   0.915   1.196 -0.0103  0.0674 -0.2067
20287W        W36421  10.177   9.265   0.835  0.1638 -0.3662 -0.5057
20288W        W36422   8.817   2.426  10.994 -0.2058 -0.1600  0.0741
20289W        W36423  13.594   6.871  10.421  0.2123  0.0669 -0.1617
20290W        W36424   4.573  18.540   3.385  0.1380 -0.0818 -0.0445
20291W        W36425  11.881  12.852   3.598  0.1534 -0.0634 -0.4001
20292W        W36426   1.165   8.413  12.685  0.1600 -0.2965 -0.1225
20293W        W36427  17.649  14.937   5.272  0.0184  0.3421  0.0838
20294W        W36428   6.613  14.056  14.315  0.0919  0.0007 -0.2944
20295W        W36429   7.008  14.058  10.374 -0.2278  0.0241  0.3098
20296W        W36430  12.394   6.215  11.754  0.1728  0.1244  0.0231
20297W        W36431  10.594   0.605  12.610  0.0012  0.3597 -0.1625
20298W        W36432   8.064  10.794   2.533 -0.2038  0.1842 -0.0151
20299W        W36433  13.395   8.427   0.145  0.0311 -0.0195 -0.2023
20300W        W36434   9.592  18.590   5.454  0.5192  0.0582 -0.3478
20301W        W36435   9.591   8.824  10.614  0.0278  0.2868 -0.0928
20302W        W36436   2.468   7.670   2.357 -0.0804  0.0491  0.0671
20303W        W36437  17.485  14.967  10.285 -0.1055 -0.0598  0.3637
20304W        W36438  17.439   3.023  12.399  0.0507  0.4322 -0.2014
20305W        W36439  11.401   0.342   5.573 -0.1433  0.0202  0.0430
20306W        W36440  17.144   0.120  13.365 -0.1275  0.0126  0.2138
20307W        W36441  18.762   4.584   0.618 -0.0813  0.1449 -0.0285
20308W        W36442   7.338  12.925  13.727  0.2528  0.0995 -0.0844
20309W        W36443   2.697  18.722  11.848 -0.2788  0.0614 -0.2823
20310W        W36444   8.216   7.366   4.719  0.0942  0.2606  0.1231
20311W        W36445   6.668   3.411  10.911  0.0448  0.2083 -0.0642
20312W        W36446   3.146  12.511  14.786 -0.1216  0.2305  0.0550
20313W        W36447   9.357   3.116   4.236 -0.2367  0.4080  0.0636
20314W        W36448   4.468  10.560   4.155  0.0781  0.0429 -0.2140
20315W        W36449  12.006  18.396   0.928  0.1127 -0.0807 -0.3498
20316W        W36450  18.454  13.902  13.387 -0.1825 -0.1328  0.0006
20317W        W36451   4.279  15.102   5.251 -0.0935  0.3176  0.1062
20318W        W36452  19.270  18.778  11.478 -0.0614 -0.1823  0.1882
20319W        W36453   4.722  14.135   4.071 -0.0439  0.0696  0.1382
20320W        W36454  13.637  13.782  11.942 -0.0813 -0.2419 -0.2758
20321W        W36455  16.012  15.821   3.513 -0.2243  0.2421  0.3512
20322W        W36456  13.341  18.438   2.383 -0.1111 -0.0472 -0.1072
20323W        W36457   2.988  17.954   3.087 -0.1131 -0.1447  0.0747
20324W        W36458   5.118  16.147  12.775  0.1971 -0.0485  0.2124
20325W        W36459  13.411   4.631  14.719 -0.3704 -0.1573 -0.0458
20326W        W36460  17.720   1.323   2.598 -0.1200  0.2224 -0.0221
20327W        W36461  13.064   1.802  11.225 -0.0679 -0.0156  0.5441
20328W        W36462   4.143  13.421   2.464  0.1092 -0.1494 -0.0332
20329W        W36463   8.313   6.033  13.556  0.0122 -0.2513  0.1294
20330W        W36464   0.207  13.532   5.527  0.1642 -0.2247 -0.1503
20331W        W36465   5.863  13.194  13.673 -0.1385 -0.3464 -0.0210
20332W        W36466   9.901   7.553   3.959  0.3037 -0.0781 -0.0835
20333W        W36467  15.868   2.764   4.886 -0.1455  0.0553 -0.2697
20334W        W36468  10.875   9.033  13.305  0.0516  0.1669 -0.1852
20335W        W36469  14.228  17.703   2.661 -0.2228 -0.0508 -0.1406
20336W        W36470   4.434  18.930  12.134  0.1479 -0.1568  0.1361
20337W        W36471  17.383  10.226   2.711  0.0921  0.2445 -0.1673
20338W        W36472   8.408   4.135   3.835  0.2789 -0.1015  0.2604
20339W        W36473  15.327  17.047  12.609  0.2028 -0.0919  0.1025
20340W        W36474  17.316   9.213   3.996  0.2228  0.1744  0.1827
20341W        W36475  14.780  14.866   0.468 -0.0598 -0.1709  0.1598
20342W        W36476   8.545   9.511   4.793  0.0709  0.3404 -0.1986
20343W        W36477  17.962  13.029   5.993 -0.2287  0.0141  0.0337
20344W        W36478  16.825   2.644   2.926 -0.2287  0.1231 -0.0704
20345W        W36479  17.899   5.820  12.935  0.1898 -0.0002  0.0219
20346W        W36480   4.517  16.459  10.799 -0.0623 -0.2413  0.1068
20347W        W36481   9.932  19.210   1.720 -0.2053 -0.0708  0.2952
20348W        W36482  13.636   0.650   3.868  0.2134  0.2139 -0.1771
20349W        W36483   8.945  11.364   0.469 -0.1426  0.0660  0.1055
20350W        W36484  12.531  17.418  14.170  0.0551 -0.1696  0.3142
20351W        W36485   5.862  10.889  11.366  0.0306  0.0006 -0.0963
20352W        W36486  13.395  17.241   3.983 -0.0379  0.0263 -0.1818
20353W        W36487   3.036  10.893  14.248 -0.1432 -0.1530 -0.1725
20354W        W36488   7.000   5.627  14.511  0.2253  0.1602  0.0928
20355W        W36489  16.189   9.839   3.446  0.1342 -0.0016  0.0208
20356W        W36490  14.603   9.871   3.532 -0.4033 -0.1012 -0.0464
20357W        W36491   7.877   3.150   1.138  0.0057 -0.0325 -0.1178
20358W        W36492   4.781  11.591  11.322 -0.0457 -0.3389 -0.1870
20359W        W36493  19.144   2.597  11.988  0.0774  0.0727 -0.0190
20360W        W36494  17.729  10.441  12.675  0.2000 -0.0523 -0.0500
20361W        W36495   5.393  13.326   3.507  0.0501 -0.1888  0.1573
20362W        W36496   5.412  10.657  12.613  0.1355 -0.1445  0.1109
20363W        W36497   5.703  17.175   3.132  0.3483  0.0175 -0.0985
20364W        W36498  14.526  13.321  11.666  0.0118 -0.2072  0.1328
20365W        W36499  17.532  17.919  14.025 -0.1625  0.1166 -0.2972
20366W        W36500  16.882  11.133   0.542 -0.1089  0.0256 -0.0206
20367W        W36501   9.140  13.126   2.145 -0.1908  0.0704 -0.0916
20368W        W36502  14.914  15.470   5.337 -0.2735 -0.0699 -0.1937
20369W        W36503  13.231   0.782  10.532  0.4839 -0.0467  0.2010
20370W        W36504   1.967  10.520   9.938 -0.1388 -0.1266 -0.0499
20371W        W36505   8.916   2.143   4.535  0.0921 -0.1911  0.1087
20372W        W36506  14.942   8.216  10.534 -0.2925  0.0738  0.4586
20373W        W36507   9.505   8.267   3.625 -0.0337 -0.1645  0.2794
20374W        W36508   3.081   3.998   3.435 -0.1283 -0.2406 -0.0796
20375W        W36509  18.423  10.143   2.602 -0.0848  0.3280  0.1636
20376W        W36510  15.571   9.564  12.718  0.1081  0.1813 -0.0229
20377W        W36511   8.997  13.658   5.671  0.3043  0.0364 -0.0988
20378W        W36512   9.907  17.976  14.384  0.1993 -0.1388  0.1972
20379W        W36513   1.023   2.780   4.546  0.2283  0.0728 -0.0794
20380W        W36514  10.314  19.004   2.020 -0.3493 -0.0258  0.0599
20381W        W36515   8.485   0.017  11.751  0.0292 -0.1947 -0.0780
20382W        W36516  16.604   2.867  14.942 -0.0835  0.1603  0.0760
20383W        W36517   7.530  17.218   9.339  0.0539 -0.3157  0.1365
20384W        W36518  17.153  19.004  11.914 -0.3246 -0.0013  0.0700
20385W        W36519  12.908   7.102   4.002 -0.1932  0.1883  0.3577
20386W        W36520   9.991  15.981  10.842  0.1739 -0.0839 -0.0707
20387W        W36521  16.460  17.557   5.165  0.0316 -0.0542  0.1198
20388W        W36522  10.122   2.625   4.702  0.1689  0.1546 -0.2813
20389W        W36523  17.086   3.996  12.847 -0.1088 -0.1501  0.0821
20390W        W36524   4.362   0.655  13.635  0.1075  0.1692 -0.1589
20391W        W36525   8.070   7.306  12.137 -0.1048 -0.2376 -0.0775
20392W        W36526  18.687   0.386   4.391 -0.2119 -0.2419 -0.0299
20393W        W36527   0.636   6.969   3.824 -0.0985 -0.2546 -0.1829
20394W        W36528   5.320   7.603  10.830 -0.1360 -0.0350 -0.1630
20395W        W36529  15.939   6.861  14.594  0.0578 -0.3009 -0.1952
20396W        W36530   7.495   7.201  11.261 -0.3044  0.0082  0.0804
20397W        W36531  10.021   5.452   4.303 -0.1054  0.0845  0.4206
20398W        W36532   6.981   9.753  12.987  0.0097 -0.1467 -0.0059
20399W        W36533   8.054   9.399  12.220 -0.2089 -0.2044 -0.1404
20400W        W36534  14.593  13.488   1.660 -0.0070  0.2966  0.2281
20401W        W36535  14.811   5.220   1.373  0.1860  0.2319  0.0579
20402W        W36536  13.613   0.997   0.498  0.1418  0.0032 -0.0184
20403W        W36537   2.194  15.527   0.803  0.3092  0.2034  0.4867
20404W        W36538  12.772  11.363   9.290 -0.1004 -0.0390  0.0991
20405W        W36539   6.872  15.442  11.327 -0.0630 -0.2867  0.0255
20406W        W36540  10.803   7.342   4.012 -0.0489 -0.0842 -0.2846
20407W        W36541  12.148  10.716   3.186 -0.0425 -0.0647 -0.0190
20408W        W36542   7.859  17.574   3.441  0.0738  0.0950  0.1395
20409W        W36543   0.535   9.268   2.152 -0.0041  0.1306 -0.1376
20410W        W36544   9.446   3.356   1.178 -0.4398 -0.1113  0.3203
20411W        W36545   3.800   9.266  11.477 -0.0239  0.0001 -0.0194
20412W        W36546  10.157  16.527   2.664 -0.0192 -0.1691 -0.0605
20413W        W36547   3.849  15.728   2.117 -0.1317  0.0885 -0.0656
20414W        W36548   6.929  13.781   1.921 -0.0521  0.1725 -0.1153
20415W        W36549   4.551   7.912   1.023  0.2122 -0.1148 -0.2909
20416W        W36550   4.297  12.806  12.182  0.0131  0.0188  0.1314
20417W        W36551   8.636  10.080  14.291  0.1139  0.0687  0.2043
20418W        W36552  11.153   1.120   1.346  0.2023  0.2457 -0.0556
20419W        W36553  14.539  14.169   0.331 -0.0340 -0.1301 -0.1141
20420W        W36554  15.081  12.253  13.741  0.2658  0.1920  0.0413
20421W        W36555   2.451  17.463  13.931  0.2167  0.2861 -0.1309
20422W        W36556  10.604   6.299   0.152  0.1543  0.0459  0.1096
20423W        W36557   1.931  11.783  12.361  0.0409 -0.1201  0.0427
20424W        W36558   9.165  10.665   3.047  0.1998  0.2058 -0.0587
20425W        W36559  15.859   2.741  12.545 -0.2947  0.0294 -0.0556
20426W        W36560  18.350   9.763  11.363 -0.0546 -0.1288  0.2081
20427W        W36561  17.013  10.632  13.894 -0.3542 -0.0150  0.0612
20428W        W36562  15.045  16.436  10.498  0.2153 -0.0329  0.3109
20429W        W36563  16.301   2.771   1.194 -0.3297 -0.2978  0.1938
20430W        W36564  13.266   5.333   4.172  0.1456  0.0056 -0.0490
20431W        W36565  15.488   5.015   2.703  0.0223 -0.2056  0.0249
20432W        W36566   0.550   7.871   0.644 -0.1709  0.0924 -0.0870
20433W        W36567  15.288   2.223   1.403  0.0312 -0.0077 -0.3834
20434W        W36568   5.733  15.435  12.783  0.2340 -0.1533  0.1074
20435W        W36569   3.464  17.205  13.019 -0.0808 -0.0648  0.0102
20436W        W36570  13.552  12.874  12.420  0.3214 -0.0443 -0.1246
20437W        W36571   1.112   4.104  10.160 -0.2282  0.3179  0.1144
20438W        W36572   2.185   8.691   4.920 -0.0788  0.1390 -0.1499
20439W        W36573   3.191  17.367   0.798  0.0455 -0.0596  0.0529
20440W        W36574   0.199   8.299   4.111  0.0449 -0.0747 -0.1238
20441W        W36575  19.186   1.678  13.625 -0.1828 -0.3050  0.0383
20442W        W36576   8.311  17.199   4.531  0.3431  0.1455  0.2241
20443W        W36577  18.636   3.917   2.688  0.0041 -0.0839 -0.0306
20444W        W36578  16.124   4.346  11.801  0.1481 -0.2320  0.3239
20445W        W36579   4.416  15.640   5.071 -0.1022 -0.1879  0.2382
20446W        W36580  16.372  13.429  13.705  0.2077  0.1574 -0.0224
20447W        W36581  17.798   9.556  14.177  0.0066  0.1604  0.0391
20448W        W36582  12.639   9.979  14.724 -0.0301 -0.0506  0.0713
20449W        W36583   6.550   0.544   3.070  0.0834  0.4850  0.0936
20450W        W36584   2.905   2.603   2.178 -0.0144  0.0783 -0.1621
20451W        W36585  10.261   6.667  13.870  0.3430 -0.1462 -0.3515
20452W        W36586  15.300  10.289  11.004 -0.2390 -0.1276 -0.0653
20453W        W36587   5.982   8.523   4.389 -0.2370  0.0566  0.0646
20454W        W36588  16.236   6.537   0.019  0.4611 -0.2638  0.0571
20455W        W36589  17.703   2.510   2.309 -0.1892  0.1234 -0.0819
20456W        W36590   5.253  11.133  14.498  0.1138 -0.1646  0.1707
20457W        W36591  18.279  11.416   0.155  0.0798 -0.1678  0.3008
20458W        W36592  18.850   6.819   3.403  0.1194 -0.2325  0.2108
20459W        W36593   8.264  12.759  11.428 -0.1150 -0.0230  0.2151
20460W        W36594  15.186  15.846   5.279 -0.1723  0.1725 -0.1545
20461W        W36595   0.580  19.004   2.217 -0.2479  0.1426 -0.1760
20462W        W36596   1.959  16.742  13.426  0.0523 -0.0386  0.1508
20463W        W36597   7.419  15.832  14.279  0.0876  0.0779 -0.1479
20464W        W36598   1.440  18.770   9.104 -0.3480 -0.0995 -0.2049
20465W        W36599   8.921  11.302   9.923 -0.1879  0.3685  0.2035
20466W        W36600   9.583   7.697  14.787 -0.0582  0.0350  0.0232
20467W        W36601   2.724  13.419   2.299 -0.1706 -0.2404  0.1262
20468W        W36602  17.379  19.257  11.235 -0.3242  0.1768  0.0654
20469W        W36603   3.522  14.567   0.664 -0.1330 -0.0552 -0.2993
20470W        W36604   1.109  16.691   3.580  0.0855  0.0511 -0.0439
20471W        W36605   8.649  13.165   1.349 -0.3193  0.2751  0.2455
20472W        W36606   9.437   0.804   3.003  0.1053  0.2196 -0.0167
20473W        W36607  13.043   2.178   4.826  0.2902 -0.2977 -0.1471
20474W        W36608   6.191  13.170  12.663 -0.2023  0.0313  0.3027
20475W        W36609  13.906  10.133  12.200 -0.0816  0.0818 -0.2325
20476W        W36610  15.230  13.494  11.229  0.4096 -0.0330  0.0614
20477W        W36611  16.412  17.094   2.247  0.0507  0.0473 -0.0151
20478W        W36612   1.149  11.569  11.331 -0.0651 -0.0831 -0.0735
20479W        W36613   7.841  10.534   9.968  0.0203 -0.5707  0.1619
20480W        W36614  16.916  11.808  11.307  0.0059 -0.1639  0.1122
20481W        W36615  10.200  16.238  11.238  0.4470  0.0156 -0.1699
20482W        W36616  15.148   6.598  13.288  0.0001  0.2743  0.0177
20483W        W36617  14.836   6.981   3.681 -0.3236 -0.2891 -0.1311
20484W        W36618  14.938   0.744   4.138  0.0924 -0.0524 -0.0586
20485W        W36619  14.129   0.596   2.483 -0.1476 -0.4165  0.1898
20486W        W36620  11.308   4.004   5.010 -0.0750 -0.1637 -0.3385
20487W        W36621   6.114  11.832  14.822  0.1479 -0.1692  0.1443
20488W        W36622  13.349   4.903  11.627  0.1224 -0.0395 -0.1039
20489W        W36623   7.552  16.901   4.215  0.0310  0.1963  0.0897
20490W        W36624   9.026   2.548   3.203  0.0372  0.0359  0.1425
20491W        W36625   3.512   2.086  11.583 -0.1910 -0.0030  0.1364
20492W        W36626  14.723   1.198  14.502 -0.2325  0.0972 -0.1143
20493W        W36627  14.351   0.038  14.887  0.1158  0.0872  0.0599
20494W        W36628  18.298  13.854  11.505 -0.3033 -0.0618 -0.1948
20495W        W36629   5.190   3.855   3.970  0.2250  0.0169  0.2397
20496W        W36630   5.647  14.107  13.918 -0.2221 -0.0748 -0.0077
20497W        W36631   7.980   3.708   4.993  0.1381 -0.0932  0.1903
20498W        W36632   4.292  10.256   3.096  0.2530 -0.0873 -0.0393
20499W        W36633  10.977   1.600  12.964  0.1079 -0.1052 -0.1319
20500W        W36634   3.140   5.666  13.933  0.1273  0.0981 -0.0307
20501W        W36635   1.758  14.754   4.665 -0.1059  0.1082 -0.0275
20502W        W36636  10.066  15.847  14.987 -0.0922 -0.2065 -0.0844
20503W        W36637  13.262   3.081   4.326 -0.1292 -0.3434  0.1180
20504W        W36638  16.434  11.937  13.433 -0.0801 -0.0655 -0.1391
20505W        W36639   9.333  11.284   3.431 -0.1020  0.0842  0.0504
20506W        W36640   3.171  14.341  13.960 -0.0671  0.0524  0.1958
20507W        W36641  18.854   0.111   2.936 -0.2544  0.5139  0.0182
20508W        W36642  18.670   0.984  12.022 -0.1545  0.1120 -0.0793
20509W        W36643  12.044  10.818  13.853 -0.0596  0.0154  0.3141
20510W        W36644   0.638  12.100   2.867 -0.0223  0.0159  0.0834
20511W        W36645   9.420   1.791  12.182  0.3190 -0.2612  0.1537
20512W        W36646   8.545  10.072  12.904  0.0985 -0.3516  0.0113
20513W        W36647   6.379   6.865  14.677  0.0406 -0.0373 -0.4225
20514W        W36648  14.927   2.701   1.469 -0.1452  0.0754  0.1752
20515W        W36649   8.807  10.874  10.834  0.1442 -0.2180 -0.1602
20516W        W36650  12.134  15.566   4.187  0.1283 -0.1891  0.2354
20517W        W36651   1.916  13.215   3.031 -0.0068 -0.1346 -0.3577
20518W        W36652  18.271   4.753   3.967 -0.0201  0.7546 -0.2700
20519W        W36653   4.061  11.801  14.010  0.0178  0.1132  0.1400
20520W        W36654  19.092   4.107   0.795  0.0921 -0.1308  0.1900
20521W        W36655  14.575   3.272  14.035  0.1211 -0.4578 -0.4184
20522W        W36656  14.686  18.582  14.187  0.2938  0.1790  0.1621
20523W        W36657  16.605   7.743   2.742 -0.3256 -0.0074 -0.1673
20524W        W36658   5.226   2.914  12.464 -0.0103 -0.0030 -0.2390
20525W        W36659  12.869   5.640  14.136 -0.0092  0.0667 -0.2133
20526W        W36660  12.719   4.635   4.330  0.0863  0.0180 -0.1225
20527W        W36661  14.222  14.000  13.927  0.4567  0.1084 -0.1859
20528W        W36662  13.843   1.727  14.344  0.1084  0.1804  0.2404
20529W        W36663   0.005  16.443   2.475  0.4808 -0.1516 -0.1987
20530W        W36664   4.963   2.506  10.787  0.0289  0.0433 -0.3009
20531W        W36665   2.122   4.636  14.493  0.1223  0.3669  0.0183
20532W        W36666   2.123   4.551   1.163  0.2714  0.6619  0.3614
20533W        W36667   8.033  12.398  11.748 -0.0554  0.3179  0.2015
20534W        W36668  18.867   3.791  13.762  0.1385  0.2359  0.1647
20535W        W36669   1.199   2.749  11.610 -0.1198  0.1312  0.0607
20536W        W36670   2.438  15.777   2.870  0.3275 -0.2815  0.0844
20537W        W36671   5.967  15.324   2.013 -0.0299 -0.1382 -0.2280
20538W        W36672  11.749  16.263   2.905 -0.4849  0.2042 -0.1284
20539W        W36673  15.714  13.593  11.118  0.1685  0.0038 -0.0683
20540W        W36674  15.567  12.795   5.620 -0.2122 -0.1543 -0.2677
20541W        W36675   2.122  16.838  12.340  0.0317 -0.1759 -0.0146
20542W        W36676  11.967  15.474  14.748  0.3998 -0.2317 -0.1963
20543W        W36677   0.409  15.350   2.687 -0.0075 -0.2192  0.0794
20544W        W36678   0.449  18.519  13.549  0.0329 -0.1441 -0.0223
20545W        W36679   2.171   6.279  14.116 -0.2975  0.0077 -0.0616
20546W        W36680  14.816   0.458  14.466  0.4303 -0.1362 -0.3049
20547W        W36681   7.134  17.180   2.851  0.0375 -0.0207  0.2298
20548W        W36682  12.484   1.320  13.215  0.1269 -0.1500 -0.4067
20549W        W36683   1.403  11.564  13.055 -0.1391 -0.2740 -0.0171
20550W        W36684   9.287  10.341  13.741  0.2974  0.2096 -0.0845
20551W        W36685  11.522   6.656   3.070  0.1181  0.3635 -0.0795
20552W        W36686   7.669   9.388   1.884 -0.1902 -0.2959  0.0014
20553W        W36687   9.177   0.778   4.193  0.1744 -0.0273  0.0440
20554W        W36688   8.148  16.551   3.332  0.1085  0.1558  0.1084
20555W        W36689   0.656  16.937   1.431 -0.1582 -0.0244  0.2545
20556W        W36690  12.048  15.820   0.954  0.3104  0.0419 -0.0881
20557W        W36691  17.891  11.712  11.235 -0.2252  0.4058  0.0271
20558W        W36692  15.562  15.789   4.356  0.0724 -0.0894  0.1736
20559W        W36693   7.552   3.952  10.331 -0.0778 -0.0225  0.1704
20560W        W36694   9.623   9.529  10.426  0.2011 -0.0882  0.0422
20561W        W36695  14.732   0.398  14.986 -0.2468 -0.0095 -0.1199
20562W        W36696   7.445  12.742   3.131  0.0546 -0.0000  0.2427
20563W        W36697   6.291  16.277  12.293  0.0230 -0.5065 -0.0335
20564W        W36698  15.670  12.708  12.005  0.0259 -0.0046 -0.0684
20565W        W36699   4.615   6.743   3.136  0.0667  0.0633  0.0240
20566W        W36700  12.066  17.581   2.030 -0.1528 -0.2464 -0.1222
20567W        W36701  10.986  11.355  11.989 -0.0045 -0.0777 -0.0124
20568W        W36702   5.036   6.272   5.001 -0.5265  0.1660 -0.0108
20569W        W36703   4.926  13.403   0.210 -0.0401 -0.0763  0.2352
20570W        W36704   3.871   2.893   0.957 -0.0034 -0.0107  0.1237
20571W        W36705   7.134  11.106  13.863  0.3975  0.0083  0.0316
20572W        W36706   9.943   5.913   1.454 -0.1700  0.0897  0.0086
20573W        W36707   8.951   3.329   0.977  0.1058 -0.0584  0.2782
20574W        W36708   8.665   4.131   4.274 -0.2787  0.0529  0.0581
20575W        W36709   3.515  11.335   0.897 -0.1291  0.1349 -0.0654
20576W        W36710   7.783  17.312  10.910  0.1924  0.4114  0.0376
20577W        W36711  18.335   2.003   3.714 -0.0299  0.2944 -0.0841
20578W        W36712   1.221  16.491  11.760  0.2202  0.1281  0.1070
20579W        W36713  14.095   7.408   0.941  0.2736 -0.2473  0.1204
20580W        W36714  17.211  11.577   0.248  0.0557 -0.0719 -0.2251
20581W        W36715   0.595  11.165   1.328  0.1845 -0.3632 -0.1169
20582W        W36716   3.141  14.961  12.687  0.1487  0.3074 -0.1484
20583W        W36717  16.198   2.589  11.476  0.1585  0.0627 -0.3252
20584W        W36718   1.544   3.682   4.426 -0.1727  0.0828  0.1569
20585W        W36719   8.012   1.130  14.801  0.0126 -0.0171 -0.1954
20586W        W36720   5.598   5.534   4.329 -0.1991  0.2069 -0.3870
20587W        W36721  19.186  12.585  11.550 -0.1687  0.2589 -0.1327
20588W        W36722   5.317  15.779  13.532  0.1668  0.1982 -0.1447
20589W        W36723  12.759  10.778   2.725 -0.2020  0.3496  0.1735
20590W        W36724  10.725   7.191   5.041  0.1409 -0.0735  0.5183
20591W        W36725  18.034  17.477  12.920  0.3057 -0.1316  0.4255
20592W        W36726   0.269   7.043   0.857 -0.1432 -0.1096 -0.1337
20593W        W36727   7.451   2.013   2.013 -0.1240 -0.0582  0.1870
20594W        W36728  17.031   8.347  11.352  0.4271 -0.2410 -0.0958
20595W        W36729   4.028  15.366   1.697 -0.1190 -0.0316  0.0662
20596W        W36730  15.929  12.931   3.162 -0.0192  0.3547 -0.0243
20597W        W36731  19.071  11.286  10.446 -0.0948  0.0928  0.2064
20598W        W36732  14.964   4.744   0.027 -0.1870  0.0824 -0.1543
20599W        W36733   5.811   3.420  13.471 -0.2958  0.1706 -0.2379
20600W        W36734   3.619   4.994  10.700  0.0272 -0.0634 -0.0322
20601W        W36735   4.238  12.961   3.573  0.0524 -0.0571 -0.2713
20602W        W36736   5.957  10.488  13.475 -0.3569  0.0503  0.2471
20603W        W36737  12.850   3.855  12.096 -0.0217  0.0654 -0.0689
20604W        W36738   8.827  19.243   3.140  0.0809 -0.3228 -0.2975
20605W        W36739  16.155   7.801  12.237  0.0361 -0.0364 -0.1726
20606W        W36740   1.504  13.258   2.775 -0.2681  0.0478 -0.1105
20607W        W36741  14.842  16.373   3.189  0.2291 -0.1722 -0.3062
20608W        W36742   7.412  11.521   0.644 -0.2879 -0.0548  0.1540
20609W        W36743   2.702   2.233   0.619 -0.0077 -0.3896  0.0788
20610W        W36744   1.844  19.175  10.895 -0.0354  0.0302 -0.0886
20611W        W36745   4.034   2.729   3.247 -0.1622 -0.0419  0.0300
20612W        W36746   1.239   4.930   2.580 -0.1310  0.0830 -0.4631
20613W        W36747  16.152  18.615  13.658 -0.3194 -0.0728  0.2910
20614W        W36748  14.311  13.688  11.330  0.0363  0.1675  0.4469
20615W        W36749   9.629  13.665  12.814  0.0490  0.1137 -0.0620
20616W        W36750   5.004   9.226   9.318 -0.0778 -0.0347 -0.2459
20617W        W36751  11.750   7.063  12.848  0.1348 -0.0310 -0.5524
20618W        W36752   8.290  18.957   5.141  0.1395  0.0615 -0.1168
20619W        W36753  10.480   7.198  11.603  0.1298 -0.2207  0.1334
20620W        W36754   1.557  17.112   0.772 -0.4192 -0.1732 -0.0729
20621W        W36755   0.458   8.784  13.357  0.1868 -0.2174 -0.0345
20622W        W36756  13.686  18.142  13.197 -0.1608  0.3257 -0.3939
20623W        W36757  11.814   8.364   5.345  0.0438  0.1560 -0.6208
20624W        W36758   6.862  12.105   4.375 -0.0284  0.2883 -0.2459
20625W        W36759  16.874  10.522   9.560 -0.2262 -0.1622 -0.1797
20626W        W36760  10.266   2.666  10.462  0.0244  0.2911 -0.1731
20627W        W36761  11.473   9.337   5.476  0.2376  0.0096  0.1058
20628W        W36762  13.990   2.255   5.231 -0.0200 -0.0113  0.4184
20629W        W36763  15.721   8.341  12.470  0.0409 -0.3190 -0.0413
20630W        W36764  13.598  18.897  14.458  0.0434 -0.3964  0.2297
20631W        W36765   5.965  15.171  14.560  0.2496  0.1691  0.2500
20632W        W36766  12.551  17.355   3.488  0.1224  0.0823  0.1249
20633W        W36767   2.709  16.677   4.248  0.2411  0.3164 -0.0806
20634W        W36768   0.879   5.561  12.746 -0.2439  0.0858 -0.1720
20635W        W36769  11.280   2.851  13.431 -0.0519 -0.0084  0.1655
20636W        W36770  16.847  12.726   0.492 -0.0006  0.0520  0.4371
20637W        W36771  19.070  14.610  11.313  0.4780  0.1195  0.0071
20638W        W36772  15.243   1.008  14.761 -0.0919 -0.2171  0.2848
20639W        W36773   5.204  15.525  11.568  0.2044 -0.3434  0.0755
20640W        W36774  14.103   3.911   0.360  0.0305  0.1520  0.4635
20641W        W36775  17.026   6.473   3.307  0.6478  0.1842  0.0328
20642W        W36776   4.062  12.068   0.103 -0.2919  0.2271  0.1245
20643W        W36777  13.599   9.602  10.664  0.1723  0.0941 -0.2673
20644W        W36778  17.269  15.973   1.882 -0.0478  0.2428  0.4987
20645W        W36779  16.030   4.318   3.203 -0.2957 -0.0092 -0.0641
20646W        W36780  18.463   3.043  11.485  0.0394 -0.2254 -0.0072
20647W        W36781  17.784   4.327   2.096  0.1684 -0.1085 -0.1469
20648W        W36782  11.616  13.737   1.599 -0.1479  0.2403 -0.1862
20649W        W36783  18.841   4.948  12.921  0.2737  0.0774 -0.3575
20650W        W36784  10.894   2.502  12.836  0.0357  0.1525  0.1922
20651W        W36785  18.481   5.297   3.847  0.0715  0.0541 -0.0551
20652W        W36786   1.524  19.296  10.011  0.2352 -0.1101 -0.0164
20653W        W36787  12.483  16.819  12.199 -0.0983 -0.0213 -0.0862
20654W        W36788  18.528   7.665  13.172  0.0435 -0.1103  0.0970
20655W        W36789  12.131   5.063  14.657  0.1088  0.0318 -0.0692
20656W        W36790   0.751  15.824  11.070 -0.1492  0.2404 -0.2101
20657W        W36791  19.316  13.506   4.654  0.3018  0.0648 -0.0821
20658W        W36792   3.572  12.645   1.881  0.0606 -0.1230 -0.5205
20659W        W36793   4.288   9.055  10.591  0.0394  0.0807  0.0355
20660W        W36794   2.583  17.320   4.763  0.3392 -0.1190 -0.0358
20661W        W36795  18.994  15.713   1.126 -0.4624 -0.0375  0.3609
20662W        W36796   9.917   3.590   1.950 -0.2261 -0.3113  0.0340
20663W        W36797   4.254   9.044   4.048 -0.2347 -0.0641 -0.0046
20664W        W36798  14.497   2.318  13.719 -0.1884 -0.1368 -0.2210
20665W        W36799  16.672  18.819   4.290 -0.4113  0.0055  0.0575
20666W        W36800  10.976  16.532   2.348  0.1787 -0.4654 -0.2314
20667W        W36801   4.313  18.672   4.858  0.2220 -0.1732 -0.0299
20668W        W36802  11.598  11.947   1.994  0.0819  0.4321 -0.2126
20669W        W36803   1.955  12.566  11.647 -0.0721 -0.0105  0.5493
20670W        W36804  17.058   4.101   0.606  0.1164 -0.2699  0.1390
20671W        W36805  16.721   0.143  11.128 -0.0448 -0.1838  0.0814
20672W        W36806   1.197  10.703  13.325 -0.0199  0.6321 -0.0581
20673W        W36807   7.348   0.728  14.752 -0.0403 -0.1285  0.1422
20674W        W36808   3.684  17.062   1.002 -0.1221  0.0331  0.1211
20675W        W36809  14.850   0.786  11.227 -0.1580  0.0427  0.1101
20676W        W36810   2.524   2.748  14.876 -0.1268 -0.2648  0.1854
20677W        W36811   5.737  11.752   0.222 -0.0776  0.3647  0.2618
20678W        W36812  18.117  19.204  13.159 -0.0391  0.0669  0.0060
20679W        W36813   3.882  16.592   3.080  0.3771  0.0261  0.0746
20680W        W36814  12.139  16.538   1.005 -0.1571 -0.2852 -0.2475
20681W        W36815  14.009   2.550   0.559  0.0573 -0.1756 -0.1794
20682W        W36816  15.804  15.698   3.077  0.2375 -0.0107  0.2374
20683W        W36817   2.584   8.956  11.434 -0.2723  0.2495 -0.4894
20684W        W36818  11.474   9.712  10.994 -0.0454 -0.1736  0.0537
20685W        W36819   2.031  13.200  13.885 -0.2181 -0.2086  0.0319
20686W        W36820   2.315  12.890   4.368 -0.0655  0.0866 -0.0816
20687W        W36821   0.986  11.669  14.875 -0.0577  0.1911 -0.1930
20688W        W36822   6.636  10.136  12.781  0.0517 -0.3371  0.1800
20689W        W36823  13.578   1.012   3.595 -0.0953 -0.2831  0.2449
20690W        W36824   0.678  11.174  13.588  0.1082  0.0437  0.1714
20691W        W36825   2.808  18.813  12.376  0.0015  0.1517 -0.0313
20692W        W36826   8.062   0.911  11.613 -0.4009 -0.1657  0.2050
20693W        W36827  10.269  13.882   1.071  0.1848  0.0474  0.0334
20694W        W36828   9.403  16.334  13.923  0.1169  0.0183 -0.0115
20695W        W36829   3.781  11.639  14.436 -0.1892  0.0904 -0.0580
20696W        W36830  19.267   1.846  10.984  0.0420  0.0074 -0.0765
20697W        W36831   4.890   2.267   2.814  0.2669 -0.0248 -0.1048
20698W        W36832  13.792   7.728  13.942  0.1344  0.0057 -0.0287
20699W        W36833  16.779  19.012   0.439 -0.0047 -0.0365  0.0137
20700W        W36834   0.855  11.936   0.260  0.0423 -0.0789  0.1208
20701W        W36835  11.595   6.673   2.023  0.1763 -0.1030  0.0472
20702W        W36836   1.253  12.745  11.347 -0.1122 -0.0133  0.0751
20703W        W36837  17.622   8.310  12.586 -0.0103 -0.2467 -0.2011
20704W        W36838   5.069   4.907   0.030  0.3420  0.0924 -0.1260
20705W        W36839  14.294  10.196  14.355  0.2538 -0.0178  0.2135
20706W        W36840  17.342   5.553   2.326  0.1994 -0.1503  0.0088
20707W        W36841  12.842   4.584  12.433 -0.2550 -0.2121  0.0551
20708W        W36842  11.972  11.563   4.076  0.4636 -0.0217 -0.2215
20709W        W36843   5.383  16.013  14.996  0.1040  0.3256 -0.0445
20710W        W36844   8.598   9.381   0.855 -0.0367 -0.1585  0.1282
20711W        W36845  17.911  12.432   5.669 -0.0396 -0.1637 -0.0100
20712W        W36846  17.031   0.833  11.003  0.1948 -0.1587  0.0730
20713W        W36847  10.526  12.493   0.940 -0.2104 -0.2227 -0.1111
20714W        W36848   0.666   5.411   1.805  0.0296  0.0529  0.4536
20715W        W36849   1.516  16.933  11.799 -0.0967 -0.2937 -0.1791
20716W        W36850  12.614  12.257  14.919 -0.3437 -0.2465 -0.1796
20717W        W36851   1.081  15.750   0.932 -0.1822 -0.2198 -0.1499
20718W        W36852   5.951  14.722   0.150 -0.1497 -0.0179  0.2811
20719W        W36853  17.455   3.794   4.296  0.0130  0.2837  0.0607
20720W        W36854   6.479  17.526   4.464  0.1128  0.2234 -0.3669
20721W        W36855  13.163  16.383   0.833 -0.0826  0.1221 -0.2006
20722W        W36856  16.889  10.661  10.444 -0.1021 -0.2135 -0.1758
20723W        W36857   0.595  19.153  12.956  0.1050  0.0521  0.0704
20724W        W36858  18.558   8.808  12.643  0.0021  0.1745 -0.1967
20725W        W36859   6.431   9.024   3.989 -0.1015  0.4502  0.1848
20726W        W36860   6.889  18.310   4.794 -0.1541  0.0098 -0.3133
20727W        W36861  16.957  16.416  10.945  0.1376  0.0933 -0.2594
20728W        W36862  11.449  14.095   5.589 -0.1936  0.1983 -0.2648
20729W        W36863  17.881   4.841  13.017  0.2948  0.0494 -0.2107
20730W        W36864  14.842   7.031  12.854 -0.0935 -0.0482 -0.0014
20731W        W36865   4.777   4.407   2.782 -0.2489 -0.2365  0.2732
20732W        W36866  14.765   7.842   2.131  0.1498 -0.2128  0.0183
20733W        W36867  16.313   6.273   4.809  0.1335  0.2112  0.0068
20734W        W36868  16.330   6.298   1.360  0.3683  0.1358 -0.3093
20735W        W36869   0.616  17.428  11.726  0.0342  0.5791 -0.0887
20736W        W36870   2.916  10.656   1.338  0.2073  0.3910 -0.0941
20737W        W36871   5.189   2.794   4.346  0.3540 -0.0208  0.1018
20738W        W36872  17.489   5.175   2.040  0.3970 -0.0162 -0.2081
20739W        W36873   8.194  18.458   4.840 -0.1450 -0.3096 -0.2886
20740W        W36874   1.149   1.864  11.395 -0.0845 -0.1663  0.0176
20741W        W36875  12.664  14.869   4.572  0.0949  0.3035  0.3090
20742W        W36876  11.366   0.045  12.122  0.1406 -0.0779 -0.0869
20743W        W36877   4.093   1.218   1.314 -0.2673  0.1273  0.3177
20744W        W36878   7.799   1.481  13.379 -0.3225  0.1683  0.3451
20745W        W36879   8.730   2.483  13.277 -0.2983  0.1839 -0.0154
20746W        W36880  12.690  10.612   4.138  0.0571 -0.3564  0.0213
20747W        W36881   8.593   7.606   0.504  0.1281  0.0691 -0.2383
20748W        W36882  12.715   9.217   0.986 -0.0348  0.2464 -0.0441
20749W        W36883  11.582  13.076  11.881 -0.0757 -0.1615 -0.1947
20750W        W36884   8.510   4.553   4.084  0.0095  0.2267  0.4967
20751W        W36885  16.900  18.963   3.366 -0.1744  0.0417 -0.0373
20752W        W36886  16.964   6.746   0.812  0.0834 -0.2268  0.2324
20753W        W36887   4.078  14.576  12.857  0.0506  0.2366  0.1055
20754W        W36888  19.281   9.784   3.367 -0.4704 -0.1382  0.1342
20755W        W36889   2.279  14.727   2.722  0.0444  0.1866 -0.1313
20756W        W36890  13.673  12.908   4.165 -0.4855  0.1144 -0.0121
20757W        W36891   8.053   4.630  14.212  0.0609  0.1627  0.0286
20758W        W36892  12.241  15.333  14.105  0.0047 -0.1459 -0.5694
20759W        W36893  13.450  18.595  13.553 -0.3506 -0.0487  0.0668
20760W        W36894  15.981   9.630   1.009  0.0515 -0.0841 -0.0061
20761W        W36895   4.935  10.278  13.131  0.0832 -0.1482 -0.2254
20762W        W36896  11.073   2.007  13.939 -0.1262  0.1523  0.5277
20763W        W36897   0.176  15.513  13.046 -0.6362  0.2967  0.4444
20764W        W36898  15.396  15.117  12.875 -0.2322 -0.0703  0.1599
20765W        W36899  12.686  18.518   3.105  0.1158 -0.1639  0.0944
20766W        W36900  16.892   1.691  15.008 -0.1468  0.2872  0.1607
20767W        W36901   0.203   7.274  12.614 -0.1858 -0.1060 -0.0380
20768W        W36902   0.569   5.654   4.027  0.2168  0.3757  0.1286
20769W        W36903  10.071   9.023  12.228  0.0291 -0.1171 -0.2058
20770W        W36904  10.457  18.461   3.713 -0.2540 -0.2125 -0.0598
20771W        W36905  14.047  17.865  11.048  0.0204  0.1310  0.0612
20772W        W36906  12.616  14.954  10.157  0.0446 -0.1551 -0.1008
20773W        W36907   1.258  19.010   4.305  0.0434 -0.0532  0.0393
20774W        W36908  13.010  12.959   1.203 -0.0700 -0.1637  0.0573
20775W        W36909   4.026   8.760  14.423  0.2874  0.2327 -0.0268
20776W        W36910   5.460  13.232  14.432 -0.0106 -0.0530  0.1931
20777W        W36911   4.803   5.736   3.797 -0.0575 -0.0265 -0.3153
20778W        W36912   2.469  13.447   3.352 -0.0518 -0.3411 -0.3052
20779W        W36913   6.230   4.388  10.793  0.1777  0.2132  0.0022
20780W        W36914  10.046   0.301   2.011 -0.4209  0.2705 -0.1138
20781W        W36915  19.060   7.392  14.016  0.0936 -0.2524 -0.0456
20782W        W36916  17.785  19.021  12.267  0.1934 -0.2832  0.0509
20783W        W36917  15.678  14.973  10.155  0.1654 -0.1600  0.1765
20784W        W36918   3.113   5.193  11.929 -0.2067  0.1109  0.1803
20785W        W36919  14.261  17.834   3.908 -0.2686 -0.0953 -0.1024
20786W        W36920   9.346  15.517  11.531  0.0166 -0.2888 -0.0623
20787W        W36921  12.616  12.965  13.021 -0.1925 -0.0229  0.1855
20788W        W36922   2.725  18.293  11.560  0.0234 -0.1275  0.1512
20789W        W36923  17.613  15.768  12.587 -0.1253  0.3555  0.0810
20790W        W36924   2.104   5.322  10.412  0.0705 -0.4191 -0.2221
20791W        W36925   4.690   6.429  14.504  0.1341  0.1453  0.3597
20792W        W36926   3.159   8.273  14.343  0.0369  0.0889 -0.6060
20793W        W36927   6.121   1.321  10.732  0.0784  0.0570 -0.0647
20794W        W36928  12.945   0.046   2.995  0.2236 -0.0083 -0.0413
20795W        W36929  13.486  16.697   3.829  0.1793 -0.1489  0.3431
20796W        W36930  12.268  13.581  11.878  0.1498 -0.0562  0.0390
20797W        W36931   9.117  16.658  12.312  0.1292 -0.2141 -0.0424
20798W        W36932   8.645  18.761  11.670  0.3136 -0.0955  0.1524
20799W        W36933  12.528   5.365  13.242  0.1308  0.1414 -0.1130
20800W        W36934   3.852  11.875  13.117 -0.0035 -0.1755 -0.1896
20801W        W36935  16.511  10.621   1.934 -0.0284 -0.0448  0.3108
20802W        W36936   6.275  16.263   1.327 -0.2156 -0.0190 -0.0120
20803W        W36937   5.072  18.871   1.696  0.3428 -0.2725  0.0417
20804W        W36938   7.600   6.496  11.475 -0.0780 -0.0613 -0.0818
20805W        W36939  17.834  17.473   4.181 -0.0707 -0.0826 -0.1122
20806W        W36940  12.930   2.459  14.915  0.2195 -0.0505  0.1472
20807W        W36941   3.886   5.927  11.277 -0.1707 -0.2127  0.0146
20808W        W36942   1.319  16.860   2.120  0.2367  0.2160 -0.3759
20809W        W36943  17.195   2.025   3.681 -0.0431  0.1827  0.2458
20810W        W36944   0.913   1.701  12.442  0.2844 -0.1253  0.1558
20811W        W36945  10.579   0.611  11.822  0.0102 -0.1247 -0.1701
20812W        W36946  19.066   4.246   1.531  0.2528 -0.0682  0.0901
20813W        W36947  18.188   6.276  14.921  0.0537 -0.0354  0.2542
20814W        W36948   7.748  13.892  14.391 -0.0298 -0.1834  0.1236
20815W        W36949   4.245   3.112   2.921 -0.4234  0.1483 -0.1539
20816W        W36950   9.351  14.553  14.148  0.1572 -0.2300  0.0021
20817W        W36951   7.214  14.274   0.689  0.1990 -0.0460  0.1295
20818W        W36952  13.786   0.286  13.754  0.0156  0.0960  0.2561
20819W        W36953   8.496   6.478  13.514 -0.1016 -0.2811  0.0815
20820W        W36954  12.182  15.041   0.804 -0.0411  0.1827  0.1734
20821W        W36955  15.744  18.422   3.510 -0.0382  0.0440  0.0294
20822W        W36956  16.693   1.916   1.278 -0.2059  0.1673  0.1416
20823W        W36957   2.297   2.688  10.873 -0.2972 -0.0625  0.2844
20824W        W36958   3.798  11.400   4.219  0.0851 -0.1411 -0.0725
20825W        W36959  14.701  17.297   1.390  0.0709  0.3675 -0.0082
20826W        W36960  15.667  15.812  13.954  0.2081  0.2315  0.1706
20827W        W36961  16.671   8.765  13.949 -0.0755 -0.0805  0.0887
20828W        W36962  11.115  12.999  12.186  0.1629  0.0610 -0.0287
20829W        W36963   8.550   9.690  13.970  0.1636 -0.1415  0.0442
20830W        W36964  14.122   6.121   1.156 -0.2488 -0.2352  0.0343
20831W        W36965   9.608  11.004  14.386 -0.0394 -0.0052 -0.3480
20832W        W36966   4.033  10.027   0.731  0.0471  0.1606 -0.2225
20833W        W36967  12.131  18.707  13.151 -0.1179 -0.0898  0.0842
20834W        W36968  11.180   3.373  10.200 -0.0552  0.2576  0.1041
20835W        W36969  18.326  14.397  12.954  0.1520 -0.1648 -0.0139
20836W        W36970   4.029   4.250   2.521  0.2359  0.1425 -0.2875
20837W        W36971  11.273   3.154  11.144  0.2354  0.3666 -0.0774
20838W        W36972  17.221   3.046  11.587 -0.1108 -0.0186 -0.0271
20839W        W36973  13.394   4.940  13.722 -0.2553 -0.3405  0.3226
20840W        W36974   8.454   3.485  13.116  0.1658  0.0528  0.3071
20841W        W36975   6.928  10.744  12.201 -0.0174 -0.1766  0.1541
20842W        W36976  10.762   3.187  11.121 -0.1069 -0.1080  0.0737
20843W        W36977   5.403  17.471   0.266  0.0490  0.1154  0.2297
20844W        W36978  18.421   1.401   4.350  0.2613 -0.1737  0.1962
20845W        W36979  16.957   9.651  13.069 -0.0105  0.1759 -0.2840
20846W        W36980   5.981   7.338   0.782 -0.3016  0.1518 -0.0032
20847W        W36981   2.402   9.832  14.545  0.0557 -0.4720 -0.2698
20848W        W36982   7.335  10.640   3.405  0.3732  0.1993 -0.0971
20849W        W36983   2.066   2.200  13.363  0.1782  0.1689 -0.3417
20850W        W36984   9.352  12.938   9.498  0.0870 -0.0101  0.1806
20851W        W36985  13.554  14.702   2.233 -0.0225 -0.0450 -0.2364
20852W        W36986   7.320  17.896   4.173 -0.0397 -0.2545  0.0594
20853W        W36987   3.148  17.887   4.656 -0.2611  0.3529  0.1103
20854W        W36988   4.476   0.883   5.235 -0.0175  0.0344 -0.0499
20855W        W36989   3.583   6.021  12.612  0.0832 -0.2729 -0.2194
20856W        W36990   0.129   9.275   3.341  0.6152  0.0115  0.0879
20857W        W36991  10.696  14.622   3.949  0.0509  0.1898 -0.2395
20858W        W36992   0.082   1.949   3.841 -0.4394 -0.2041 -0.1728
20859W        W36993  12.652   0.831   5.293  0.0961 -0.0834 -0.1109
20860W        W36994   7.066   2.179   1.689 -0.1314 -0.1753 -0.5347
20861W        W36995  17.345   4.924   0.482 -0.2523  0.2170  0.1037
20862W        W36996  18.086   4.033  11.803  0.2882  0.2369 -0.0186
20863W        W36997   3.867  19.032   4.717  0.0804  0.2129  0.2747
20864W        W36998  11.786  17.403  14.841 -0.3154 -0.1955  0.0768
20865W        W36999   3.607   0.194  10.686  0.0678  0.0783 -0.2419
20866W        W37000   1.660  13.751   2.655  0.1786 -0.1151  0.2875
20867W        W37001   8.364   9.453  11.370  0.0711  0.2541 -0.0425
20868W        W37002   0.137   6.037  12.727  0.1662  0.3789  0.1329
20869W        W37003  10.023  15.630   2.806 -0.5365 -0.2768 -0.2311
20870W        W37004  18.649  16.577   1.510 -0.0994  0.2025  0.0487
20871W        W37005   5.457   8.179   0.747  0.0327 -0.2800 -0.0528
20872W        W37006  11.928   4.223  11.546 -0.0110  0.2263 -0.1575
20873W        W37007   9.535  14.583   3.302  0.1187 -0.1299  0.1320
20874W        W37008  15.204   6.246  10.379 -0.0194  0.1826  0.4944
20875W        W37009   0.460  14.208  12.975  0.0413  0.1381 -0.2033
20876W        W37010  13.222  11.961   4.728 -0.3157 -0.1094  0.2928
20877W        W37011  15.272  19.299  10.664  0.3917  0.2895 -0.1431
20878W        W37012   4.003  17.351  10.132  0.0128 -0.2063 -0.1021
20879W        W37013  16.514  10.387   4.328  0.3260  0.0761 -0.3643
20880W        W37014  10.848   4.873  14.602  0.1109 -0.2592  0.1850
20881W        W37015  18.201  11.509   3.311  0.0842  0.0720 -0.0231
20882W        W37016   1.830   0.958  12.856 -0.1350  0.2551 -0.1597
20883W        W37017  15.810  10.498   2.190 -0.3186  0.1170 -0.1311
20884W        W37018  16.033  14.877   0.571  0.1327  0.1607 -0.0840
20885W        W37019   8.236  13.307   1.570 -0.1728 -0.0102 -0.1046
20886W        W37020  12.586   6.503   4.471 -0.3203 -0.1445  0.1761
20887W        W37021  18.529   5.862   1.993  0.0227  0.2663 -0.1491
20888W        W37022  18.483   0.613   1.483  0.0381 -0.0341  0.1977
20889W        W37023   6.234   5.276  11.107  0.1593 -0.3032  0.3871
20890W        W37024   5.495  18.598   1.677  0.0001 -0.1212 -0.1729
20891W        W37025   4.578   5.801  13.734  0.3211 -0.4023 -0.0100
20892W        W37026   6.785   2.793  12.213  0.1650 -0.3564  0.1492
20893W        W37027   7.555   9.452   3.826  0.1097  0.0210 -0.3261
20894W        W37028  18.889   0.579  12.298 -0.0450 -0.0364 -0.0047
20895W        W37029   7.075   3.375  11.854 -0.0029  0.2049  0.0334
20896W        W37030   6.249  10.051   0.337 -0.0745 -0.0241  0.2323
20897W        W37031  17.376   2.049  13.947  0.2379  0.0781  0.0469
20898W        W37032   1.680  12.136  13.042 -0.3731  0.1098 -0.1687
20899W        W37033  10.276   1.472  13.634 -0.0158 -0.2060 -0.0483
20900W        W37034   9.836   5.969  14.697 -0.3981  0.0453  0.1971
20901W        W37035   4.485  17.899  11.848  0.0036  0.1141 -0.1649
20902W        W37036  10.717  18.232  10.823 -0.1751  0.0115 -0.1352
20903W        W37037   8.290   2.915  12.492 -0.1542  0.2640  0.2433
20904W        W37038   8.324  12.975   4.653 -0.1269 -0.1334 -0.3908
20905W        W37039  16.968   6.582   1.354  0.3448 -0.2056  0.1387
20906W        W37040  11.670  15.977   2.396  0.0618 -0.0991  0.1210
20907W        W37041   2.212  17.700   1.402  0.1637 -0.0612 -0.1475
20908W        W37042  13.233  10.150   4.330 -0.1150  0.0109  0.0509
20909W        W37043   7.479   7.881   0.581  0.5184  0.0997 -0.0378
20910W        W37044  15.974   2.198  11.224 -0.0496 -0.0942 -0.1173
20911W        W37045  19.327  14.150  13.721 -0.0618  0.1772 -0.1253
20912W        W37046   6.225   8.735  13.111 -0.1363 -0.1008  0.0350
20913W        W37047  15.392  19.029  14.800 -0.1928 -0.0614 -0.3391
20914W        W37048   6.406  13.131   1.712 -0.1445 -0.2749 -0.0442
20915W        W37049   5.347  11.046   0.394 -0.2166 -0.3518  0.3803
20916W        W37050   7.528  14.460  14.399  0.0337 -0.0636  0.1128
20917W        W37051  13.335  16.642   5.306  0.0784 -0.0975  0.1317
20918W        W37052   8.611   7.508   1.843 -0.2281 -0.1520  0.4043
20919W        W37053  13.176  14.182   3.433  0.0058 -0.2000  0.0550
20920W        W37054   6.419  17.096  10.492 -0.0014  0.1509  0.0749
20921W        W37055   1.946   3.957  14.610 -0.0845 -0.1354  0.1028
20922W        W37056   2.493  10.177   4.596 -0.0939 -0.3336 -0.1373
20923W        W37057  12.478  12.351   5.252  0.0137 -0.0113  0.2200
20924W        W37058   4.590  18.319   2.115 -0.0102 -0.0850 -0.1207
20925W        W37059  18.301   4.771  14.419  0.0503 -0.1080  0.0523
20926W        W37060   4.193   5.259   3.039 -0.2948  0.2047  0.4160
20927W        W37061  16.674  10.430  14.351 -0.4732  0.0422  0.2187
20928W        W37062  16.461   3.946  10.875  0.0198  0.0504 -0.4903
20929W        W37063  15.234   7.853  13.078  0.0892  0.1221  0.1668
20930W        W37064  11.806  17.891  10.925  0.2199 -0.0795 -0.0988
20931W        W37065   7.937   1.950   4.908  0.0659  0.1791 -0.3470
20932W        W37066  15.627  14.333   2.953 -0.2402 -0.4827 -0.2160
20933W        W37067   0.504  17.790   0.202  0.0861  0.0635  0.2319
20934W        W37068  15.230   7.712  14.149 -0.1439  0.0954  0.0203
20935W        W37069   0.359   8.339  11.001 -0.1072  0.0558  0.4583
20936W        W37070  18.203  18.191   0.694 -0.1321  0.0287  0.0288
20937W        W37071   1.560  15.007  13.358  0.1706  0.1337 -0.4330
20938W        W37072  11.267   0.869  14.583  0.2585  0.0500 -0.0224
20939W        W37073   5.408   5.918   3.959  0.2439 -0.0758  0.1845
20940W        W37074  12.592   6.313  14.750 -0.0845  0.0728  0.4031
20941W        W37075   6.924  14.610   3.549 -0.3530  0.1729  0.1209
20942W        W37076   1.010   8.640   5.389  0.1233  0.0389  0.0017
20943W        W37077  11.553   1.716   2.763  0.1545 -0.3476 -0.4038
20944W        W37078   0.885   5.894  14.486 -0.0935  0.4050 -0.1753
20945W        W37079  10.759  10.840  10.586  0.4248  0.2896  0.0452
20946W        W37080  16.632  16.892   2.969 -0.2225  0.2915 -0.3694
20947W        W37081   7.645   5.735   3.727 -0.0679 -0.0464 -0.0555
20948W        W37082   7.696  10.990   3.263  0.2981  0.1886  0.0154
20949W        W37083  10.704   1.526  13.369 -0.0208  0.1637 -0.1674
20950W        W37084   0.003  17.611  11.620 -0.3942  0.2038 -0.2178
20951W        W37085  18.341   8.861   3.054  0.1714 -0.1628  0.0286
20952W        W37086  16.134   2.844   1.682 -0.1474 -0.0124 -0.3939
20953W        W37087   3.844   6.404  11.409 -0.1184 -0.1332  0.1422
20954W        W37088  14.548   3.128  14.497  0.0935 -0.2717 -0.1515
20955W        W37089   6.357  14.665  12.010 -0.5263  0.3373  0.1490
20956W        W37090   3.832   4.765  11.931  0.0389  0.1205  0.0084
20957W        W37091   6.877   9.031   3.228 -0.1406  0.2058  0.4554
20958W        W37092  13.885  17.860   3.075  0.0751  0.2927 -0.2513
20959W        W37093   7.037   0.310   4.757  0.0344 -0.0487 -0.1042
20960W        W37094  10.808  13.169  10.708 -0.3900 -0.0798 -0.1219
20961W        W37095   6.571   0.069  14.593 -0.2146  0.0862  0.1884
20962W        W37096   7.253  11.340  13.448 -0.0691  0.0399  0.0869
20963W        W37097  11.602  12.578  12.388 -0.1075 -0.2988  0.1946
20964W        W37098  14.915  13.550   2.039 -0.1380  0.1143 -0.1678
20965W        W37099  15.631  19.074  10.215  0.1323 -0.3225  0.2337
20966W        W37100  14.467  17.249   1.874 -0.3429 -0.0499  0.1163
20967W        W37101   1.291   7.326   2.546  0.2095 -0.0779  0.0702
20968W        W37102  12.903  12.154   1.675 -0.0880  0.1141  0.1242
20969W        W37103   2.383   1.155  11.640  0.0074 -0.1091 -0.2226
20970W        W37104  17.912  18.530  12.518  0.1209  0.1145  0.1318
20971W        W37105   6.564  12.899   3.884  0.0223  0.0264 -0.2242
20972W        W37106   1.330  19.059   1.057  0.1395  0.0768  0.1549
20973W        W37107  16.657  12.373   0.135  0.1124  0.2397 -0.1407
20974W        W37108   3.714  19.001  14.095 -0.0373 -0.1069  0.0249
20975W        W37109   3.766   9.294   3.893 -0.1780  0.0457 -0.2626
20976W        W37110  10.601  18.196  13.524  0.1466  0.0700 -0.0524
20977W        W37111   1.634  12.421  14.713 -0.0684 -0.0387  0.1651
20978W        W37112  16.876  17.263  12.834  0.0676  0.0189 -0.3015
20979W        W37113   1.757  15.595   3.284  0.1409  0.1618 -0.1076
20980W        W37114   8.286  13.907  14.693  0.0135 -0.0228  0.0307
20981W        W37115   3.065   6.880   3.357  0.0398  0.0062 -0.1954
20982W        W37116  14.214  10.622  13.567  0.3275  0.2093 -0.1217
20983W        W37117  10.606  16.539   4.288 -0.3639  0.2178  0.1459
20984W        W37118   9.359   4.229  13.836 -0.1376  0.2088  0.3776
20985W        W37119  11.876   5.011   3.264 -0.5719 -0.1870  0.0091
20986W        W37120  15.532   9.569  11.844  0.1926  0.0818  0.1281
20987W        W37121   8.307  14.578   3.624  0.2088  0.0947  0.0425
20988W        W37122  15.257   0.648   3.126  0.1737 -0.1390 -0.1160
20989W        W37123  11.180  15.537   3.381  0.0642  0.0956  0.0378
20990W        W37124  14.450  18.004   0.982  0.3181 -0.0070 -0.0842
20991W        W37125  16.670   5.650   1.697 -0.2440  0.0505 -0.0371
20992W        W37126   6.201   8.242   9.581  0.1563  0.0558  0.1699
20993W        W37127  15.659  16.218  12.304 -0.1688  0.3511  0.1188
20994W        W37128   5.257   9.039   1.157  0.0154  0.2000  0.1879
20995W        W37129  16.705   2.189   3.853  0.1580  0.0011  0.2216
20996W        W37130   6.125  14.500   9.943  0.3225  0.3020 -0.1184
20997W        W37131  14.734  11.377  13.116  0.0095  0.0329  0.1466
20998W        W37132   0.441  16.902  12.916  0.0586  0.0536 -0.2890
20999W        W37133  11.836   9.629   1.109 -0.1934  0.0569 -0.2377
21000W        W37134   1.470   4.266   4.540  0.4270  0.4024 -0.0349
21001W        W37135   9.983   7.235   1.119 -0.0714  0.0074 -0.0941
21002W        W37136  17.919  16.672   3.687  0.2010 -0.2013  0.1923
21003W        W37137  12.403  12.724  14.667  0.2424  0.4360  0.1627
21004W        W37138   7.944   6.598  14.609 -0.0820 -0.0306 -0.1481
21005W        W37139  11.633  12.502   3.956 -0.0542 -0.0676 -0.0689
21006W        W37140   8.197  12.204   1.012  0.2079 -0.2400 -0.0370
21007W        W37141   5.807   6.553   3.895  0.1532 -0.2149 -0.1948
21008W        W37142  12.226   7.911   2.053 -0.0055  0.0901  0.1058
21009W        W37143   2.521   6.570  14.306 -0.2635  0.1247 -0.0598
21010W        W37144  11.419  16.796   0.564  0.0318  0.1118 -0.0355
21011W        W37145  16.163   7.306   1.350  0.0779 -0.1723 -0.0340
21012W        W37146   9.958  16.766  12.320  0.2734  0.2746 -0.0650
21013W        W37147   3.098  14.834   4.645 -0.0924 -0.5686 -0.2469
21014W        W37148  13.473   3.881   2.023 -0.1143  0.3271  0.1505
21015W        W37149   7.402  16.320   9.247  0.0427  0.2758 -0.1851
21016W        W37150  16.230   8.313  12.500 -0.0542 -0.1405  0.0239
21017W        W37151   4.887  16.358   4.058  0.2348 -0.2415  0.1269
21018W        W37152   5.624  16.914   1.484  0.0729 -0.0105  0.1087
21019W        W37153   7.142   3.633   1.019  0.0493 -0.1246  0.1193
21020W        W37154   9.899  10.598  11.757  0.0846  0.1565  0.1031
21021W        W37155   7.576  14.629   0.791 -0.1551  0.1903 -0.4123
21022W        W37156  16.488  16.416   2.157  0.0182 -0.1627  0.1725
21023W        W37157  14.087   9.039  12.058 -0.0925  0.3201  0.0453
21024W        W37158   7.358   8.524   1.298  0.1485 -0.0888  0.2769
21025W        W37159   9.104   0.406   6.108 -0.1060 -0.1326 -0.0625
21026W        W37160   6.078   8.771   0.336  0.4178  0.0680 -0.0464
21027W        W37161  15.901  18.910   4.479  0.0600 -0.1656  0.4167
21028W        W37162   9.418   2.592  11.878  0.0349 -0.0599 -0.2186
21029W        W37163  15.020   8.563   4.597  0.1480 -0.2893 -0.1414
21030W        W37164  12.559   7.350   3.683  0.1070 -0.2800  0.0942
21031W        W37165   8.190   5.038  13.903  0.2139  0.2014 -0.0630
21032W        W37166   9.230   2.893   0.895  0.0805 -0.0284  0.2781
21033W        W37167  16.111  10.346  14.601  0.0022 -0.2293 -0.0402
21034W        W37168  13.183   8.293   4.591 -0.0738 -0.7830 -0.1816
21035W        W37169   8.490   3.251   1.200  0.0000  0.3752 -0.2587
21036W        W37170   5.606   8.947  12.161 -0.1844  0.0874  0.2517
21037W        W37171  19.331   4.565   4.351 -0.0589 -0.0454  0.0178
21038W        W37172  16.658   7.282   1.069  0.1969 -0.1237  0.0365
21039W        W37173   4.791   7.412   3.418  0.1064  0.1822  0.1540
21040W        W37174   0.254   7.717   1.285 -0.1177 -0.1249  0.3125
21041W        W37175   1.044  15.439  13.153  0.4079 -0.2053 -0.0934
21042W        W37176  17.875   2.799   2.670 -0.1574  0.0353 -0.1013
21043W        W37177   2.662   7.330  12.616  0.0717 -0.3904  0.0577
21044W        W37178  11.247  18.304  12.171  0.0965  0.0059 -0.1661
21045W        W37179   4.537   7.189  13.973  0.1520 -0.1484  0.0345
21046W        W37180  13.233  17.527  13.637 -0.0627 -0.2518  0.3142
21047W        W37181  11.369  11.392   0.334 -0.2398 -0.3069 -0.1103
21048W        W37182  14.908   5.197  13.277 -0.1463 -0.1745  0.0487
21049W        W37183  16.404   3.737   1.227  0.4903  0.2570  0.1174
21050W        W37184  16.161  17.308  14.962 -0.1845  0.1677  0.1799
21051W        W37185   1.065   5.651   3.811 -0.1982  0.0151 -0.2609
21052W        W37186   5.132   9.386   0.270 -0.2026 -0.0305 -0.0489
21053W        W37187  13.803   2.463   0.056 -0.3372  0.4909 -0.1665
21054W        W37188  11.655  13.257  10.939 -0.2092 -0.0818 -0.3373
21055W        W37189   7.107   7.695   2.599  0.0086 -0.3252 -0.0016
21056W        W37190   6.385  18.611  13.146 -0.1353  0.6665 -0.0049
21057W        W37191  15.236   0.676   0.126 -0.0204 -0.1491 -0.2356
21058W        W37192  17.041  10.628  11.457  0.0616 -0.0934  0.1716
21059W        W37193  10.331   8.302   3.934 -0.2363  0.0614 -0.3536
21060W        W37194   2.110   1.179   4.980 -0.3019  0.1072  0.1832
21061W        W37195  18.787  13.902  12.014 -0.0476  0.1036  0.0350
21062W        W37196  18.457   6.341   2.032 -0.0767  0.0346 -0.1853
21063W        W37197  15.204  11.067  11.685 -0.2946  0.0009 -0.3348
21064W        W37198  13.716  15.405   3.882  0.1553 -0.1277 -0.0609
21065W        W37199   4.326  18.020   3.142  0.0476  0.0138  0.1243
21066W        W37200  14.734   2.405  14.847 -0.0060 -0.1643 -0.1271
21067W        W37201  17.227   3.719  14.083 -0.0795 -0.1231  0.1638
21068W        W37202   2.004  17.289   4.386  0.0582 -0.1259 -0.0819
21069W        W37203   2.914   4.113  13.784 -0.1409  0.4000 -0.0796
21070W        W37204  15.239  12.628  13.425  0.0107 -0.2842  0.1089
21071W        W37205   5.598   7.797   2.842  0.2900  0.1223 -0.1757
21072W        W37206  16.812   4.479   1.730 -0.0936  0.0433 -0.0773
21073W        W37207  14.021  12.304  14.670  0.2303  0.1620  0.1083
21074W        W37208   2.160   9.507   0.777 -0.1213  0.0690  0.0226
21075W        W37209   8.023   2.405   4.691 -0.0511 -0.1932 -0.0529
21076W        W37210  18.909  13.370   4.275 -0.0709  0.0985 -0.2937
21077W        W37211   3.516   0.986  13.416 -0.0796 -0.1207  0.2006
21078W        W37212  12.386  11.934  11.133 -0.1948 -0.0641 -0.0650
21079W        W37213   8.308   9.084   0.547 -0.4833  0.0691  0.0467
21080W        W37214   2.238   0.788   3.329  0.1500  0.0221 -0.0629
21081W        W37215  18.232  15.428   3.169 -0.0185  0.0208  0.2371
21082W        W37216   5.917   3.554   1.883 -0.1785 -0.3754  0.2275
21083W        W37217   3.222   3.399   4.184 -0.2385 -0.0925  0.1704
21084W        W37218  18.663  17.713  10.319  0.6068 -0.1003 -0.0383
21085W        W37219  17.651   4.313  11.788  0.1161  0.3900  0.2243
21086W        W37220   8.452   5.071  14.992  0.3858 -0.2698  0.1749
21087W        W37221  17.851  12.329  11.097 -0.1671 -0.1260  0.2700
21088W        W37222  13.367  13.702  13.618 -0.0985  0.1087  0.2447
21089W        W37223   7.302  18.677  11.831  0.2475 -0.1082  0.1379
21090W        W37224   2.079  18.586   4.729 -0.0353  0.0721  0.2074
21091W        W37225   6.431  16.427  13.289 -0.0275  0.0227 -0.0308
21092W        W37226   0.919  17.963   1.553  0.2266  0.0044  0.1353
21093W        W37227  10.573   6.351  12.885 -0.3248 -0.1740  0.6157
21094W        W37228   2.303   8.741   1.307 -0.0767 -0.3876  0.1303
21095W        W37229  12.035   6.446   2.359 -0.0562  0.1568  0.1678
21096W        W37230  11.920  15.820  11.082  0.3346  0.1097 -0.0328
21097W        W37231   3.287   4.648   4.961  0.3334  0.0389 -0.1477
21098W        W37232  15.262  16.878   2.907  0.0210 -0.2684 -0.0061
21099W        W37233   5.994   3.134   1.384  0.1312  0.1313 -0.2176
21100W        W37234  13.743   1.394  11.934  0.4628  0.2183  0.2421
21101W        W37235   3.758  10.305   1.830  0.1909 -0.1689  0.0726
21102W        W37236  12.371  12.475  11.866 -0.1319  0.1618  0.0188
21103W        W37237   6.664   6.999   5.058 -0.0371 -0.1101 -0.2370
21104W        W37238  14.882   5.719  13.834  0.1044  0.2313  0.0836
21105W        W37239   1.654  13.714  10.337 -0.3819 -0.1057 -0.3598
21106W        W37240  13.873  12.405   2.868 -0.0706  0.4602  0.2347
21107W        W37241   7.618   2.283   0.810  0.2506  0.0126  0.0204
21108W        W37242  18.339   8.786  11.615  0.1379 -0.0466  0.1103
21109W        W37243   0.527   5.853  12.469 -0.0364  0.0402 -0.1913
21110W        W37244   1.265  13.355  12.866  0.1403  0.1324 -0.1354
21111W        W37245   8.451   1.116   5.390  0.1315  0.0516 -0.5880
21112W        W37246   8.486  10.937  11.252 -0.0324  0.3646 -0.1694
21113W        W37247   5.861   2.092   0.299 -0.3230  0.2855  0.1666
21114W        W37248   8.324   3.664   0.249  0.5101  0.0839  0.1514
21115W        W37249  15.132  17.312  10.773 -0.0265  0.1320 -0.0827
21116W        W37250   7.824  10.378   2.277 -0.1951  0.4824 -0.0926
21117W        W37251  18.492  12.565   3.314  0.0618 -0.1138  0.1000
21118W        W37252  12.372  19.187   0.772  0.2390 -0.1869 -0.3697
21119W        W37253  12.056  11.427   3.089  0.0127  0.1995 -0.5232
21120W        W37254  17.143  11.135  10.809  0.1030  0.2720  0.3102
21121W        W37255   7.603  10.822   2.689  0.3379 -0.0617 -0.1376
21122W        W37256  17.477   4.980   4.297  0.1410  0.1015  0.2363
21123W        W37257   4.820   2.466  10.332 -0.1770  0.0270 -0.2772
21124W        W37258  15.366  15.801   2.480  0.0200 -0.1851 -0.1672
21125W        W37259  10.732   1.972  14.957 -0.1090  0.1169  0.1476
21126W        W37260   6.433   0.084  11.284 -0.2181 -0.0349  0.0449
21127W        W37261  13.413  13.311  10.979  0.0192 -0.0310  0.0563
21128W        W37262   0.588   6.633   3.364  0.0593  0.2143  0.1557
21129W        W37263   7.195  16.600  14.122 -0.0896  0.0210  0.3555
21130W        W37264   6.052  18.204   4.111 -0.1373 -0.2180  0.2319
21131W        W37265  12.106  11.185   3.850  0.0054 -0.2053  0.2464
21132W        W37266   9.669  17.561   2.567  0.0298  0.0385  0.2672
21133W        W37267   3.440   9.331   5.279  0.2257 -0.0123  0.1697
21134W        W37268  13.687  19.256  12.561  0.0188  0.4058 -0.1150
21135W        W37269  16.913  18.014   1.445 -0.2720  0.1340 -0.1648
21136W        W37270  18.514   4.910  11.411  0.1650 -0.0781  0.2460
21137W        W37271  13.713  12.254   3.281  0.4180  0.1569 -0.2534
21138W        W37272  11.734  17.125  13.609 -0.3810 -0.1063 -0.0145
21139W        W37273   4.941   9.378  13.627 -0.0342  0.0235 -0.1216
21140W        W37274   1.740  10.992   0.281 -0.2113 -0.0626 -0.0611
21141W        W37275   5.971  11.818   2.772 -0.3061  0.2114 -0.3614
21142W        W37276  15.377   7.499   5.178  0.0323 -0.0386  0.3307
21143W        W37277  19.018  13.550  10.384 -0.1072  0.1454 -0.1167
21144W        W37278  10.056  14.247   2.968  0.0731  0.0372 -0.2608
21145W        W37279  16.000  16.913   2.976  0.0708 -0.0074  0.0131
21146W        W37280   5.596  15.410  14.369  0.1913 -0.1039 -0.3350
21147W        W37281   6.412   6.813  14.091  0.1520  0.2447 -0.0861
21148W        W37282   2.796   1.259   1.261  0.0249  0.2469  0.2129
21149W        W37283  11.798  18.118   0.548 -0.1034 -0.0444  0.2485
21150W        W37284   4.685   6.671   4.367 -0.1885  0.2813 -0.2031
21151W        W37285   7.678  14.777  12.410  0.3395 -0.0661  0.1921
21152W        W37286  11.470   1.625  13.063  0.1476 -0.2262  0.1660
21153W        W37287   6.637  14.237  12.173 -0.3061  0.1745  0.1516
21154W        W37288  12.828   9.627   9.148 -0.0325  0.1929  0.2919
21155W        W37289  10.318   3.632   3.277  0.2609  0.0204 -0.0822
21156W        W37290  12.641  16.512   0.984 -0.0061 -0.1413  0.4410
21157W        W37291  14.372   0.931   4.185  0.1185 -0.0493  0.3364
21158W        W37292  19.006   7.165   3.700  0.3068  0.0026 -0.0358
21159W        W37293   3.530  11.684  13.957 -0.1948 -0.1986  0.3106
21160W        W37294  19.325  17.111   0.661 -0.1622 -0.0484 -0.0758
21161W        W37295   9.595  14.856   2.828  0.1619 -0.0533  0.0848
21162W        W37296   9.986   5.405  14.717  0.2909 -0.2877 -0.2247
21163W        W37297  10.962   2.746   1.532 -0.4539 -0.1543  0.4745
21164W        W37298  13.809   2.881   2.834 -0.1332 -0.0032 -0.3685
21165W        W37299   9.669   4.734   1.992 -0.2719  0.2859 -0.3465
21166W        W37300   0.961   2.539   2.099  0.1798  0.2098  0.1772
21167W        W37301   2.284  15.622  11.264 -0.1575 -0.3281 -0.0230
21168W        W37302  16.906   5.035  12.993  0.2366  0.2327  0.1552
21169W        W37303   2.366  11.331  14.731 -0.1355  0.2538 -0.0341
21170W        W37304   2.972  14.493   1.536 -0.0067 -0.2660  0.0223
21171W        W37305   1.226   9.799  12.557 -0.0967 -0.2638  0.3320
21172W        W37306  14.160  17.536   4.344 -0.1713  0.2984  0.1002
21173W        W37307   5.365  18.234  13.606 -0.0360 -0.2255  0.0123
21174W        W37308  18.193   1.673   1.799  0.1583  0.0270  0.0700
21175W        W37309   7.869   8.066   5.666  0.1545 -0.4907  0.0644
21176W        W37310  12.819  16.644   0.147 -0.1024 -0.0767  0.2252
21177W        W37311  15.251   5.398  12.936  0.1180  0.2277  0.0127
21178W        W37312  13.750   3.641  11.565 -0.0790  0.1010 -0.0586
21179W        W37313   8.212   9.437  13.705 -0.2606 -0.2557  0.0467
21180W        W37314  18.417   8.528  12.100  0.2319 -0.0825 -0.1540
21181W        W37315   3.445  13.071   0.593 -0.0376  0.2241  0.1355
21182W        W37316  16.900   7.212   2.051 -0.1932 -0.1136  0.2087
21183W        W37317  13.095   3.362   0.293 -0.0534 -0.2166  0.1461
21184W        W37318  19.110   8.489   3.187  0.2335  0.0091 -0.3527
21185W        W37319   6.535  12.523  14.590 -0.1511 -0.0896 -0.3822
21186W        W37320  18.953   3.211  11.840 -0.2147 -0.0813  0.0914
21187W        W37321   7.101   0.725   2.855 -0.0941  0.0483 -0.0554
21188W        W37322   0.553   5.183  12.746 -0.1058 -0.2345 -0.1232
21189W        W37323  11.763  17.892   3.925 -0.0491  0.3882 -0.1803
21190W        W37324  10.637  18.845   1.149  0.0361  0.0945  0.0366
21191W        W37325  10.438   8.775  14.114 -0.0754  0.0592  0.0972
21192W        W37326   0.287   5.818  13.792 -0.1586  0.2784 -0.3587
21193W        W37327   0.295   9.707   3.786  0.0634  0.1121  0.1991
21194W        W37328   5.861  14.305   3.121 -0.1896  0.1296 -0.0532
21195W        W37329   3.503   4.166   0.364 -0.0761 -0.4337  0.3399
21196W        W37330  18.791  10.775  13.465 -0.1269  0.1663 -0.1031
21197W        W37331  17.978   4.587   4.968  0.0169 -0.0901 -0.1026
21198W        W37332   7.050   8.040  13.053  0.1612 -0.0377 -0.1939
21199W        W37333   2.416  14.513  13.370  0.3191 -0.0094  0.2622
21200W        W37334  10.526  12.844  12.887 -0.0545  0.0542  0.3795
21201W        W37335  13.974  15.544   3.475 -0.0004  0.3862  0.2342
21202W        W37336   3.286  18.100   0.285 -0.1105  0.0271 -0.4243
21203W        W37337  18.820   4.638  11.680  0.0593 -0.1382 -0.0784
21204W        W37338   0.200   8.810  10.240  0.1746  0.2958  0.1143
21205W        W37339  13.332   0.808  14.663  0.1263  0.0018 -0.1050
21206W        W37340  15.317  10.801   0.122  0.0371  0.2017  0.0320
21207W        W37341  18.434   1.851  12.990 -0.0041  0.0779  0.1665
21208W        W37342   6.265  10.434   0.031 -0.1156 -0.5426 -0.2753
21209W        W37343   4.759   9.959  11.816 -0.0802  0.1540  0.1027
21210W        W37344   4.695   2.545  11.240  0.0889 -0.0604  0.1724
21211W        W37345   0.314  10.543  13.302 -0.3296 -0.2203  0.3181
21212W        W37346  19.325   4.638  14.342  0.1869 -0.1414  0.0092
21213W        W37347   3.228  12.903   2.925 -0.0912 -0.1115  0.0094
21214W        W37348   9.736   5.826  10.773 -0.1113 -0.0205  0.0307
21215W        W37349  13.008  14.893  13.613 -0.0676  0.0811 -0.0971
21216W        W37350  12.766   2.744  12.442 -0.0840 -0.2119  0.2038
21217W        W37351   6.954  17.189  11.435 -0.0865  0.1080  0.1818
21218W        W37352  16.539  11.985  11.078 -0.2627  0.0682 -0.0303
21219W        W37353   1.078   0.642   2.834 -0.1964  0.0257 -0.0851
21220W        W37354  13.105  18.755   2.952 -0.0010  0.1042 -0.4180
21221W        W37355  19.056  10.520   0.653 -0.0447 -0.1262 -0.2204
21222W        W37356  16.994   9.204   3.533 -0.0187  0.3803  0.1084
21223W        W37357   5.676  17.767   1.120  0.0900 -0.5267  0.3961
21224W        W37358   1.020  15.130  12.074 -0.0084 -0.0594 -0.0129
21225W        W37359   3.661  15.235   2.997 -0.1581  0.0706 -0.1263
21226W        W37360   7.711   0.199  13.780  0.0601 -0.0748  0.0049
21227W        W37361   2.790  16.634   2.873 -0.3325  0.2052  0.0201
21228W        W37362  12.811   7.258   0.722  0.1988  0.0429 -0.2582
21229W        W37363  17.599  14.020   4.998  0.1512  0.1351  0.5191
21230W        W37364   6.222   2.536   1.969 -0.0514  0.1212  0.3455
21231W        W37365   6.455  11.705  14.223 -0.3372  0.2392 -0.1938
21232W        W37366   9.647   6.246  10.513  0.1354  0.0046  0.1041
21233W        W37367  10.045   0.876   9.538 -0.1245  0.2199 -0.1104
21234W        W37368   7.985   0.198   0.940 -0.2266 -0.0639  0.2110
21235W        W37369   1.529  14.014  11.810 -0.2063 -0.4239  0.2392
21236W        W37370   1.091  16.061   0.172 -0.0816 -0.2622 -0.0547
21237W        W37371  12.156  11.633   3.585  0.1204 -0.0048  0.0707
21238W        W37372  10.781   9.432   4.270  0.2490 -0.0038  0.1079
21239W        W37373   7.876  19.094  14.483 -0.1630 -0.2334  0.0147
21240W        W37374  11.869   1.838  12.538 -0.3432 -0.0648 -0.0465
21241W        W37375   2.909   7.112   2.319 -0.0987 -0.2538 -0.2830
21242W        W37376   1.205   7.190  14.914 -0.0692  0.3309 -0.2218
21243W        W37377   1.186   1.886   5.060  0.3068  0.0589  0.1152
21244W        W37378  18.202   3.612  14.591  0.0995 -0.0586  0.2981
21245W        W37379  10.762   3.723   4.731 -0.3469  0.0749 -0.2361
21246W        W37380   1.933   3.463   3.677  0.0788  0.1149 -0.1750
21247W        W37381  12.389   7.660   3.341 -0.0998 -0.2867  0.2473
21248W        W37382  18.999  11.784  14.759  0.0403  0.1056 -0.0613
21249W        W37383  13.813   6.533  11.573  0.1916 -0.1496 -0.1828
21250W        W37384   3.358  17.910  11.033  0.0532  0.1804  0.0396
21251W        W37385   0.141  15.244  13.875 -0.0793 -0.2561  0.0197
21252W        W37386  10.689  11.827   0.378  0.2627 -0.1352  0.0828
21253W        W37387  11.429   2.467   3.248  0.0347  0.1310 -0.0012
21254W        W37388   6.884   9.425  11.890 -0.2480  0.2267 -0.2938
21255W        W37389   0.421  16.268   0.548  0.0769 -0.1486  0.0593
21256W        W37390  14.475   6.122   1.975 -0.0275  0.1373 -0.1023
21257W        W37391   3.665   2.296   4.531 -0.2089  0.4308  0.0615
21258W        W37392   8.077  16.935   2.098 -0.5226  0.0482 -0.0852
21259W        W37393   4.083   7.498  13.822 -0.0221 -0.0698 -0.1499
21260W        W37394   5.138  11.998  11.344 -0.1184  0.1431 -0.3151
21261W        W37395  18.209  11.624   1.173 -0.4200 -0.0505  0.1165
21262W        W37396   3.547  19.248  12.762 -0.3997  0.3196  0.0187
21263W        W37397   9.658  10.339  13.417 -0.3243  0.0018  0.0654
21264W        W37398   3.010  16.551  11.861  0.2219  0.2562  0.1330
21265W        W37399   2.631  12.741  11.059 -0.1939  0.1751 -0.1613
21266W        W37400   4.143  14.278   2.220  0.1220  0.3065  0.0698
21267W        W37401  13.368   2.092  14.126 -0.0202  0.0567 -0.2899
21268W        W37402  15.258  14.826  13.726 -0.2072  0.2668  0.2324
21269W        W37403  18.906   9.852   3.092  0.2021  0.2431  0.0265
21270W        W37404  16.827  14.232   9.880 -0.0180  0.2994 -0.0122
21271W        W37405  14.404   2.276  10.869  0.2318 -0.4197 -0.0766
21272W        W37406  17.370  17.604   1.558 -0.1703  0.0205  0.0955
21273W        W37407   3.690  11.832  10.492  0.2950 -0.0647  0.0818
21274W        W37408   2.584   2.217  12.541 -0.1408 -0.1513  0.0397
21275W        W37409  14.504  17.524   2.309 -0.1074  0.1539  0.2294
21276W        W37410  19.316   8.084  14.553 -0.0124 -0.0254  0.4388
21277W        W37411  18.991   4.061  13.172 -0.2652  0.0345 -0.0001
21278W        W37412  12.073  10.231   2.760  0.0728 -0.0517  0.2200
21279W        W37413   1.468   2.441  14.075  0.1465  0.0077  0.1060
21280W        W37414  11.894   8.306   2.968 -0.2694  0.1814  0.1308
21281W        W37415   9.235  11.603   0.093 -0.0621 -0.2280  0.2476
21282W        W37416  14.220   9.389   4.941  0.2243 -0.0917  0.2024
21283W        W37417   2.264  15.304  14.516 -0.2742  0.3354  0.0641
21284W        W37418   3.316   2.935   2.560  0.0354 -0.2296 -0.2655
21285W        W37419  12.296  19.189  13.905  0.2367  0.1070  0.2976
21286W        W37420  18.614  13.693   3.742 -0.1348  0.2440  0.5030
21287W        W37421   2.000   3.125   1.400 -0.1078 -0.2354  0.0889
21288W        W37422  19.073   3.370  12.609 -0.2214 -0.0149  0.2787
21289W        W37423   5.557   6.003   2.790 -0.0805  0.0390  0.3323
21290W        W37424   7.184  12.871   1.088  0.1563  0.0506  0.3083
21291W        W37425  12.801  13.882  13.565  0.2184 -0.0666  0.0751
21292W        W37426  14.513  15.626   2.537 -0.1306 -0.0752  0.1379
21293W        W37427  18.977  14.446  13.571  0.0609  0.1292  0.0028
21294W        W37428  11.761  14.962   3.123  0.0281 -0.0623 -0.3235
21295W        W37429   4.296  12.312  12.444  0.3038 -0.0200 -0.1501
21296W        W37430   1.137  16.893   1.650  0.2837 -0.4080  0.3077
21297W        W37431  12.041   6.709   1.821 -0.2691  0.1978  0.3193
21298W        W37432  11.801   3.156  11.200 -0.4535 -0.3570 -0.1707
21299W        W37433   2.540  17.146   3.599  0.2707  0.1779  0.1205
21300W        W37434   3.343   6.214  10.686  0.2483  0.2733 -0.4079
21301W        W37435   8.980  16.020   4.210 -0.0457 -0.2195  0.5012
21302W        W37436  17.400   3.858   3.367  0.0896 -0.1547  0.2299
21303W        W37437  15.705  17.277  14.625  0.1945 -0.0257 -0.1668
21304W        W37438   5.360  10.341   2.048 -0.1322 -0.0089 -0.0303
21305W        W37439  19.160   1.070  12.255 -0.2340 -0.1711  0.0296
21306W        W37440  16.177  14.677  12.787 -0.0737 -0.2354 -0.2099
21307W        W37441   8.839  15.013  13.332 -0.0427 -0.0218 -0.1280
21308W        W37442   7.363   8.089  10.723  0.0710 -0.1572 -0.5308
21309W        W37443   5.817  17.640   4.704  0.1551  0.0634  0.0920
21310W        W37444   9.597   2.225   3.701  0.1810 -0.1952  0.0200
21311W        W37445  11.851  13.854   3.900  0.2371 -0.0191 -0.2816
21312W        W37446   6.729   0.851  12.375  0.2523  0.2672  0.0002
21313W        W37447  16.162   3.311  10.208  0.2835 -0.0667  0.2000
21314W        W37448  13.314  17.150   5.340  0.1513  0.2263  0.0496
21315W        W37449   3.537   9.937  11.261  0.0649 -0.2792  0.2484
21316W        W37450   1.311  12.291   1.087  0.2284  0.3094 -0.2501
21317W        W37451  17.023  18.184   0.238 -0.2322 -0.0741 -0.0205
21318W        W37452  14.322   9.198   4.031 -0.2323 -0.1673 -0.0948
21319W        W37453  16.981   6.077   3.061 -0.0807  0.0578  0.0958
21320W        W37454  17.209  10.377   3.387  0.0119  0.3995  0.1135
21321W        W37455   0.257  15.899  11.267 -0.2796 -0.0259  0.0341
21322W        W37456  12.314   0.674   0.063 -0.2120 -0.0839  0.1510
21323W        W37457  15.635  12.976  13.277 -0.0699 -0.0284  0.0143
21324W        W37458  14.459   1.524   2.119 -0.3740  0.0935  0.1756
21325W        W37459  14.645   6.782  11.348  0.0882 -0.2795  0.0851
21326W        W37460   2.525   8.094  11.833  0.0871 -0.0097 -0.2146
21327W        W37461  11.738  14.651   4.046  0.1402 -0.0965  0.0317
21328W        W37462  10.973  10.451  13.599  0.3310  0.1872 -0.0770
21329W        W37463  15.589  12.675   3.539  0.1115  0.0310  0.1948
21330W        W37464   6.407  18.818  11.364 -0.1164  0.2240 -0.0253
21331W        W37465   0.853   0.961  13.892 -0.2135 -0.0239  0.2744
21332W        W37466  12.209  17.261  14.487  0.1322 -0.1521 -0.0889
21333W        W37467  15.746  18.099  12.806  0.1796  0.3324 -0.1410
21334W        W37468   7.364  17.053   5.086  0.2014 -0.0547 -0.0708
21335W        W37469   5.106   8.375  12.593 -0.0504  0.0303  0.0695
21336W        W37470   2.962   7.531   2.658  0.2614  0.1267  0.0485
21337W        W37471   4.467   3.988   3.366  0.1157  0.3086  0.0830
21338W        W37472   9.717   6.346   1.551  0.2044 -0.2034  0.1305
21339W        W37473  11.070   1.098   2.888  0.0058  0.0568 -0.1122
21340W        W37474   6.024   9.166   3.366  0.1358 -0.2826 -0.2046
21341W        W37475  18.869   5.999   0.955 -0.1689  0.0707 -0.0622
21342W        W37476  15.797   7.180  10.603 -0.3025 -0.0384 -0.0220
21343W        W37477   0.473   2.565  10.929  0.1089 -0.2765  0.0510
21344W        W37478  15.040   9.528  12.766 -0.0794 -0.0190  0.0586
21345W        W37479   5.565   8.802   4.192  0.4726  0.1048  0.0408
21346W        W37480   4.629  16.910   0.962  0.0889  0.1074  0.2073
21347W        W37481  14.858  12.648   2.891  0.1476  0.1922  0.0906
21348W        W37482   8.392  12.850   9.643  0.0631 -0.1667  0.2194
21349W        W37483  18.825  16.019   0.090  0.1259  0.2197 -0.2146
21350W        W37484   5.329  17.386   0.992 -0.1445  0.2675  0.1923
21351W        W37485   5.781  14.118   0.348  0.2154 -0.0877  0.2039
21352W        W37486   0.648  15.863  11.607  0.0564 -0.2264 -0.0108
21353W        W37487   7.748   9.320   4.251 -0.0716 -0.1526  0.1614
21354W        W37488   0.431   2.744   2.781 -0.0533 -0.0630 -0.1321
21355W        W37489   8.744   2.392  13.761 -0.0908 -0.1381  0.1770
21356W        W37490   2.764   7.414  11.678  0.1069  0.1156 -0.0137
21357W        W37491  13.039  16.827  12.146 -0.0541 -0.0911 -0.0995
21358W        W37492   4.353  18.377   1.627 -0.1400  0.2298 -0.1079
21359W        W37493  15.882  17.307  14.139  0.3148 -0.1736 -0.1625
21360W        W37494  14.837  13.128  12.185  0.1576 -0.1248 -0.0295
21361W        W37495  10.370  18.265   4.930 -0.1276  0.2341 -0.2354
21362W        W37496  18.661  13.124  10.924  0.0648 -0.0499  0.1945
21363W        W37497  14.624   3.558  13.498 -0.2188  0.2919 -0.0478
21364W        W37498   1.473   1.363   4.181  0.0523 -0.0189 -0.0127
21365W        W37499  16.477   7.535   4.347 -0.1274 -0.2648  0.1685
21366W        W37500  19.235   7.116  13.133 -0.5129  0.4056  0.0340
21367W        W37501  12.021  11.123   4.399  0.2128  0.0377 -0.3226
21368W        W37502   1.671   0.925   1.555  0.1816  0.0003  0.0836
21369W        W37503  12.802   6.812  10.803  0.2817  0.3148  0.1336
21370W        W37504  18.568   3.214   1.005 -0.0573  0.0086  0.0204
21371W        W37505  17.095   3.907  14.564 -0.2573  0.1978  0.0119
21372W        W37506  13.807  11.876  11.637 -0.1882 -0.1195 -0.0193
21373W        W37507   6.405  18.403  12.194  0.2225 -0.3727  0.2981
21374W        W37508   3.041   9.178  11.196  0.1754 -0.1015 -0.1261
21375W        W37509  18.837   8.191  12.154 -0.0525  0.0755  0.1584
21376W        W37510   9.022  17.247  12.779  0.0916 -0.3598  0.3114
21377W        W37511   8.836   8.175  13.456 -0.2785  0.3982  0.0254
21378W        W37512   5.110  17.076  12.630 -0.0283 -0.2733  0.0673
21379W        W37513  16.286  10.039   1.012 -0.2688  0.1145  0.1542
21380W        W37514   8.125  15.425  10.661 -0.3983  0.0117 -0.5090
21381W        W37515  14.698  11.306   0.122  0.1060  0.0590 -0.3132
21382W        W37516   7.590  11.901   2.024  0.5009 -0.2112  0.0115
21383W        W37517   2.172  12.793  13.387  0.5973  0.0220  0.1565
21384W        W37518  14.165   7.327   4.673  0.1421  0.0674  0.2845
21385W        W37519   8.995  11.330   2.513  0.1046 -0.2300  0.1419
21386W        W37520   9.011   8.487  12.967  0.0898 -0.3288  0.1108
21387W        W37521   0.758   0.348  14.922  0.2943  0.2758 -0.4547
21388W        W37522  12.410  12.130  12.500  0.0335 -0.0625  0.3197
21389W        W37523  12.924  13.148   4.146 -0.2905 -0.3499 -0.0039
21390W        W37524   3.126   1.391   4.886 -0.3866  0.2598 -0.1491
21391W        W37525  10.426  18.626  12.951  0.0408  0.4200  0.5565
21392W        W37526   4.271  16.908  10.881 -0.2659 -0.2272  0.1133
21393W        W37527  10.130   2.610  14.964 -0.0871  0.2004  0.0591
21394W        W37528  11.321  10.088   2.727 -0.1407  0.0406  0.5057
21395W        W37529   4.630  12.012   2.490  0.1164  0.0066 -0.0244
21396W        W37530  12.561  16.821  13.721  0.1851  0.1620 -0.1623
21397W        W37531  18.246  12.474  11.849 -0.0661 -0.1541 -0.0259
21398W        W37532   3.385  15.051   4.237 -0.1299 -0.1382  0.0965
21399W        W37533  10.595  15.844  12.923  0.0234  0.0102  0.0189
21400W        W37534   1.538  14.184  12.851  0.1304 -0.1992 -0.2266
21401W        W37535   2.996  12.184   0.967 -0.3045 -0.1943 -0.0686
21402W        W37536   7.303   2.728  14.866  0.0095 -0.0431 -0.1000
21403W        W37537  15.570   0.927  10.453  0.4547  0.2988  0.0313
21404W        W37538   7.128   3.617  12.553  0.1152 -0.2500 -0.3285
21405W        W37539   9.588  10.026  14.642  0.0570  0.5615  0.0790
21406W        W37540   5.436  13.718   3.102  0.0337  0.1971 -0.0571
21407W        W37541  16.394  12.766   2.398  0.0846 -0.2125 -0.2464
21408W        W37542   4.838  15.388   3.581 -0.0871 -0.1027 -0.1694
21409W        W37543  11.860   5.279   4.442  0.0956 -0.0627  0.3286
21410W        W37544  10.079   1.225   1.900  0.0596  0.3216  0.1433
21411W        W37545   3.200  11.598   0.152 -0.2753 -0.0350 -0.1331
21412W        W37546   5.640   7.207  14.809 -0.0158 -0.1042  0.3071
21413W        W37547  16.123  14.285   0.665 -0.0581  0.0939 -0.0258
21414W        W37548  11.125   1.658   2.955 -0.0039 -0.0074 -0.2193
21415W        W37549  13.061   3.618  13.452 -0.2894  0.1383 -0.1209
21416W        W37550  17.011   1.864   4.106  0.0437  0.3374 -0.1273
21417W        W37551   9.592  15.511  13.465  0.0302  0.0556 -0.1016
21418W        W37552  17.036   9.152  13.988  0.3691  0.0417  0.1298
21419W        W37553   9.352  12.610   1.656 -0.0434 -0.1278  0.4417
21420W        W37554   7.370   2.614   1.863  0.0280 -0.1007  0.2159
21421W        W37555  15.049   7.416  11.665  0.2083 -0.2789  0.3136
21422W        W37556  11.008   7.683  12.350 -0.2112  0.1000 -0.4274
21423W        W37557   1.969   9.081  10.628 -0.1397  0.2772 -0.0179
21424W        W37558   8.781   4.055  11.036 -0.0614  0.1545 -0.0074
21425W        W37559  11.524   2.248   3.780 -0.2045 -0.1975 -0.1598
21426W        W37560  16.680   5.588  10.555  0.1440 -0.0672 -0.3422
21427W        W37561   7.623  15.728   2.649 -0.1651 -0.1024 -0.0889
21428W        W37562   7.503   8.746  13.010 -0.0564 -0.2707 -0.0413
21429W        W37563   8.399   9.766   3.577 -0.1043 -0.0967  0.2211
21430W        W37564  12.123  15.988  13.491 -0.2119  0.1750  0.0247
21431W        W37565  12.433  13.680  10.749 -0.1859  0.2741  0.1663
21432W        W37566  12.189  18.264   3.375  0.3306  0.1912  0.0638
21433W        W37567  18.069   9.790   3.374  0.0119  0.2333  0.2021
21434W        W37568  15.555  17.769  13.129 -0.4633 -0.0742  0.1537
21435W        W37569  17.272   0.124   2.108  0.2485  0.0281  0.2648
21436W        W37570  14.650  16.675  12.962 -0.0169  0.1065 -0.1200
21437W        W37571  16.125   7.147   4.357 -0.0123 -0.0162 -0.1893
21438W        W37572   5.759   0.205   3.226  0.3620 -0.1835  0.0818
21439W        W37573   8.054  14.646  10.907  0.0781  0.0552  0.2155
21440W        W37574   4.890   7.592  14.306  0.0556 -0.3784  0.1371
21441W        W37575   0.556  11.939   4.338  0.4003  0.3992  0.1112
21442W        W37576   9.585  18.898  14.869 -0.0108  0.1556 -0.4092
21443W        W37577  11.562  17.606   4.869  0.0658 -0.3163 -0.0042
21444W        W37578   7.239  14.953   1.967 -0.0367 -0.0141 -0.1896
21445W        W37579   0.480  14.685   2.262  0.0018  0.0757  0.4993
21446W        W37580  14.306  12.566  12.840  0.2709  0.0639  0.1887
21447W        W37581  13.250  10.441   3.951  0.1211 -0.0516  0.3645
21448W        W37582  16.027   9.547   4.615 -0.3563 -0.1048  0.0138
21449W        W37583   0.846  16.973   2.104  0.0754 -0.1511  0.1125
21450W        W37584   9.110   9.888   9.676 -0.3143 -0.1038 -0.0745
21451W        W37585  17.161   9.813   4.254 -0.0740  0.2087  0.0846
21452W        W37586   4.186   8.236  14.482 -0.0432  0.0051  0.3091
21453W        W37587   3.376  10.404   0.619 -0.1540 -0.1969 -0.2835
21454W        W37588   6.426  14.212   9.663  0.3036 -0.0016  0.0345
21455W        W37589   6.323   8.633  12.393  0.0296  0.2699 -0.3082
21456W        W37590   2.151  10.305  13.374  0.1236  0.0554 -0.1102
21457W        W37591   8.220   9.636   1.975 -0.1039 -0.0362  0.1185
21458W        W37592   1.738   0.832   4.207  0.0867 -0.2046 -0.0081
21459W        W37593  10.988  17.350   4.097  0.0219  0.0395 -0.1303
21460W        W37594   8.147  17.224   2.561  0.0845 -0.0184 -0.3593
21461W        W37595  14.851   4.549   3.190  0.1637 -0.0209 -0.0985
21462W        W37596   7.029  17.402   3.366 -0.3753  0.3513 -0.0101
21463W        W37597   2.771   8.886   0.120 -0.0357  0.1519 -0.1658
21464W        W37598  10.630   1.578  12.606  0.2947  0.2554 -0.1439
21465W        W37599   0.965  14.571   4.675 -0.1815  0.4173  0.0863
21466W        W37600   7.449   0.144  13.271  0.0852 -0.3248  0.2004
21467W        W37601  18.269   5.379   1.353 -0.3757 -0.0369  0.2348
21468W        W37602  10.489   1.440   0.187  0.3456 -0.2029  0.1719
21469W        W37603   7.857  14.466  13.063  0.0379 -0.2223 -0.2561
21470W        W37604  18.353   0.177  14.553  0.0052  0.1272  0.0239
21471W        W37605   5.317  12.049   0.426 -0.1005  0.3760 -0.2825
21472W        W37606   2.172   5.423  13.386 -0.0531 -0.1428 -0.0266
21473W        W37607  12.471   3.579  13.238 -0.0268 -0.1535  0.2156
21474W        W37608   7.393  18.057   0.275  0.1818 -0.0630  0.0564
21475W        W37609  15.887   4.195  14.999 -0.3113  0.1239 -0.0134
21476W        W37610   8.102  14.994  14.949 -0.0452 -0.2134  0.5109
21477W        W37611   3.269   7.568  11.873  0.0572  0.1621 -0.0357
21478W        W37612  14.671   1.731   0.258  0.1173  0.1927  0.0610
21479W        W37613  18.637   7.232  13.895 -0.1144 -0.1559 -0.0325
21480W        W37614  14.827   6.712   2.765 -0.1270 -0.0905 -0.1093
21481W        W37615  13.187   7.186   1.907 -0.0714  0.1731  0.0241
21482W        W37616  16.195  18.909   2.858  0.1701  0.1466 -0.2661
21483W        W37617  11.485  11.147  14.717  0.0776  0.0115 -0.0320
21484W        W37618  14.735   8.120  10.975  0.4042 -0.3021  0.1347
21485W        W37619  19.118  12.131   4.688  0.0882 -0.1640  0.1979
21486W        W37620  17.211   6.804  14.121 -0.1088  0.1426 -0.0343
21487W        W37621   6.158  13.912   2.199 -0.0363 -0.0298  0.3208
21488W        W37622  12.244   0.631   3.435 -0.0417 -0.0991 -0.2722
21489W        W37623  10.421  10.174   3.660 -0.0483 -0.0244 -0.0626
21490W        W37624  10.068  10.086   0.330  0.2424 -0.0393 -0.0695
21491W        W37625   1.625  11.761  11.375  0.2440 -0.4069 -0.0587
21492W        W37626  10.271  10.281  11.508  0.2506 -0.1101 -0.2992
21493W        W37627   9.356  14.238  12.097  0.1259  0.0348 -0.0365
21494W        W37628  12.002   2.221  14.801 -0.0878 -0.1856  0.0980
21495W        W37629  11.336  11.144  10.789  0.1338 -0.1329  0.2539
21496W        W37630   9.106   4.366   2.888 -0.1106 -0.2553  0.0045
21497W        W37631   1.579   9.335   4.925  0.1125  0.0056  0.1219
21498W        W37632  12.480  18.634   2.618 -0.2989  0.3860  0.0012
21499W        W37633   3.773  11.823   4.614  0.2120 -0.0803 -0.0217
21500W        W37634  14.579   0.436   4.242 -0.0131 -0.1479  0.1035
21501W        W37635  17.624   1.444  13.402  0.1348  0.0927  0.3051
21502W        W37636  14.295   9.778  13.312 -0.0564 -0.0450  0.1804
21503W        W37637   6.449  17.843   3.985  0.1003 -0.0456 -0.0521
21504W        W37638   6.841   7.225   0.489  0.2341 -0.1579 -0.0064
21505W        W37639  11.076   4.674   1.488  0.0483 -0.2106 -0.2673
21506W        W37640   9.953   9.815   0.760 -0.1589  0.2356 -0.2153
21507W        W37641   5.074  15.179  11.953 -0.1520 -0.0047  0.0720
21508W        W37642  13.628  12.217   1.311 -0.3509 -0.0500  0.3316
21509W        W37643   9.701   9.394   2.258  0.2185  0.0876  0.0020
21510W        W37644  12.429  12.345   1.606  0.1069 -0.1771 -0.0774
21511W        W37645  16.077   3.649   3.760  0.1589 -0.0990  0.2197
21512W        W37646  10.214   0.278  11.604 -0.0340  0.4151 -0.3212
21513W        W37647  19.087   2.512  12.641  0.1056  0.1482 -0.1523
21514W        W37648   6.915   7.826  10.351  0.0461 -0.0113  0.0520
21515W        W37649   6.843   5.140   9.956  0.1863 -0.2533  0.2989
21516W        W37650  17.622  12.325   2.035  0.2361 -0.0799 -0.0971
21517W        W37651   6.970  14.802   3.996 -0.2912 -0.0242  0.1271
21518W        W37652   7.222  13.289   1.654  0.0032  0.3141 -0.2466
21519W        W37653   5.925   2.769  11.167  0.1227  0.0607  0.5799
21520W        W37654   8.261  15.046   3.519 -0.0461 -0.3442  0.2651
21521W        W37655  10.144   1.485  11.472 -0.2942 -0.1282 -0.0721
21522W        W37656   2.734  12.235   2.685 -0.2342  0.1348  0.1528
21523W        W37657  17.076  16.279   2.359 -0.1186 -0.0827 -0.3704
21524W        W37658   3.370  10.123  13.891  0.2794 -0.1114 -0.1288
21525W        W37659  16.313   9.077   9.872  0.1665 -0.1853  0.0985
21526W        W37660   6.135   0.363  11.682 -0.4355  0.0278  0.0877
21527W        W37661  18.982   7.568   4.020  0.0553 -0.2803 -0.2852
21528W        W37662   3.277  17.496  13.453  0.2335 -0.1062  0.2664
21529W        W37663   1.958  17.800   5.056 -0.4020  0.2985 -0.1445
21530W        W37664  13.892  11.772   1.306 -0.0321 -0.1136 -0.1006
21531W        W37665   4.099   7.019  13.749 -0.0292 -0.0574 -0.0832
21532W        W37666  18.615   6.125  10.905  0.3390 -0.2779  0.2085
21533W        W37667   7.181  14.278  11.454  0.1494  0.1023  0.1984
21534W        W37668  16.311  16.931   0.270  0.1268  0.2925 -0.0446
21535W        W37669  10.239  18.737   1.489  0.2579 -0.2574 -0.1123
21536W        W37670  14.853   3.458  12.530  0.3916 -0.0103 -0.5502
21537W        W37671  12.677  16.670   2.938 -0.0431  0.2108 -0.2849
21538W        W37672   6.572  18.141   2.716  0.3676 -0.0547  0.2658
21539W        W37673  12.564  17.697  12.411  0.3737  0.0166 -0.1864
21540W        W37674  11.433  16.540   1.418  0.0268 -0.0019 -0.1674
21541W        W37675  13.556  15.818   3.293  0.1691  0.2184 -0.1184
21542W        W37676   4.993   0.059   2.079  0.1128 -0.0382  0.1179
21543W        W37677  18.561  13.326  11.420 -0.1424  0.1582  0.2775
21544W        W37678   1.727  15.998  12.244 -0.2438  0.2179  0.1527
21545W        W37679   6.748  12.399  11.094  0.1316  0.1503 -0.0850
21546W        W37680   7.095   8.637  11.164  0.2144  0.0250  0.2658
21547W        W37681   3.018   6.993  12.772  0.2093 -0.0299  0.0090
21548W        W37682  16.183   2.923  12.238  0.3738 -0.2841 -0.0091
21549W        W37683  11.795   8.411   9.077 -0.3836 -0.0734 -0.1689
21550W        W37684   7.020   1.895   5.164  0.1227 -0.1761 -0.5515
21551W        W37685   8.883   5.037   1.354  0.0322 -0.0806  0.4186
21552W        W37686   4.041   5.977   3.448  0.3075  0.1489  0.0615
21553W        W37687  12.463   8.568  12.194  0.2989  0.2497 -0.1003
21554W        W37688  13.180  12.242   3.132  0.2897 -0.0005 -0.1144
21555W        W37689  13.946  14.288   4.885 -0.1080 -0.2002  0.1576
21556W        W37690   0.551   7.042  11.900 -0.0278 -0.0979  0.3301
21557W        W37691   4.170  14.862   2.037 -0.2175 -0.1336 -0.4439
21558W        W37692   8.124   9.243  10.481  0.2533 -0.0695 -0.1709
21559W        W37693   8.315   1.429  13.136  0.3663  0.1251  0.4683
21560W        W37694  18.825   0.013  14.841 -0.1385 -0.1127  0.2749
21561W        W37695   4.336  12.969  10.771 -0.0958 -0.1554 -0.0085
21562W        W37696   3.992   7.933   0.115  0.3560  0.0836  0.3319
21563W        W37697   3.294   2.307  13.595 -0.0905  0.1979  0.0963
21564W        W37698  15.574   5.794   0.341 -0.0592  0.2376  0.0812
21565W        W37699  16.438  15.143   2.522 -0.0836  0.2159  0.0349
21566W        W37700   7.636  10.256  11.273  0.2556 -0.1626  0.1570
21567W        W37701  13.986  12.683  12.449 -0.1676  0.0844  0.0988
21568W        W37702   1.760   3.735   2.593 -0.0261 -0.0692 -0.0263
21569W        W37703   5.535  16.668   4.699 -0.1522  0.0857 -0.0660
21570W        W37704   0.421   5.872  10.281  0.2629  0.0313 -0.2674
21571W        W37705  17.660  16.568  11.125 -0.1458  0.1750 -0.1031
21572W        W37706   4.442  17.117   4.985 -0.0788 -0.0478 -0.0998
21573W        W37707  18.036  14.167  12.585 -0.0877 -0.1273  0.0341
21574W        W37708  17.866   4.964  10.427 -0.3346  0.0892  0.0362
21575W        W37709  12.820   2.780   4.109 -0.0569  0.1260 -0.0879
21576W        W37710   6.145  11.005  14.354 -0.1435 -0.0363 -0.3101
21577W        W37711   0.872  17.855  14.861 -0.3712 -0.4103  0.0700
21578W        W37712   7.925   1.514  14.560  0.1689  0.0027 -0.2865
21579W        W37713  15.523   8.392   3.755  0.1123 -0.1813 -0.2008
21580W        W37714   4.825   3.999  12.173 -0.0055 -0.0458 -0.1536
21581W        W37715   4.539   6.015  12.440  0.2068  0.1992  0.0028
21582W        W37716  15.964   9.658   0.447  0.0439 -0.2627  0.1178
21583W        W37717  17.245   6.573   4.866 -0.1198 -0.0816  0.0158
21584W        W37718   6.021  17.627  10.907 -0.0045  0.1178 -0.0954
21585W        W37719   7.696  10.163  13.259 -0.3998  0.0431 -0.0843
21586W        W37720   4.197  11.074  11.727 -0.1225 -0.0055 -0.4107
21587W        W37721  16.661   2.544   4.747 -0.1716  0.1802 -0.0030
21588W        W37722  17.130  13.939  10.476  0.1391 -0.2782  0.0700
21589W        W37723  19.268   2.667  10.995 -0.2799  0.3540 -0.4316
21590W        W37724   6.827   5.913   4.006 -0.0631 -0.3539  0.1174
21591W        W37725  16.836   4.487  10.054  0.2089  0.0477 -0.1762
21592W        W37726   2.528  13.394  14.601 -0.0756  0.1850  0.0876
21593W        W37727   0.141  13.192   4.319 -0.3370  0.1843  0.1555
21594W        W37728  18.188  17.416   2.352 -0.1464 -0.1101 -0.2961
21595W        W37729  17.544   6.118   2.105 -0.1667 -0.1938 -0.1645
21596W        W37730  18.722  14.951  12.695  0.1513 -0.1520  0.4860
21597W        W37731  15.516  19.063   1.211 -0.3295 -0.0950 -0.0994
21598W        W37732   9.916   4.055   5.191 -0.1414  0.0791 -0.0616
21599W        W37733  15.464  15.139  14.649  0.0039 -0.0533 -0.3336
21600W        W37734  16.799   7.237  14.656 -0.3826  0.3107  0.0453
21601W        W37735  16.810   6.235   4.880 -0.1898  0.1796  0.3393
21602W        W37736   6.200  10.185  12.630  0.0639 -0.1763 -0.0438
21603W        W37737  12.843  17.412   1.862 -0.2409 -0.2452  0.1103
21604W        W37738  13.526  15.824  12.980 -0.3665  0.1173 -0.0089
21605W        W37739  10.200   1.991  14.775 -0.2955  0.0123  0.1143
21606W        W37740  13.403   8.620  10.318 -0.2329 -0.0282 -0.0440
21607W        W37741   2.474   6.106  14.599  0.1291  0.0228  0.1412
21608W        W37742   2.161  16.765  11.755  0.3550 -0.0619 -0.1613
21609W        W37743   7.877  11.090  10.615  0.1364  0.2734  0.0643
21610W        W37744   6.911  16.623   3.618  0.0339  0.0323  0.2799
21611W        W37745   6.603   7.595  10.820 -0.1309 -0.3079 -0.2412
21612W        W37746  14.087   6.745  11.978  0.0754  0.0962 -0.0816
21613W        W37747   4.860  16.683   2.921  0.2124  0.1623 -0.0422
21614W        W37748  12.933  10.016   2.242 -0.1025  0.0237  0.2052
21615W        W37749   9.778   3.347  11.354 -0.0149  0.1540  0.2076
21616W        W37750   6.367   8.784   1.357 -0.4363 -0.1209  0.1774
21617W        W37751  18.972  16.659  10.420  0.1232  0.0546  0.0985
21618W        W37752  14.422  16.576  12.428 -0.3829 -0.0958 -0.0403
21619W        W37753   1.562   6.907   3.499 -0.1415 -0.3679 -0.2064
21620W        W37754  13.796   9.414  12.912 -0.3775 -0.1312  0.0225
21621W        W37755  12.981  17.882  10.798  0.0124 -0.3497  0.0518
21622W        W37756  16.942  13.297  11.065 -0.2084 -0.1394 -0.0197
21623W        W37757  17.943   3.007  11.570  0.1319  0.3701  0.4486
21624W        W37758  11.242  12.156   3.987  0.1122  0.2151  0.0527
21625W        W37759  10.903  17.190  13.168  0.0891  0.0267  0.0183
21626W        W37760   4.282  19.083   4.319 -0.2460  0.0948 -0.0734
21627W        W37761   7.869  15.298   4.237 -0.1361 -0.0249  0.0185
21628W        W37762  12.470  10.147   0.791  0.0331 -0.1381  0.1381
21629W        W37763   3.909  15.019  14.613  0.1815  0.0955 -0.2164
21630W        W37764  14.557   7.692   4.652  0.3016 -0.3113 -0.3059
21631W        W37765  17.641   1.064   4.688  0.0733 -0.5570 -0.1249
21632W        W37766   1.401  12.065  13.592 -0.1477  0.2676  0.2935
21633W        W37767  16.139   2.305  10.522 -0.0452  0.4281  0.0869
21634W        W37768   4.884   2.779   0.673 -0.2137 -0.0222  0.2412
21635W        W37769  17.426  16.694   5.171 -0.3360 -0.0431 -0.1423
21636W        W37770   2.778   8.378  13.073  0.0819 -0.0464 -0.1565
21637W        W37771   6.190   3.547   3.878 -0.1689 -0.1657 -0.0647
21638W        W37772   8.069   6.266  12.528 -0.0823 -0.1253 -0.2206
21639W        W37773  11.209  12.556  11.332  0.1187 -0.2245 -0.0071
21640W        W37774  16.285   0.393   2.497  0.4764 -0.0367  0.2456
21641W        W37775   8.565  10.130  12.340 -0.1089 -0.1416  0.0025
21642W        W37776   1.032   8.124  14.818 -0.2568 -0.1117  0.0646
21643W        W37777  10.408   9.454  11.413  0.0623 -0.2827  0.0862
21644W        W37778  18.924   5.407  14.728 -0.1939 -0.1022  0.0655
21645W        W37779   8.918   0.462   0.582 -0.2235  0.2653  0.2367
21646W        W37780   0.955   4.060   5.179  0.1477 -0.3828  0.0417
21647W        W37781  17.763   7.547   9.798 -0.0102  0.0621 -0.1233
21648W        W37782  11.369  12.429   3.046  0.2024  0.0307  0.3008
21649W        W37783  18.921  13.154   0.707  0.1415 -0.3001  0.0574
21650W        W37784  10.596   8.788  14.999 -0.3773 -0.1251 -0.1240
21651W        W37785  18.684  18.551   3.842 -0.2304 -0.0296  0.1335
21652W        W37786  14.847   4.787  13.653 -0.2491  0.0910 -0.1343
21653W        W37787  13.089  14.057   5.148 -0.2763  0.0258  0.1805
21654W        W37788  12.464  18.714  12.499  0.2162  0.1867 -0.3583
21655W        W37789   2.137   5.782  12.195 -0.0281 -0.0004 -0.1357
21656W        W37790  15.055  12.112  11.982  0.0486 -0.4407 -0.0663
21657W        W37791  16.575   1.125  14.422  0.1055 -0.0879 -0.0682
21658W        W37792   9.941   4.278   2.844  0.2790  0.0253  0.0373
21659W        W37793  15.785  13.493  13.130 -0.1741 -0.0117  0.3112
21660W        W37794   9.392   4.856   2.742 -0.0471 -0.1326  0.3469
21661W        W37795  11.077  12.124  13.323 -0.0497 -0.0795 -0.0838
21662W        W37796   9.566   8.047  12.462  0.0005 -0.0447 -0.1630
21663W        W37797  18.972   2.911   1.823 -0.1957 -0.0692  0.1110
21664W        W37798  16.112  11.400   0.643 -0.1346 -0.0249  0.0771
21665W        W37799   9.810   0.428  12.922 -0.2464  0.3084  0.0770
21666W        W37800  11.123  10.171  10.965  0.2982  0.3606 -0.1299
21667W        W37801  14.941   7.446   4.359 -0.1410 -0.0575  0.1450
21668W        W37802   7.231   9.779  13.422  0.1354  0.2284  0.0128
21669W        W37803   6.094  17.616   3.152  0.0012 -0.1162  0.5113
21670W        W37804   3.329  13.188   1.054 -0.1003  0.0443 -0.0084
21671W        W37805   5.390   3.690  10.108  0.1138  0.3308 -0.0719
21672W        W37806   7.855   7.995   3.687 -0.0064  0.0394 -0.0034
21673W        W37807   2.232  14.865   1.432  0.0507 -0.1525 -0.0667
21674W        W37808  17.505   6.243   1.330 -0.0525 -0.2691 -0.4935
21675W        W37809   0.143   2.822   2.290  0.0614  0.1138 -0.1121
21676W        W37810   3.330  13.880  14.834 -0.2216 -0.3343  0.1897
21677W        W37811  18.226   4.664  14.894 -0.1202  0.0456 -0.2115
21678W        W37812   2.299   4.041  12.641  0.0491 -0.7173 -0.0651
21679W        W37813  18.242  17.499  13.556 -0.1276 -0.1541 -0.3636
21680W        W37814   2.264   8.265  10.001 -0.1496 -0.2265 -0.0627
21681W        W37815   9.007  11.244  14.019 -0.1973  0.2310  0.2814
21682W        W37816   8.297  13.230  14.927 -0.3790  0.3278  0.0751
21683W        W37817  13.631  12.730   3.257  0.3861  0.2031 -0.0898
21684W        W37818   5.042  11.850   1.666 -0.3784  0.2644 -0.3902
21685W        W37819   9.984  18.556  13.672 -0.2198  0.0811 -0.2933
21686W        W37820  16.718  13.696  10.991 -0.0991  0.2578 -0.0900
21687W        W37821  11.417   7.332  13.180 -0.0344 -0.0421  0.1561
21688W        W37822  10.103   1.937  12.859  0.0682 -0.1502 -0.5962
21689W        W37823   8.890   6.648  13.122 -0.1044 -0.0935 -0.0858
21690W        W37824  12.015   4.447   4.167 -0.0395 -0.2301  0.0172
21691W        W37825  16.521   3.057  13.864 -0.2011  0.0799  0.0457
21692W        W37826   4.062   4.967   3.709 -0.1599  0.0494  0.2391
21693W        W37827  10.561  16.667  13.368 -0.4862  0.1877 -0.1223
21694W        W37828  15.307   5.347   4.478 -0.2180  0.1346  0.0183
21695W        W37829   9.530  13.504  10.949 -0.0676  0.1478 -0.1702
21696W        W37830  11.796  19.197  13.860 -0.1814 -0.1104  0.2018
21697W        W37831  18.027  14.298   0.707 -0.0442  0.1208  0.2569
21698W        W37832  15.486  11.798  13.898  0.0659  0.0038 -0.2367
21699W        W37833   9.160  11.138  11.599 -0.0596  0.2393  0.3007
21700W        W37834  17.821  10.958  12.750 -0.0397  0.0566  0.0279
21701W        W37835   1.293   9.143  11.895  0.2626 -0.0756 -0.1275
21702W        W37836  18.087  12.346   2.991  0.0726 -0.1253  0.1905
21703W        W37837   6.750   6.176  11.200  0.1768 -0.1182 -0.3132
21704W        W37838  10.471  15.526   2.514  0.0545 -0.2230 -0.5620
21705W        W37839  10.253   3.885  14.066  0.1522  0.1958 -0.1834
21706W        W37840  14.075  15.317   4.425 -0.0140 -0.0088  0.0643
21707W        W37841  14.420  11.539   2.905 -0.0909  0.3306 -0.0191
21708W        W37842  16.628   0.399   3.834 -0.3900  0.0483  0.0818
21709W        W37843   7.780   0.549   1.291  0.1060 -0.0427 -0.0791
21710W        W37844  19.201   7.013  14.272 -0.1733 -0.0764 -0.0104
21711W        W37845   3.436  11.252  12.568  0.1534 -0.1176 -0.2080
21712W        W37846   4.513  11.895  10.776  0.0030 -0.0767 -0.0260
21713W        W37847   5.949   4.547  13.135 -0.1322  0.1737  0.1583
21714W        W37848  12.258  16.228  14.484  0.3007 -0.1549  0.0388
21715W        W37849  18.172   0.995  12.203  0.1163 -0.0294 -0.0148
21716W        W37850   5.001   2.017   3.697  0.0551  0.1381  0.3630
21717W        W37851   0.046   0.865   4.768  0.2049  0.2983 -0.1475
21718W        W37852   2.591  10.554  12.996 -0.4924 -0.3253 -0.2097
21719W        W37853   2.840   2.362  14.056  0.0343  0.1804  0.1636
21720W        W37854   2.202   7.123   3.084 -0.1258  0.1292 -0.2810
21721W        W37855   0.170  17.027  12.393  0.2983  0.1232 -0.0822
21722W        W37856  17.523   4.415  14.818 -0.1153  0.0694 -0.0267
21723W        W37857  16.399   3.112  11.238 -0.0778  0.1410 -0.0868
21724W        W37858  18.437  17.730   0.588  0.0228  0.1565 -0.1964
21725W        W37859  18.030  13.505   3.731  0.1639 -0.1043 -0.1268
21726W        W37860  10.993  16.518  13.658  0.3558 -0.2555  0.0577
21727W        W37861  11.398   1.779   0.246 -0.1052  0.0642  0.3603
21728W        W37862   9.153   2.714  14.183 -0.2316 -0.0829 -0.2839
21729W        W37863   9.761  12.159  13.153 -0.1763  0.1196  0.1359
21730W        W37864   1.748   4.837   3.752 -0.0191 -0.1503  0.0850
21731W        W37865   0.396  17.397   0.527  0.3339  0.1779  0.3315
21732W        W37866  12.799   7.222  13.178  0.0684 -0.1420 -0.0311
21733W        W37867   2.267   3.561  12.406  0.1630 -0.0013  0.3177
21734W        W37868  14.997  15.349  13.715  0.0536  0.1830  0.0729
21735W        W37869  13.278  18.359  14.696  0.1551 -0.0855  0.1893
21736W        W37870   4.685  12.469   1.278  0.0435  0.1629 -0.2420
21737W        W37871  18.909   8.585   0.147 -0.0631  0.3675  0.0323
21738W        W37872   0.606  19.056  10.422 -0.2592 -0.2413 -0.3124
21739W        W37873  12.620  15.434   3.043  0.3324  0.1743 -0.0333
21740W        W37874  15.321   8.628   5.163  0.1540  0.3047 -0.0757
21741W        W37875  15.131  11.226  10.573 -0.0702  0.1928 -0.2980
21742W        W37876  15.928  17.640   1.292  0.2199  0.1720 -0.0018
21743W        W37877   9.424   9.306  11.903 -0.1950  0.4114  0.4223
21744W        W37878   4.339   2.828   0.586  0.3077  0.1204  0.1557
21745W        W37879  16.410   3.329   2.489 -0.0229 -0.1429  0.0805
21746W        W37880  13.395   1.088  13.359  0.0558  0.1566  0.0796
21747W        W37881  15.351   8.473   1.473 -0.2532  0.0070  0.0062
21748W        W37882   4.476  16.683  14.616  0.0528  0.1053  0.1989
21749W        W37883  15.529   5.701  11.585  0.1442  0.3806  0.1508
21750W        W37884   7.383  15.748   5.777  0.0376 -0.2164 -0.0026
21751W        W37885   5.294  11.541  11.312  0.0711  0.2302 -0.1545
21752W        W37886   4.936   4.867   1.052  0.1030 -0.1068 -0.0799
21753W        W37887   8.492  17.118  13.319  0.3584  0.5999  0.0223
21754W        W37888   1.037   7.401  12.840 -0.0073 -0.1302  0.0593
21755W        W37889  15.983   6.183   4.423 -0.3523 -0.1231 -0.0654
21756W        W37890  13.603  17.216  13.902 -0.0684 -0.3813 -0.0631
21757W        W37891  11.024  16.743  14.693 -0.2274 -0.2833 -0.2181
21758W        W37892  18.544   3.154   2.113  0.0239  0.0917 -0.1918
21759W        W37893   0.266  10.780   1.478  0.0971 -0.0040  0.3502
21760W        W37894   7.851   8.898  12.193  0.0110  0.2575 -0.0308
21761W        W37895   2.173  16.944  11.110  0.0527  0.0562  0.0964
21762W        W37896  19.142   2.810  13.598 -0.0420  0.0430  0.0422
21763W        W37897   0.124  18.764  12.335  0.2049 -0.1354  0.1681
21764W        W37898  18.709  16.144   0.639  0.2983 -0.0813  0.0716
21765W        W37899  15.185  15.882   0.427  0.0992  0.0957 -0.2189
21766W        W37900  10.327   3.049   4.345 -0.0683 -0.2895 -0.0132
21767W        W37901   0.450   5.924   2.073 -0.1671  0.2888 -0.2066
21768W        W37902   9.355   5.712  14.378 -0.1736  0.1896 -0.0967
21769W        W37903   3.108   4.669   2.270  0.1804  0.2437  0.0364
21770W        W37904  17.355   4.617  12.191  0.1327  0.0692  0.1057
21771W        W37905  15.913   6.136   0.053 -0.2255 -0.0495 -0.0668
21772W        W37906   2.880  17.898  10.537  0.1392 -0.0526 -0.3398
21773W        W37907   2.853   7.367  13.545  0.1154  0.1511 -0.1699
21774W        W37908  13.858  17.599  11.466 -0.1776 -0.0731  0.0135
21775W        W37909  18.136   8.266  14.785 -0.3269 -0.0109  0.0149
21776W        W37910   4.706   8.604   5.256 -0.0166 -0.1095 -0.1406
21777W        W37911  16.688   5.743  14.602 -0.3066  0.0404 -0.0674
21778W        W37912  17.316  17.908   1.075 -0.3059  0.5039 -0.1300
21779W        W37913   1.114   3.332   1.821 -0.2347  0.1395  0.0800
21780W        W37914  12.649   5.648   2.577  0.1685  0.6051 -0.2779
21781W        W37915  12.009   3.288  13.161 -0.1843 -0.2729 -0.1032
21782W        W37916   5.829  18.426   2.993  0.1107  0.0868  0.3978
21783W        W37917  16.769  10.975  13.279  0.1259 -0.2150 -0.1464
21784W        W37918  17.397   4.164  10.693 -0.0147 -0.0472  0.1103
21785W        W37919   8.786   7.403  14.063  0.0216 -0.0443  0.3687
21786W        W37920  10.410  10.150   1.295 -0.1817  0.1244 -0.1460
21787W        W37921   1.049   5.874  11.689 -0.0106 -0.2575  0.1334
21788W        W37922  14.069   7.046  14.368 -0.0980 -0.1532  0.0124
21789W        W37923   0.400  14.972   3.996 -0.1562 -0.2493  0.1296
21790W        W37924   3.588   4.736  13.907  0.2425 -0.1290  0.1733
21791W        W37925  18.014   5.185   2.121  0.0219 -0.2357  0.2530
21792W        W37926  16.442   8.450   4.772 -0.0976  0.0105  0.0498
21793W        W37927   1.680  15.185   2.033  0.1702  0.1169  0.3103
21794W        W37928  11.843   9.082  14.515  0.1395  0.2156  0.1439
21795W        W37929   2.772   2.496   4.419 -0.0969  0.0163  0.3363
21796W        W37930   9.567   3.015   0.101 -0.1166 -0.1778 -0.2641
21797W        W37931   0.887   5.198  13.092 -0.2872  0.2132  0.1293
21798W        W37932  10.169   8.645   0.953 -0.2646 -0.0301 -0.1611
21799W        W37933  17.036  12.337  12.142 -0.1486 -0.0431  0.0277
21800W        W37934  16.229  15.124  10.795  0.1220 -0.1497 -0.0720
21801W        W37935   4.628  15.440   4.081  0.0748  0.4878  0.4091
21802W        W37936   3.524   4.131   3.409 -0.1418  0.6138 -0.0062
21803W        W37937  17.666   6.745  12.921 -0.0303  0.0596 -0.0399
21804W        W37938  10.503   2.357  14.635 -0.0672 -0.1621 -0.1790
21805W        W37939  10.991  17.922  14.658  0.0532 -0.0124  0.3024
21806W        W37940   5.315  13.915   0.318 -0.0528 -0.0794 -0.0246
21807W        W37941   8.694   2.621   3.545  0.2906 -0.2978  0.2633
21808W        W37942  14.407   2.441   4.209  0.1140  0.1551 -0.0642
21809W        W37943   6.397   6.787  11.797 -0.0595 -0.3226  0.0440
21810W        W37944  14.638   4.211   3.541 -0.1323 -0.1987 -0.2819
21811W        W37945   9.665  16.742   0.934  0.0602  0.3715  0.0465
21812W        W37946  12.985  10.458  11.979 -0.0429 -0.1386  0.0858
21813W        W37947   5.003   0.690   1.088 -0.2215 -0.2772 -0.3109
21814W        W37948   0.590  10.339  14.673 -0.0069  0.1332 -0.0020
21815W        W37949  18.990   1.983  11.424 -0.2514 -0.3927  0.1554
21816W        W37950   2.740  12.509   0.306 -0.1124 -0.1782  0.2502
21817W        W37951  10.382   7.964  13.084  0.0773 -0.3313 -0.2264
21818W        W37952   2.410   3.470   1.377 -0.2857 -0.0836  0.0598
21819W        W37953  16.032  11.012  12.594  0.1739 -0.0495  0.0125
21820W        W37954  11.151   9.519   3.259 -0.1800  0.1453  0.3081
21821W        W37955   7.196  11.355   5.107  0.0146 -0.2256 -0.1567
21822W        W37956   6.889   6.984   4.548 -0.0512  0.1181  0.2055
21823W        W37957   5.907  13.088  14.709 -0.2307 -0.1043 -0.0548
21824W        W37958   4.557   0.685   4.739 -0.0855  0.1769  0.2750
21825W        W37959  17.871  16.574   4.211  0.0270  0.4005  0.2136
21826W        W37960   5.061   0.119   2.971 -0.2809 -0.1778  0.2284
21827W        W37961  17.128  15.004   5.353 -0.3418  0.0982  0.1798
21828W        W37962  16.191  16.724  13.263  0.6233 -0.2089  0.3213
21829W        W37963  13.600  18.642  10.554  0.0312  0.0894  0.0254
21830W        W37964   7.640   3.872  10.824  0.0414 -0.2576 -0.3231
21831W        W37965  12.617  18.588   1.843  0.0670 -0.0300 -0.0983
21832W        W37966  13.940  17.215   4.785 -0.1482  0.0585  0.1054
21833W        W37967  11.222  19.241  14.657  0.2675  0.2202  0.0697
21834W        W37968   8.512   5.507  14.619  0.0750  0.2244 -0.0442
21835W        W37969  17.850   3.572   1.990 -0.1418 -0.0784  0.2068
21836W        W37970   3.654  14.908  10.880  0.0400  0.2359 -0.0180
21837W        W37971   2.438   7.433   9.582 -0.2295 -0.3009 -0.0799
21838W        W37972   0.259  18.892  13.798 -0.0107 -0.2296  0.4051
21839W        W37973  14.616  11.740   1.036 -0.0900 -0.0649  0.1009
21840W        W37974  11.946   4.957  11.005  0.3120  0.0321  0.1083
21841W        W37975  10.882   9.024   2.217 -0.1566  0.0400  0.1993
21842W        W37976  12.215  17.942   4.974 -0.0691  0.0824 -0.0970
21843W        W37977   7.574   3.622   3.842 -0.2673  0.1380  0.0335
21844W        W37978  11.230  19.186  13.499 -0.0685  0.1813  0.0315
21845W        W37979   3.670   7.081   9.329  0.2422  0.0966 -0.1864
21846W        W37980  11.282  11.441  10.009  0.0779  0.1662 -0.0520
21847W        W37981  12.871   6.249   1.648 -0.2873 -0.1799  0.0538
21848W        W37982  19.299   6.283   2.243  0.1211  0.0633 -0.1138
21849W        W37983  15.115  16.812   1.841  0.1550 -0.2572  0.0267
21850W        W37984   2.882   6.339  10.907 -0.0437  0.3298  0.4151
21851W        W37985   5.217   5.607   1.766  0.0726  0.1511 -0.0317
21852W        W37986  13.491   7.684  11.070  0.0764 -0.1449  0.1223
21853W        W37987  15.034  13.900   0.402 -0.0847 -0.2383 -0.0783
21854W        W37988   7.319   2.479   1.119  0.2180  0.3585 -0.2610
21855W        W37989  16.037  18.184   1.132 -0.2344  0.2579 -0.2211
21856W        W37990   9.657   4.721  11.127 -0.3570  0.4508  0.1045
21857W        W37991   0.322   8.636   0.900  0.0702 -0.2989 -0.3339
21858W        W37992  17.745   0.966   1.145 -0.0652  0.0914 -0.0164
21859W        W37993  18.265  18.630   2.835  0.0912  0.0446 -0.2804
21860W        W37994  16.936   3.323   1.195 -0.1033 -0.2363 -0.1777
21861W        W37995  15.626   7.712   0.157  0.3912  0.4193 -0.1180
21862W        W37996   6.198   0.683   4.465 -0.3549  0.1158  0.0712
21863W        W37997  13.608   7.303  10.707 -0.1380  0.0056 -0.2373
21864W        W37998  12.213   7.631   5.169 -0.0389 -0.0907  0.2798
21865W        W37999  10.425  13.141  10.212  0.4167  0.4268  0.4646
21866W        W38000  16.625  12.011   4.748  0.0662 -0.2572 -0.0683
21867W        W38001   4.527  13.807   0.012  0.2582  0.0012  0.0083
21868W        W38002   7.897   4.766  12.940  0.1417 -0.1304 -0.0964
21869W        W38003  16.415  13.435  10.281  0.3047 -0.4092 -0.1171
21870W        W38004  13.401   0.555   0.182  0.4236  0.2477 -0.1905
21871W        W38005   1.812  12.691   0.442  0.2268 -0.2453 -0.0832
21872W        W38006   1.552   4.167  13.802 -0.1263 -0.0520 -0.1441
21873W        W38007   5.010   6.663  14.765  0.0687 -0.1250 -0.1347
21874W        W38008   9.772   3.423   4.571 -0.3254 -0.3042 -0.3500
21875W        W38009  13.858   3.339  12.794  0.0870 -0.2842 -0.0718
21876W        W38010  19.322   4.696   0.728  0.0037  0.1569 -0.0426
21877W        W38011   1.994  12.064   9.996 -0.1999  0.2347  0.0681
21878W        W38012  17.398   6.581   3.013  0.2649  0.2462  0.3506
21879W        W38013  10.611   5.281  10.624  0.0174 -0.0012  0.4279
21880W        W38014  19.210   3.726   0.390  0.2659 -0.2571 -0.0935
21881W        W38015  17.099   8.280  12.646  0.1850 -0.3225 -0.3663
21882W        W38016  12.869  16.792   0.600 -0.2756  0.2046 -0.1340
21883W        W38017  10.153   8.958  14.501 -0.0252 -0.0390 -0.0087
21884W        W38018   9.741   0.397   0.094  0.1450 -0.1729 -0.0615
21885W        W38019   9.218   0.337   1.538  0.0383 -0.3549  0.3643
21886W        W38020  10.737  18.036  12.913  0.0668 -0.3922  0.2105
21887W        W38021  13.669   1.486   0.328 -0.1269 -0.0904  0.1355
21888W        W38022  12.890   3.324   0.795 -0.1049 -0.0981  0.2151
21889W        W38023   0.174   4.071   4.279 -0.3067 -0.1042 -0.0459
21890W        W38024  12.303   9.374  13.646 -0.0619  0.0838  0.0065
21891W        W38025  16.014  13.962  11.641  0.1042  0.0686  0.0456
21892W        W38026  17.682  10.183   0.294  0.3606  0.1708 -0.2928
21893W        W38027  14.601   5.427  14.518  0.3611 -0.3033  0.0093
21894W        W38028  15.329  11.234   0.323 -0.4234 -0.3785  0.0488
21895W        W38029  12.154   4.179   1.781 -0.1139  0.0292 -0.0311
21896W        W38030   8.929   1.904   4.991  0.3600 -0.0419 -0.0554
21897W        W38031  16.099  13.708  15.003 -0.2027  0.1339  0.0945
21898W        W38032  13.453   2.194   4.376  0.0630  0.1384 -0.0789
21899W        W38033  13.964   8.501   3.472  0.0218 -0.2645  0.3479
21900W        W38034  15.068   1.277   0.351 -0.0033  0.0345 -0.0413
21901W        W38035   2.501   5.057  10.316  0.0397 -0.7002  0.1864
21902W        W38036   2.694   7.741  13.061  0.1854  0.0941  0.2775
21903W        W38037   0.444   0.504  14.174  0.2334  0.0787  0.1642
21904W        W38038  14.629  15.216  12.435 -0.3995  0.0009  0.0866
21905W        W38039  14.150  17.945  13.339 -0.3818  0.0072  0.2074
21906W        W38040   9.229   9.098   5.110  0.0881  0.2083  0.0234
21907W        W38041  11.944  13.100  12.269  0.5310  0.3839 -0.0978
21908W        W38042  16.633  13.537   3.489 -0.3719 -0.1893 -0.0338
21909W        W38043   3.649  12.610   3.980 -0.2445  0.0199  0.0149
21910W        W38044  17.609  19.169  11.752 -0.1108  0.1610  0.0856
21911W        W38045  19.252  14.419   3.516  0.1237  0.2726  0.0050
21912W        W38046  19.034   0.434   0.702 -0.2219  0.2562 -0.0263
21913W        W38047   1.696   9.833   3.583 -0.0874 -0.1341 -0.2328
21914W        W38048  10.286   4.851  11.978 -0.2035 -0.2409 -0.2055
21915W        W38049   0.880   2.427  14.183 -0.2521  0.0059 -0.1199
21916W        W38050  11.915  15.576  13.816 -0.0857 -0.2646 -0.0564
21917W        W38051   8.046   7.660  14.418  0.1007 -0.2484  0.3157
21918W        W38052  15.605   5.909  10.701 -0.3331 -0.1916 -0.0649
21919W        W38053  18.410   3.465  13.781 -0.3036  0.2819 -0.0450
21920W        W38054   0.539   0.116  14.451 -0.0181 -0.0992 -0.0715
21921W        W38055   3.216  11.876   3.766  0.2234 -0.4904  0.1921
21922W        W38056   1.931   3.474   2.152 -0.0107  0.0656  0.1042
21923W        W38057  12.476   1.948  12.448 -0.1673  0.0538 -0.0767
21924W        W38058  17.400  11.460  10.484  0.2306  0.0807 -0.0869
21925W        W38059  16.064   5.108  10.647  0.1342 -0.0412  0.2183
21926W        W38060  13.002   7.982   2.019  0.3270  0.3002 -0.0239
21927W        W38061  10.901   0.229   3.440  0.0813 -0.0743  0.1365
21928W        W38062  13.644  14.450   3.436  0.0121 -0.3200  0.1698
21929W        W38063   6.757   7.583   2.007 -0.0834  0.0096  0.2332
21930W        W38064   5.214   3.262  11.649  0.3123  0.0427 -0.2617
21931W        W38065   6.974   4.057  14.679 -0.0045  0.1413 -0.0684
21932W        W38066  16.185  18.544   2.249  0.2234 -0.0353  0.0661
21933W        W38067  17.047  13.271   3.236  0.3273  0.2517 -0.5468
21934W        W38068  14.371   9.834  11.128  0.1181 -0.1091 -0.5633
21935W        W38069   6.947  15.923  11.143 -0.1611  0.1021 -0.2561
21936W        W38070   6.714   0.870   4.581  0.3844  0.0413  0.2001
21937W        W38071  15.832   9.046   0.287  0.3950 -0.0932 -0.2923
21938W        W38072   3.756   2.868   1.494 -0.1428  0.1337 -0.0502
21939W        W38073  17.669  17.591  11.969  0.2061 -0.0172 -0.1002
21940W        W38074   3.482   2.538  12.918 -0.0533  0.0055 -0.2488
21941W        W38075   4.844   6.422  12.323 -0.1792 -0.2425  0.0776
21942W        W38076   9.384  13.546   3.501  0.1649 -0.1574  0.0233
21943W        W38077  15.210   9.035  14.544  0.2309 -0.2393 -0.0644
21944W        W38078   6.902   6.441  12.622 -0.0092 -0.1982 -0.3087
21945W        W38079  13.541   0.340   3.404 -0.0053 -0.0977  0.1095
21946W        W38080   2.551  11.960  14.380  0.0876 -0.0686 -0.2347
21947W        W38081   4.027  11.474   0.857 -0.2931 -0.0138 -0.0375
21948W        W38082   7.465  16.673   2.913  0.0502 -0.1238  0.0969
21949W        W38083   5.696   7.431   2.519 -0.2568 -0.0338  0.0315
21950W        W38084  18.000  19.335  14.218 -0.0597 -0.2379 -0.1975
21951W        W38085  11.450   8.334   1.922  0.2675  0.0439 -0.0436
21952W        W38086   5.243  10.488   3.240  0.2111 -0.4822  0.1222
21953W        W38087  14.279  14.087  14.915  0.0559  0.3181  0.1133
21954W        W38088   7.667   2.086  11.515 -0.1284 -0.0342 -0.0904
21955W        W38089  16.953  11.270  12.030  0.2351 -0.1990 -0.0977
21956W        W38090  12.712  17.918   2.463  0.1086 -0.0729  0.1497
21957W        W38091   2.215  15.444  10.549  0.3118  0.2327 -0.0127
21958W        W38092   8.959  10.904   0.883 -0.0455  0.1077  0.1086
21959W        W38093  10.236  17.125   0.569  0.0039  0.1138 -0.0591
21960W        W38094   3.660  16.364  11.922  0.0369  0.0025 -0.2237
21961W        W38095  15.140  11.623   2.373 -0.3657 -0.0472 -0.3627
21962W        W38096   3.759  11.640  10.024 -0.0842  0.0007  0.1545
21963W        W38097  11.472   4.287  14.530 -0.1503  0.0140 -0.1515
21964W        W38098  15.964  11.698   1.605  0.0676 -0.0038  0.0882
21965W        W38099   0.691   0.057  11.691 -0.1959 -0.0448  0.1954
21966W        W38100  16.775  12.936   4.144 -0.0131 -0.2920 -0.0126
21967W        W38101  10.138  11.365  10.615 -0.3105 -0.1883 -0.0421
21968W        W38102  19.265  18.561   1.753  0.1724  0.1245  0.1308
21969W        W38103   3.987   3.916   3.205 -0.0152  0.0215 -0.1592
21970W        W38104   0.595   9.356   3.508 -0.1025  0.1734  0.1960
21971W        W38105   5.820   9.893  12.873  0.2432 -0.0464 -0.2772
21972W        W38106  14.891  13.015   3.450  0.1909 -0.0384  0.0172
21973W        W38107   9.287  14.514  11.018  0.0291 -0.0697  0.2773
21974W        W38108  11.413   7.975   1.469  0.1391 -0.4570  0.1035
21975W        W38109   4.531   8.431   1.599  0.0849  0.0560  0.0486
21976W        W38110   8.554   3.951   9.740 -0.1951  0.2088  0.3999
21977W        W38111  12.946   0.756   0.547 -0.3424  0.0386 -0.0854
21978W        W38112   9.715  16.964  14.553  0.1051  0.1622 -0.0905
21979W        W38113  16.093   5.276  13.087 -0.1124  0.0786 -0.0360
21980W        W38114  12.405   3.798  11.358 -0.1219  0.1721 -0.1442
21981W        W38115   0.082  13.022   0.711 -0.3170  0.4483  0.1134
21982W        W38116  18.771   7.803   4.386 -0.1618 -0.1959  0.4145
21983W        W38117   3.344  10.427   4.537  0.0775  0.0406 -0.1657
21984W        W38118  17.362   5.673  10.684  0.0262 -0.0528 -0.0742
21985W        W38119   4.648   3.023  12.414 -0.1449 -0.4235 -0.0630
21986W        W38120   7.247   5.885  14.857 -0.0722  0.2295 -0.0261
21987W        W38121  14.254   1.284  14.288 -0.1054  0.0384 -0.0240
21988W        W38122   3.560   6.931   4.791 -0.0159  0.3496  0.1157
21989W        W38123  15.833  18.456   0.527  0.0884  0.1563 -0.2137
21990W        W38124   0.739   9.351   1.718  0.0051 -0.2570 -0.0777
21991W        W38125  14.652   3.951   2.544 -0.3374  0.0028  0.0329
21992W        W38126  12.231  15.817   2.618  0.0105  0.1704  0.0993
21993W        W38127   3.806  17.823  12.419 -0.5675 -0.1916  0.0307
21994W        W38128  16.435   2.215  13.745  0.0713  0.0808 -0.0135
21995W        W38129   0.382   2.576  11.519  0.2548 -0.1354 -0.2316
21996W        W38130   7.866   6.303   4.052  0.3324  0.2040 -0.0963
21997W        W38131  10.524  16.916  12.958  0.1552 -0.0319 -0.0457
21998W        W38132  13.832   3.262  10.209  0.1342 -0.0600  0.0116
21999W        W38133   0.146   6.114   0.900 -0.0978 -0.1121  0.1367
22000W        W38134   8.679  17.352   3.979  0.0512  0.2195  0.0775
22001W        W38135  13.215  11.500   4.398 -0.0757 -0.0500  0.3566
22002W        W38136   7.250  18.883  13.867 -0.1693  0.2722 -0.1762
22003W        W38137  14.901  13.912   1.481  0.0352  0.2406  0.1207
22004W        W38138  14.109   9.408  13.588 -0.2683  0.0104 -0.3474
22005W        W38139  18.224  15.129   1.269 -0.0371 -0.1779 -0.1523
22006W        W38140  18.577   8.182   0.211  0.0294 -0.1760 -0.3222
22007W        W38141   1.456   1.917   3.299 -0.1984 -0.2072 -0.2071
22008W        W38142   5.096  12.085  12.940 -0.1491 -0.0685 -0.0853
22009W        W38143   6.648   3.441   3.558  0.0345 -0.1978 -0.1151
22010W        W38144   5.894  12.429  13.313  0.0914  0.0356 -0.1594
22011W        W38145  16.055  12.298   3.647 -0.1623  0.0619  0.0690
22012W        W38146   7.690   7.812   4.511  0.2609  0.3216  0.0150
22013W        W38147  19.012  16.411   0.354 -0.1585 -0.0465 -0.0310
22014W        W38148   0.360   1.575  10.952 -0.2416 -0.0379 -0.1952
22015W        W38149  11.987   6.205  12.171 -0.1207  0.1652 -0.4628
22016W        W38150   0.928  19.091   1.742 -0.3311 -0.0542 -0.2267
22017W        W38151   9.739   5.417   1.276  0.4049  0.0810  0.2856
22018W        W38152  10.747   5.641   5.378  0.1206  0.2267  0.2208
22019W        W38153  18.998   2.619   0.317 -0.2295 -0.2493 -0.1348
22020W        W38154   0.970  11.802   0.905 -0.1343 -0.2957 -0.1516
22021W        W38155   4.705   5.598  10.727  0.0625  0.0153 -0.1965
22022W        W38156  15.413  18.526  10.262 -0.0971  0.1969 -0.2619
22023W        W38157  15.880   3.653   5.199  0.1328 -0.0715  0.1202
22024W        W38158   2.583   1.291  10.426  0.1232  0.1092  0.5043
22025W        W38159   1.395  14.299   4.469  0.1971 -0.4228  0.2046
22026W        W38160  18.444   9.676   0.452 -0.3690 -0.0612 -0.1026
22027W        W38161   7.852   6.840  13.308  0.0242 -0.3725 -0.1700
22028W        W38162   8.908   5.130  12.686 -0.2189  0.3340  0.5471
22029W        W38163  10.831   6.564  10.073 -0.0505  0.0899  0.0448
22030W        W38164   2.794   4.842   0.228  0.1875  0.0769  0.0980
22031W        W38165   3.149  10.518  13.738  0.3063  0.0837 -0.2973
22032W        W38166   4.961   3.952  13.990  0.1038  0.0193  0.0873
22033W        W38167   8.748  12.427   4.530  0.1376  0.1567 -0.1069
22034W        W38168   9.547  10.791   3.676  0.2148  0.0878 -0.0349
22035W        W38169   0.484  18.704  10.149 -0.0782  0.3713 -0.0923
22036W        W38170  10.584   9.407  12.431 -0.1879 -0.1337 -0.2142
22037W        W38171  11.172   6.965   4.451 -0.3523 -0.2306  0.2306
22038W        W38172  16.833  15.793   4.987  0.2616  0.0668 -0.0254
22039W        W38173  11.550   0.250   4.532  0.0587  0.0202 -0.0495
22040W        W38174  13.197   6.658   1.689  0.2361 -0.2698  0.2964
22041W        W38175  15.884   4.763   9.986  0.0974 -0.0658 -0.3081
22042W        W38176   8.911  14.859  12.316  0.0729 -0.1035  0.2442
22043W        W38177  13.948  13.346  11.186  0.4342  0.1604 -0.1762
22044W        W38178  17.918  16.279  11.488 -0.1069 -0.1557  0.2567
22045W        W38179   0.618  11.371  11.458  0.2887 -0.2186 -0.2117
22046W        W38180  18.382   2.672  10.208  0.4161 -0.0861  0.2035
22047W        W38181   6.834   9.305  13.970 -0.0106 -0.0274  0.1266
22048W        W38182  17.542  11.831  13.040 -0.4300 -0.1420  0.0682
22049W        W38183  18.663   1.563  14.414 -0.2710 -0.1624  0.1049
22050W        W38184  15.147   0.706  10.400 -0.1892  0.2845  0.0260
22051W        W38185  16.681  13.700  13.316  0.0195 -0.0490 -0.3530
22052W        W38186   8.911  17.085  13.728 -0.1174 -0.2241  0.0831
22053W        W38187  14.435  17.386   3.922 -0.1660  0.3834 -0.3086
22054W        W38188  10.528   1.813   1.554  0.1614  0.1093  0.1141
22055W        W38189  19.220   1.656  11.774 -0.3873  0.2584  0.0669
22056W        W38190  11.698  12.852  13.526 -0.2650 -0.1715  0.1316
22057W        W38191  16.198   0.392  13.783 -0.2723  0.2737 -0.0387
22058W        W38192  11.441  14.749  12.960 -0.0743 -0.0694  0.4710
22059W        W38193  12.367  15.219   0.398  0.0120 -0.1905  0.0289
22060W        W38194  13.171   7.054  14.351 -0.0001  0.4746  0.0459
22061W        W38195   3.910  18.972   3.834  0.2918  0.1460  0.2175
22062W        W38196   5.042  17.756   1.099  0.1399 -0.0366 -0.1119
22063W        W38197  14.552   4.614   4.291 -0.0628 -0.0673  0.2379
22064W        W38198   3.172  12.373  13.337 -0.2206  0.0685  0.4440
22065W        W38199  17.315   3.301   1.858 -0.0913 -0.0148  0.3221
22066W        W38200   5.990   2.901   3.712  0.0558 -0.1417 -0.0363
22067W        W38201   7.310  13.038   2.089 -0.2695  0.2389  0.1402
22068W        W38202   6.149  12.458  11.855 -0.0798 -0.2547  0.1920
22069W        W38203   0.001   5.914   1.856  0.0378 -0.1834  0.0645
22070W        W38204  11.697   6.253   2.667 -0.2621 -0.0126 -0.0013
22071W        W38205  12.440   2.493  11.844  0.0542 -0.2475  0.2599
22072W        W38206  18.782  12.651  13.821  0.3118  0.0877 -0.1673
22073W        W38207   0.363  17.030   5.171  0.3342  0.1743 -0.2615
22074W        W38208   7.763  15.328   3.700  0.0673 -0.0635  0.1015
22075W        W38209   8.955   1.052  13.689  0.1297  0.2099  0.1267
22076W        W38210   5.318  15.797   5.851 -0.2033 -0.1406  0.2346
22077W        W38211   0.080   3.328   2.351  0.0089  0.1750 -0.3516
22078W        W38212  13.509  17.997   2.147  0.1013 -0.1573  0.0563
22079W        W38213   1.600  12.852   4.998  0.0412 -0.0467  0.1704
22080W        W38214   8.635   4.982  11.469  0.2557  0.2365  0.0822
22081W        W38215  17.642  11.018  10.525  0.1363  0.0878 -0.1861
22082W        W38216  14.202   4.115  12.355 -0.3228 -0.0642 -0.2808
22083W        W38217   6.599  14.614  10.851 -0.0380  0.0201 -0.0978
22084W        W38218   2.331  11.006  11.607  0.0067  0.0113 -0.3077
22085W        W38219  15.226   7.161   4.696  0.0995  0.1315 -0.0632
22086W        W38220  17.463   1.183   3.008  0.0236 -0.0519 -0.1184
22087W        W38221  18.159   7.402  12.409  0.0675 -0.5076 -0.0612
22088W        W38222  11.168  10.476  12.631 -0.2549  0.0717  0.0241
22089W        W38223   4.222   6.198   2.512 -0.3816 -0.1209  0.0949
22090W        W38224  11.375  10.361   1.277 -0.2232  0.1924  0.0124
22091W        W38225  13.698   8.313   4.345  0.2977 -0.2015 -0.2520
22092W        W38226  12.195   7.047  12.139  0.1068  0.0404 -0.2227
22093W        W38227   6.128   3.212   0.649 -0.1232 -0.0831  0.0810
22094W        W38228   5.397  14.496  14.672  0.3655 -0.0366 -0.1482
22095W        W38229  11.082  19.041   1.140 -0.0032 -0.0008  0.0395
22096W        W38230  10.212   7.907  11.244 -0.1221 -0.1682  0.1182
22097W        W38231   4.320   2.617   4.171 -0.2145  0.1030 -0.0838
22098W        W38232  10.458   5.002  11.526 -0.1737  0.2195 -0.1085
22099W        W38233  15.559   3.399   0.297  0.0184  0.2131  0.2621
22100W        W38234   6.553   1.391   4.146  0.1654  0.0921 -0.1019
22101W        W38235  11.192  18.897  12.039  0.5077 -0.0514  0.0074
22102W        W38236   9.616  16.994   3.433  0.0513 -0.2691 -0.0103
22103W        W38237   3.721   7.761  12.188  0.1202  0.1790  0.2158
22104W        W38238   3.371   1.855  12.120  0.2221 -0.0767  0.2581
22105W        W38239   3.301   7.597  13.521 -0.0838 -0.1309 -0.0309
22106W        W38240  14.091   8.777   1.671 -0.0922  0.0341  0.0371
22107W        W38241   7.478  13.113  11.495  0.1064  0.3580  0.3729
22108W        W38242  13.500  19.300   4.685  0.0059 -0.1648 -0.1565
22109W        W38243   3.506   9.127  11.888 -0.1763 -0.1906  0.1591
22110W        W38244  17.178   4.063   4.679  0.1840  0.1887  0.1649
22111W        W38245  17.822  18.340  14.818  0.1159  0.0687  0.0867
22112W        W38246  11.868   0.321   0.257  0.3340 -0.0816 -0.0596
22113W        W38247   0.738  14.477  11.263 -0.2460  0.2534 -0.1356
22114W        W38248  14.311   6.142  14.372 -0.0741  0.1653  0.2685
22115W        W38249   0.702   1.042  12.426  0.1826 -0.1632  0.1355
22116W        W38250   5.131   6.932  12.103  0.1556 -0.2650 -0.0994
22117W        W38251   9.070   4.648   0.360  0.0942 -0.0614 -0.1441
22118W        W38252  14.583  15.886   1.202  0.1072 -0.0160  0.0959
22119W        W38253  10.110   9.984   9.586  0.2293  0.1999 -0.0646
22120W        W38254  18.798  12.224  11.500 -0.0112  0.1215 -0.2040
22121W        W38255  13.934  17.387  14.891 -0.0621  0.0094 -0.2150
22122W        W38256   0.844  10.805  10.921 -0.2265 -0.4587  0.0918
22123W        W38257   3.714   8.896   1.689  0.1393  0.4110  0.1681
22124W        W38258   5.188   1.543  11.897 -0.0844  0.0509  0.0634
22125W        W38259   3.331   0.079   4.468 -0.0390  0.0539 -0.0719
22126W        W38260  10.739  14.768  12.939 -0.1235 -0.0463 -0.0511
22127W        W38261   9.788   6.239   4.949  0.0788  0.1692 -0.0036
22128W        W38262  16.566  10.434  13.069 -0.0833 -0.1450  0.0342
22129W        W38263  15.997   6.102  13.585  0.1916 -0.3772  0.2639
22130W        W38264   5.455  16.982   4.290  0.1514  0.1143 -0.1546
22131W        W38265   3.529  18.996  14.987 -0.3370  0.0134 -0.0856
22132W        W38266   3.752  12.950   5.024 -0.3439 -0.2457  0.1344
22133W        W38267   2.071   1.476  10.487  0.3976 -0.1707 -0.3670
22134W        W38268  18.267  16.005  10.923 -0.0593 -0.0480 -0.0777
22135W        W38269  17.782  11.525   0.973 -0.0747  0.0820 -0.1898
22136W        W38270   9.933   2.289   5.591  0.2018 -0.2368 -0.2295
22137W        W38271  11.908   3.089  14.094  0.1092  0.1555  0.0663
22138W        W38272  16.010  13.560   4.585 -0.2063  0.1174 -0.2883
22139W        W38273   5.376  15.357  10.641  0.0775 -0.2710  0.3605
22140W        W38274  15.244   8.094  12.142 -0.0944 -0.3937  0.0931
22141W        W38275  18.499  17.718   3.127 -0.1030  0.1116  0.0123
22142W        W38276  10.456   4.867   2.189  0.2347  0.2056 -0.0678
22143W        W38277   1.376  11.283   0.238  0.0466  0.1284 -0.0994
22144W        W38278   4.408  19.172   1.138 -0.2877  0.1050 -0.1085
22145W        W38279  12.028   4.775   4.668  0.0256  0.1003 -0.1968
22146W        W38280  15.141  18.064   2.084  0.1394 -0.2921 -0.0297
22147W        W38281   8.447  18.415  11.989  0.0295  0.0469  0.1067
22148W        W38282  18.804   4.023   1.185 -0.0045 -0.1819  0.2904
22149W        W38283  14.367  19.252  11.028  0.0485  0.2727 -0.3341
22150W        W38284  13.370  15.149  13.837 -0.2411  0.3444 -0.2416
22151W        W38285  18.233   8.577   2.079 -0.1591  0.0602 -0.2435
22152W        W38286   9.245   9.398   4.166 -0.5217 -0.0338  0.3155
22153W        W38287   9.668  17.521  13.665 -0.2601  0.3877  0.4324
22154W        W38288  10.164  18.224  13.318 -0.1131  0.4325  0.0601
22155W        W38289  12.464   8.181  10.340  0.0616  0.0858 -0.1240
22156W        W38290  12.475   2.801   1.375 -0.3664 -0.1222 -0.0330
22157W        W38291  12.257   5.328   1.110 -0.0731 -0.1293 -0.0726
22158W        W38292  16.634   3.649   4.098  0.1657  0.2242 -0.1270
22159W        W38293  17.788   1.931   4.354  0.1048 -0.3701 -0.0688
22160W        W38294   5.188  17.583  14.491 -0.2078  0.0624  0.3557
22161W        W38295  13.280  17.442  11.078 -0.0148  0.0675 -0.2610
22162W        W38296   2.306   7.313  14.364  0.1778  0.2500 -0.2865
22163W        W38297  18.531  14.899  11.786  0.0271 -0.3703  0.2292
22164W        W38298  13.741  17.479   0.624 -0.1369 -0.3036  0.3395
22165W        W38299   4.100   9.301  11.885 -0.1383 -0.1959  0.0250
22166W        W38300  16.513   3.941   4.543  0.2278 -0.1052  0.0374
22167W        W38301   9.889   2.750  14.554 -0.0658 -0.1106 -0.0296
22168W        W38302   1.083   8.443   1.181 -0.1427  0.0946  0.2638
22169W        W38303   6.178   4.841   0.758  0.2389  0.0089 -0.0826
22170W        W38304  12.580  12.218  11.496  0.1990 -0.0177 -0.2418
22171W        W38305  11.823  11.108  11.107 -0.3081 -0.3355 -0.3860
22172W        W38306   2.457  18.556  13.933 -0.1547 -0.0507  0.2839
22173W        W38307   8.547  15.619  10.522 -0.0412  0.1425  0.1348
22174W        W38308  11.920  13.735  10.765 -0.1940 -0.1260  0.0908
22175W        W38309   8.003  16.040   2.243  0.0759 -0.0935  0.0369
22176W        W38310   4.956   0.357   1.573  0.0835  0.2360 -0.0933
22177W        W38311   2.621  14.190   5.280  0.0645  0.1421 -0.1700
22178W        W38312  17.002  12.731  13.021  0.2979  0.0273 -0.2393
22179W        W38313  11.137   8.900  11.139  0.2467 -0.2567 -0.1915
22180W        W38314  14.771  17.371  14.725  0.0991  0.2537  0.1701
22181W        W38315  14.771   7.632   3.624 -0.2636  0.0288 -0.0561
22182W        W38316  15.644   8.954   1.346 -0.1345  0.0387  0.2125
22183W        W38317   7.843   1.760   2.837 -0.3811 -0.1563  0.0016
22184W        W38318   5.547   0.754   3.209  0.0237  0.5127  0.0279
22185W        W38319   6.760  17.064  10.095 -0.1832 -0.0740 -0.1402
22186W        W38320   3.719  10.274   4.251 -0.2798 -0.0274  0.2559
22187W        W38321  12.263  17.223   4.072 -0.0530 -0.0546  0.3349
22188W        W38322  12.451   0.193  13.107 -0.1147 -0.0623 -0.1575
22189W        W38323  16.393   1.836  12.186 -0.0818 -0.3833 -0.2576
22190W        W38324   4.526   0.741  13.209 -0.0600  0.0994  0.2830
22191W        W38325   0.428  17.679   3.942  0.0135  0.0729  0.0033
22192W        W38326   3.211   3.720   5.516 -0.0916 -0.0126 -0.1467
22193W        W38327   7.755   0.422   3.527 -0.1978 -0.0600 -0.0530
22194W        W38328   3.678  19.146   3.279 -0.2234  0.0637 -0.0665
22195W        W38329   0.936   3.248  13.771 -0.0195  0.2478  0.1367
22196W        W38330   3.650   0.074  12.301  0.0906  0.0346 -0.0371
22197W        W38331  13.241   3.862  11.264  0.1015  0.2457 -0.0488
22198W        W38332   9.721   0.493  14.499  0.3144  0.2766 -0.3141
22199W        W38333   3.968   9.412  13.818  0.2507 -0.0305  0.0400
22200W        W38334  11.028  13.440  14.568 -0.1737 -0.4202  0.0440
22201W        W38335   5.628   2.465   2.260 -0.3478  0.0298 -0.0723
22202W        W38336  19.311  17.959   2.518  0.0437 -0.0301 -0.1274
22203W        W38337  11.124   1.729  13.441 -0.2105 -0.1769  0.0011
22204W        W38338  12.771   2.736  13.669  0.2464 -0.2320 -0.0503
22205W        W38339   4.861  18.676  14.851 -0.2125  0.0901  0.0604
22206W        W38340  17.956  14.011  11.925 -0.1686 -0.3376  0.0206
22207W        W38341   0.478   3.635  11.693  0.1945 -0.3191  0.2646
22208W        W38342  16.153  15.931   9.229  0.3640  0.1331  0.1059
22209W        W38343   1.246   8.870  12.334  0.1297  0.0057 -0.1641
22210W        W38344  17.975   9.087  11.790 -0.0286  0.2094  0.1720
22211W        W38345   3.113  12.957   4.854 -0.0982 -0.1909 -0.0961
22212W        W38346   2.064   1.947   0.625  0.0204  0.1377 -0.2925
22213W        W38347  13.611  15.794   5.097  0.0763 -0.0493 -0.0094
22214W        W38348   3.464  12.442  13.883 -0.0641 -0.2519  0.1066
22215W        W38349  17.797   7.209   3.589 -0.2622  0.0831  0.0165
22216W        W38350  13.447  16.497  13.572 -0.1215 -0.1895  0.0961
22217W        W38351  16.569   5.877   3.974 -0.0234 -0.2725 -0.3212
22218W        W38352  18.423   9.447   0.841 -0.2292  0.0106 -0.1275
22219W        W38353   7.325   3.904  13.012 -0.0954 -0.1550  0.2866
22220W        W38354   1.302   3.799   4.816 -0.2389 -0.0323 -0.2581
22221W        W38355  15.316   4.665  12.729  0.2290  0.1319 -0.1163
22222W        W38356  12.489  12.165   2.115 -0.2059  0.2354  0.0900
22223W        W38357   2.023  18.187   1.798 -0.1910 -0.2102  0.3203
22224W        W38358  17.342  18.524   9.741  0.2204  0.0437  0.1782
22225W        W38359  19.075   4.210   5.172 -0.1041  0.2313  0.0259
22226W        W38360   0.354  18.777   0.070  0.0719 -0.1461 -0.0821
22227W        W38361   5.479   9.430   9.332 -0.3934 -0.1462 -0.0041
22228W        W38362   7.080   1.873  14.223  0.0119  0.1756  0.0136
22229W        W38363   6.697  11.091   0.270  0.2087 -0.1717  0.3696
22230W        W38364  10.526   5.948  11.230 -0.1469  0.1661  0.0263
22231W        W38365  16.386  16.688  14.428 -0.0605 -0.1725  0.0519
22232W        W38366   2.301  17.533  11.859 -0.0390 -0.0155 -0.1010
22233W        W38367  17.024  10.812   4.239  0.0323 -0.3811 -0.1812
22234W        W38368  16.344   0.989  12.945  0.0998 -0.1291  0.0328
22235W        W38369   6.433  13.162   3.424 -0.1811 -0.2428 -0.3214
22236W        W38370   0.125   5.411   4.077  0.3056  0.0888  0.1563
22237W        W38371  18.377  15.289  13.955  0.1652 -0.0359  0.1416
22238W        W38372  16.199  15.946   2.986  0.0074 -0.6586  0.1498
22239W        W38373   0.328  11.426   3.989 -0.1781  0.1146 -0.4364
22240W        W38374   5.469  13.140  13.916  0.4935  0.2181 -0.3593
22241W        W38375  16.653  17.071  14.873 -0.1311 -0.0153  0.0201
22242W        W38376   8.467  14.875  11.556 -0.0827 -0.1425 -0.1712
22243W        W38377  18.621  18.137   2.830 -0.1200 -0.0502 -0.0797
22244W        W38378   8.815   7.288   4.792  0.0024 -0.2545  0.1643
22245W        W38379   3.431  11.213  14.230 -0.1107 -0.1787 -0.0353
22246W        W38380  10.056  10.191  10.984  0.2358  0.1033  0.3094
22247W        W38381   4.226  12.980  11.638  0.0316  0.1965 -0.2769
22248W        W38382  18.293  18.024   2.473 -0.1380 -0.1002  0.1649
22249W        W38383   8.414   7.910   3.541  0.0393 -0.1735  0.1740
22250W        W38384   3.348  17.471  12.517  0.2136 -0.0679  0.2265
22251W        W38385   6.043  15.879   2.272 -0.0832 -0.1037  0.1574
22252W        W38386  14.798   6.250   2.393 -0.0999 -0.2547  0.1660
22253W        W38387   2.603   9.414   5.180 -0.2451 -0.0584 -0.0838
22254W        W38388  10.465  12.270   0.462 -0.2446  0.0806  0.0757
22255W        W38389  12.318  12.857   5.174  0.0781  0.0142 -0.2808
22256W        W38390   2.672  11.074   4.413  0.0034 -0.0013 -0.0201
22257W        W38391   7.895  17.783  11.091 -0.0704  0.0725  0.0477
22258W        W38392   5.285  14.652  12.858 -0.0545 -0.2918 -0.2746
22259W        W38393  13.126  12.610  12.180 -0.1313 -0.1094 -0.2210
22260W        W38394   5.756   1.913  10.879  0.0839  0.1392 -0.0397
22261W        W38395  16.717   0.307   1.043  0.3374 -0.1488 -0.0477
22262W        W38396  15.643  10.279  14.166 -0.0999  0.1940  0.2515
22263W        W38397   7.629   5.384  13.522  0.0649 -0.1202 -0.0404
22264W        W38398  11.487  18.167   1.019 -0.2575  0.2132 -0.1095
22265W        W38399   2.377   6.420   0.073  0.4148 -0.1495  0.2248
22266W        W38400   5.757   5.206   4.661 -0.0608  0.2664 -0.1757
22267W        W38401   8.943   9.107   0.491 -0.2459 -0.1409 -0.2525
22268W        W38402   6.839   1.573  14.513 -0.0992 -0.0554  0.1565
22269W        W38403  15.156  11.702  13.474 -0.2746 -0.2298  0.0754
22270W        W38404  15.647  18.249   2.027 -0.1932  0.0206  0.0273
22271W        W38405   2.438   1.937   5.122 -0.0062 -0.1276  0.3492
22272W        W38406   3.986  14.502   1.080 -0.4625 -0.2283  0.1221
22273W        W38407  17.846   7.788   1.222 -0.1906  0.0745  0.3734
22274W        W38408  15.255  11.516   4.501  0.1856 -0.0194  0.1343
22275W        W38409  18.763   1.363   3.306 -0.2244 -0.0722 -0.0468
22276W        W38410  14.940  15.748   0.931  0.1275 -0.1276  0.1456
22277W        W38411   1.274   6.678   0.840  0.1402  0.3035  0.0772
22278W        W38412   1.012  10.307  10.800  0.0542 -0.0875  0.1726
22279W        W38413   7.248   8.042   3.791  0.2815 -0.0435  0.1164
22280W        W38414  10.179  10.298   3.198  0.1560 -0.2272 -0.0159
22281W        W38415   5.714   1.309  11.030 -0.1789 -0.0686  0.0040
22282W        W38416   4.933   0.693  12.985  0.2500 -0.3052 -0.0403
22283W        W38417   3.167   3.194   0.224  0.4289 -0.0481 -0.0376
22284W        W38418  19.240  15.570  11.337  0.2485  0.0654 -0.0610
22285W        W38419   5.384   4.217  13.412  0.1063 -0.1508  0.0751
22286W        W38420  10.433   2.419  13.223 -0.2595  0.1278  0.0272
22287W        W38421  19.014   0.691  10.865 -0.1663  0.2945 -0.2128
22288W        W38422  10.562  12.599  10.072 -0.3082  0.1863  0.2427
22289W        W38423   4.230   4.423  10.114  0.0688 -0.1770 -0.2256
22290W        W38424   6.509   1.119   2.527  0.1148  0.0154 -0.0709
22291W        W38425   3.799   8.355  12.782 -0.0749  0.0941 -0.1188
22292W        W38426   6.430   6.554   0.600 -0.3358 -0.2431  0.2986
22293W        W38427   1.495  14.487   1.215  0.2076 -0.2615 -0.2487
22294W        W38428  10.859  15.604   1.864 -0.1727 -0.1584 -0.0538
22295W        W38429  19.091   1.113  11.760 -0.0780  0.2025  0.1175
22296W        W38430  18.734   5.696  11.415 -0.0420 -0.0651 -0.2107
22297W        W38431   6.941   2.033  14.756  0.1765  0.2285  0.0400
22298W        W38432  17.332   6.976   3.520 -0.0648  0.2522 -0.3220
22299W        W38433  13.988  15.659   4.746  0.0911  0.0504  0.1409
22300W        W38434   4.692   4.293  10.450 -0.0674 -0.0346  0.2353
22301W        W38435  18.950  16.808   4.638  0.2391  0.1900 -0.0293
22302W        W38436  10.080  18.871   5.448  0.0553  0.0023 -0.0850
22303W        W38437   2.663  11.360  11.517  0.1770 -0.1003 -0.2314
22304W        W38438  15.606   4.604   1.040  0.1700 -0.0904  0.1810
22305W        W38439   3.495   4.038  11.173  0.1245  0.1264  0.3510
22306W        W38440  12.211  16.419   3.069 -0.0442  0.0601 -0.2309
22307W        W38441  16.692   2.315   3.285 -0.0125  0.1426  0.0767
22308W        W38442   2.799   4.974   9.875  0.2915  0.0243  0.2757
22309W        W38443   5.233   7.714  13.842  0.0889  0.1766 -0.0469
22310W        W38444   0.452  13.343   2.837 -0.1904  0.1226 -0.1223
22311W        W38445   9.901   4.042   1.607 -0.0354  0.0109  0.1583
22312W        W38446   3.363   9.134   3.625 -0.3101  0.2687  0.0204
22313W        W38447  16.270   9.902  10.299 -0.0402 -0.1825  0.4012
22314W        W38448  11.160   1.601  11.137 -0.1593 -0.1115 -0.3017
22315W        W38449   4.790  12.679  14.763  0.0029  0.0399  0.2139
22316W        W38450  16.443   6.961   2.206  0.1263  0.0190  0.0612
22317W        W38451  10.861   3.487  12.991 -0.0198  0.1327  0.2009
22318W        W38452   7.369   0.259   1.729  0.1974 -0.1319  0.0317
22319W        W38453  12.590  14.655  10.587 -0.2224 -0.0073  0.2019
22320W        W38454   5.242  11.739   2.531  0.1170 -0.0172 -0.1347
22321W        W38455   4.822  15.944   1.816  0.0978 -0.1773 -0.2224
22322W        W38456   7.653   1.646   9.688 -0.0539  0.0091  0.2209
22323W        W38457   6.342   7.361  11.129 -0.0330 -0.0622  0.0655
22324W        W38458   2.598   1.166  13.428  0.1055  0.0927 -0.1271
22325W        W38459  13.921   0.539   0.526 -0.0294  0.0655  0.0740
22326W        W38460  18.388  14.249   1.058 -0.0230 -0.1622 -0.1579
22327W        W38461  17.613  16.256  10.738 -0.0210  0.2289  0.2356
22328W        W38462  15.845   6.633  12.768 -0.0871 -0.1146 -0.1065
22329W        W38463  11.114  12.228  12.204 -0.0595 -0.0096 -0.0359
22330W        W38464   4.298   4.678   1.239  0.1015 -0.3688  0.0104
22331W        W38465  14.022  11.611  13.969 -0.2155  0.2980  0.0154
22332W        W38466  12.996   4.729   2.142  0.2305 -0.2406 -0.1706
22333W        W38467   9.664  16.883   1.473  0.0176 -0.5259 -0.1672
22334W        W38468   0.328   1.224  13.111  0.1570 -0.1614 -0.0735
22335W        W38469   1.004  10.850   9.988  0.0610 -0.0859  0.4578
22336W        W38470   2.773  13.269   5.703  0.0180  0.1862 -0.0816
22337W        W38471  16.769  17.309   9.585  0.0237  0.0406  0.3231
22338W        W38472   2.145  17.430   2.906  0.0711  0.0859  0.2737
22339W        W38473   4.978   5.038  14.071  0.1269 -0.3300 -0.3463
22340W        W38474   5.491   5.954  13.780 -0.1327 -0.0960  0.3801
22341W        W38475   9.268  12.619  11.623  0.0669  0.0222 -0.1070
22342W        W38476  11.817   2.068   0.257  0.2638  0.1815 -0.0923
22343W        W38477  12.337   1.521   2.964  0.5090 -0.0912 -0.0270
22344W        W38478   1.673   4.513   5.540  0.1611 -0.1974 -0.1934
22345W        W38479  10.751  13.466  11.169 -0.2294  0.1063  0.1051
22346W        W38480  17.837   7.264   2.759  0.2379 -0.1606  0.2283
22347W        W38481  17.693  13.215   2.746 -0.1603  0.0160  0.0834
22348W        W38482   5.710  11.737   4.877 -0.3903  0.2203 -0.5059
22349W        W38483  15.939  15.213   3.180  0.1139  0.1238 -0.0703
22350W        W38484  15.091   8.128   0.856 -0.0052  0.2722  0.2305
22351W        W38485  14.784   4.559   1.324 -0.4552 -0.2089  0.3413
22352W        W38486   5.243   1.125   1.217 -0.0912 -0.2411  0.0697
22353W        W38487  18.444   9.791   2.998 -0.1882 -0.1798  0.1955
22354W        W38488   3.273   2.993  13.003 -0.0564  0.1556  0.0921
22355W        W38489   9.432  16.673  13.552 -0.2346  0.1166  0.2269
22356W        W38490   3.964  12.261   3.161  0.2003  0.5063 -0.0756
22357W        W38491  15.980   7.135   0.890  0.0742 -0.1477  0.3547
22358W        W38492  11.793   4.643   2.805  0.0977 -0.1071 -0.0065
22359W        W38493  11.669  16.375   1.905  0.1367  0.0529 -0.0573
22360W        W38494  12.390  13.505   1.852  0.0547 -0.2200  0.0008
22361W        W38495  15.384   0.219   1.739  0.0186  0.0654  0.1298
22362W        W38496  10.931   9.003   9.654 -0.2469  0.0995  0.0240
22363W        W38497   0.514  16.847   0.479  0.0593  0.2406  0.2555
22364W        W38498  18.746   4.057   0.355  0.2469 -0.1223  0.0176
22365W        W38499   6.220   1.032   1.074 -0.1471  0.5355  0.2471
22366W        W38500  16.592  18.381  11.921  0.0261  0.1775  0.0349
22367W        W38501   8.620  14.711   4.269 -0.0945 -0.3020 -0.2068
22368W        W38502   6.135   5.167  14.663 -0.1339  0.2275 -0.1221
22369W        W38503   5.577  12.704  12.986  0.3416  0.3120 -0.1271
22370W        W38504  12.551  14.108  11.954  0.1416 -0.1254  0.2730
22371W        W38505   5.738   5.418   3.861 -0.0696  0.0327  0.0751
22372W        W38506  15.280  15.763  11.358 -0.3973 -0.0587  0.2695
22373W        W38507   6.332  17.038  11.144 -0.0152 -0.2885  0.0776
22374W        W38508   3.099   7.305  12.288 -0.0904 -0.0166 -0.0568
22375W        W38509   5.576  13.995   4.411  0.0951 -0.0327  0.0792
22376W        W38510  10.192   9.693   1.514  0.1036 -0.2776  0.1760
22377W        W38511  14.922   0.482   1.797  0.5043  0.0089  0.1552
22378W        W38512  16.916   7.581   2.403  0.2311 -0.2798 -0.0792
22379W        W38513   0.791  16.991  14.551  0.1783  0.0843 -0.1244
22380W        W38514   5.858   4.892   2.105  0.0801  0.2173  0.0856
22381W        W38515  18.613   2.253   2.624  0.1014 -0.1021 -0.2777
22382W        W38516   6.720  14.550  11.644  0.1133 -0.1407  0.1566
22383W        W38517  15.758   3.763  12.506 -0.2183 -0.2942 -0.1738
22384W        W38518  19.329  14.404  12.646 -0.1298 -0.0138  0.2949
22385W        W38519   0.732   5.357   4.821  0.0021 -0.1208  0.1625
22386W        W38520  15.889  19.028  11.001  0.2438 -0.2538  0.1116
22387W        W38521  14.000  14.187  10.156  0.1521 -0.0603  0.2901
22388W        W38522   2.935   7.848  11.543 -0.1382 -0.0925 -0.0196
22389W        W38523  16.575   1.717  13.558 -0.1988 -0.1835  0.1335
22390W        W38524  16.231   1.803  13.104  0.4277  0.0289 -0.3408
22391W        W38525   9.830  17.833   0.022  0.2197 -0.1599 -0.0560
22392W        W38526   1.658   5.013   2.920  0.0559 -0.0585 -0.1941
22393W        W38527   5.939  17.902  10.442  0.0842 -0.0272 -0.2124
22394W        W38528   6.062   0.775  10.846 -0.0734  0.3027 -0.0750
22395W        W38529   8.402  11.688  14.614 -0.3003 -0.0992 -0.0092
22396W        W38530  12.275  12.819  10.197 -0.2884  0.0275  0.0986
22397W        W38531   3.972  16.620  14.465  0.2641 -0.0144  0.1367
22398W        W38532   6.920  11.375  11.142  0.0769  0.1949 -0.1593
22399W        W38533   9.032  18.328  14.738  0.0584 -0.0468  0.1856
22400W        W38534   0.060  13.208  11.946  0.2586 -0.2030  0.3086
22401W        W38535   1.797   8.501   3.171  0.0747  0.1452  0.2988
22402W        W38536  15.406   0.846   4.407 -0.2480  0.0348  0.1267
22403W        W38537   4.842   4.701   1.471  0.0947 -0.3972  0.1362
22404W        W38538   4.591   4.562   4.343  0.0407 -0.0206 -0.2219
22405W        W38539  19.259   7.453   5.711 -0.0799  0.1953 -0.0075
22406W        W38540   9.526   4.349   5.080  0.0519 -0.2561 -0.3049
22407W        W38541  10.588  13.644   4.181 -0.5396  0.2626 -0.1914
22408W        W38542   4.658  16.798   0.061 -0.0296  0.0623  0.2381
22409W        W38543  10.501   1.761   2.523 -0.0876  0.2552  0.0459
22410W        W38544   7.144   3.969   3.389  0.1429 -0.1632  0.0169
22411W        W38545  13.759  18.527  12.837 -0.2368 -0.2656 -0.0430
22412W        W38546  17.517  13.408   3.605  0.1451  0.0116 -0.0336
22413W        W38547  14.391   0.720   0.090  0.0111  0.1261  0.0209
22414W        W38548   2.166   6.218   1.846  0.0608 -0.0796 -0.2049
22415W        W38549   3.321   9.474  11.509 -0.0988  0.0298  0.2918
22416W        W38550   5.520  14.732   1.873 -0.0029  0.0389 -0.0354
22417W        W38551  14.251   0.654   3.038 -0.0539 -0.0576 -0.1333
22418W        W38552  11.109   2.807  12.488 -0.2168  0.1792 -0.0967
22419W        W38553   3.837   5.976  11.781  0.3213 -0.1819  0.2724
22420W        W38554   5.195  15.841   2.082 -0.0290 -0.0914  0.1476
22421W        W38555  17.063   2.551   1.602 -0.1758  0.0373 -0.0251
22422W        W38556   4.944  10.323   0.004  0.0060 -0.2112  0.4278
22423W        W38557  18.711  14.069   2.504 -0.1727  0.0633  0.3051
22424W        W38558  12.972  15.957  13.863  0.0791  0.1436  0.2659
22425W        W38559   3.073   2.901   9.285 -0.0824 -0.1004 -0.1445
22426W        W38560   5.430  11.677   2.043 -0.0086  0.1518  0.0170
22427W        W38561  11.174  11.178   4.238 -0.1522 -0.0687 -0.1548
22428W        W38562  11.679  12.436  11.556 -0.0889 -0.1165  0.3888
22429W        W38563   9.742  15.358   0.481 -0.2812 -0.0260 -0.0835
22430W        W38564   5.830   0.663   1.766  0.1288  0.0881  0.0064
22431W        W38565   7.863  13.584   4.325 -0.0029  0.0124  0.1525
22432W        W38566   7.253   1.133   2.132  0.2296  0.1578  0.1308
22433W        W38567   0.537  12.828  12.433  0.0204  0.0314 -0.1229
22434W        W38568   6.057   5.442  14.236 -0.2953 -0.3729 -0.3176
22435W        W38569   2.479   0.209  13.091 -0.0543  0.0061 -0.1637
22436W        W38570   7.146   6.467   4.422 -0.1901 -0.2855  0.0985
22437W        W38571   6.975   8.576   3.066  0.0127 -0.0781 -0.0163
22438W        W38572   2.386   9.692   1.648 -0.0459 -0.0383  0.3070
22439W        W38573   9.981   1.160  13.379 -0.0347  0.2042 -0.1198
22440W        W38574   1.239  14.428  11.412 -0.1524 -0.2525 -0.0762
22441W        W38575   5.887   8.674   2.820 -0.0958 -0.1978 -0.2599
22442W        W38576  17.851   2.843  13.104 -0.0429  0.0107 -0.0637
22443W        W38577  15.306   9.753   2.293  0.3501  0.0333 -0.2486
22444W        W38578  18.121   5.910   0.669  0.0228  0.0596 -0.0834
22445W        W38579   9.595  10.897   0.927  0.0954  0.0796 -0.0641
22446W        W38580  17.553   0.578  10.116  0.1670 -0.1593 -0.2120
22447W        W38581   1.199  15.526  14.477 -0.1246  0.3162  0.0109
22448W        W38582   8.938   3.712   1.766  0.2130  0.1523 -0.0274
22449W        W38583   3.190   5.030   1.994  0.2463 -0.2826  0.1412
22450W        W38584   8.892   6.639  10.977  0.0352  0.0664  0.2387
22451W        W38585   6.798   5.142  14.366  0.1413 -0.3169 -0.6872
22452W        W38586   6.163  10.991  13.397 -0.0032  0.2332 -0.3446
22453W        W38587   4.395   0.904   2.403  0.0080  0.0809 -0.0956
22454W        W38588  11.824   5.288   3.770 -0.3738 -0.2058  0.1834
22455W        W38589   8.151  15.189   5.669 -0.3701  0.0751 -0.2220
22456W        W38590   9.869  11.036   1.610 -0.1244  0.3390  0.1689
22457W        W38591  15.557  18.577   0.109  0.0575 -0.0254  0.2881
22458W        W38592   4.792   6.758  14.054 -0.0046  0.2605 -0.1772
22459W        W38593  14.671  14.096  10.925 -0.3807  0.1502  0.1175
22460W        W38594   1.546  12.895  13.929 -0.0166  0.0644 -0.1861
22461W        W38595   0.819  14.497   0.196  0.2588  0.1393 -0.1216
22462W        W38596  13.474   3.668   1.521  0.0084 -0.3273  0.0281
22463W        W38597  15.739   2.330  10.786  0.0688 -0.0398 -0.1565
22464W        W38598   6.580  11.901   3.967  0.0904  0.4924  0.0427
22465W        W38599   8.182  16.353   1.834 -0.1433  0.2039  0.1520
22466W        W38600  18.771  15.597   9.617 -0.1486 -0.4232 -0.0007
22467W        W38601  18.098   9.786   1.115  0.0242  0.1633 -0.1563
22468W        W38602  18.081  16.974  13.232 -0.0990  0.0661 -0.2988
22469W        W38603   1.764   6.757   0.648 -0.0908  0.1929 -0.4176
22470W        W38604  12.583  10.561  11.594 -0.2175  0.4698  0.3157
22471W        W38605   5.007   7.645   3.914  0.0742  0.0587 -0.0272
22472W        W38606   8.245   0.638  12.561  0.0736 -0.1036 -0.0841
22473W        W38607  13.361  15.288  10.815  0.3753 -0.0147  0.1345
22474W        W38608   9.706   1.999   4.108  0.3327 -0.0615 -0.0092
22475W        W38609   3.954   9.695   3.624 -0.2813 -0.0674  0.2783
22476W        W38610   2.900  15.962  13.976  0.0296  0.2155 -0.1311
22477W        W38611  12.269   6.242   4.738  0.1049 -0.2234  0.0351
22478W        W38612   3.189   2.769  12.549  0.2006 -0.1806 -0.1347
22479W        W38613   3.290  11.446  14.672 -0.0096 -0.1934 -0.3989
22480W        W38614   9.308  12.320  12.394  0.3378 -0.1748  0.1146
22481W        W38615   6.252  12.745   1.430 -0.2119 -0.2781  0.1041
22482W        W38616  12.569   0.373   0.854  0.3171  0.3362 -0.0109
22483W        W38617  12.044  13.398   4.283  0.1157  0.1907 -0.3500
22484W        W38618   4.267  15.676  11.693  0.1040  0.1384  0.0697
22485W        W38619   4.485   5.591  12.159 -0.0574 -0.0185  0.1869
22486W        W38620   4.765  14.433  13.030 -0.4346  0.3599 -0.0744
22487W        W38621   3.870  10.496   0.984  0.1873  0.2120  0.1134
22488W        W38622  13.159   6.651  12.094 -0.1351  0.1253  0.0762
22489W        W38623  10.819  12.577  14.830 -0.0217  0.1699  0.1846
22490W        W38624  14.447   0.247   3.748  0.2480  0.1621  0.2159
22491W        W38625  18.061   2.889  12.122 -0.1180  0.2642  0.0847
22492W        W38626   4.462   4.263  11.535 -0.2404  0.3144  0.0215
22493W        W38627   9.789  11.832   2.031  0.0316  0.3186  0.0699
22494W        W38628  17.736  17.246   0.568 -0.1696  0.1610 -0.0469
22495W        W38629  18.009   6.673  13.452 -0.3678  0.2403 -0.3365
22496W        W38630  16.654  12.524  11.780 -0.3246  0.5358  0.0686
22497W        W38631  17.013   2.312   0.991  0.1646  0.2101 -0.1650
22498W        W38632  17.591   1.760  12.510  0.1307 -0.1658  0.0600
22499W        W38633   3.295   0.906   4.366 -0.1421 -0.2032  0.0225
22500W        W38634   7.309   8.310   4.906  0.2797  0.1371 -0.3569
22501W        W38635  10.338   8.181   4.838 -0.1089  0.0350 -0.0041
22502W        W38636  16.217   1.405  12.730  0.0216  0.2095 -0.1086
22503W        W38637   4.668  12.763   1.942  0.1219 -0.3417  0.2825
22504W        W38638  19.336  18.455  12.783  0.2756 -0.0643 -0.1109
22505W        W38639   0.566   7.991  14.802 -0.0176  0.2287 -0.2324
22506W        W38640   2.474   8.029  10.410 -0.0189 -0.2047  0.0218
22507W        W38641   6.639  14.853   4.455  0.0105 -0.0590  0.0408
22508W        W38642   4.993  10.761  13.492 -0.3238  0.0828 -0.1855
22509W        W38643   8.164   8.695  11.869  0.1891 -0.0745 -0.1548
22510W        W38644   9.233  16.964   1.204  0.1181 -0.1661  0.0807
22511W        W38645  17.288   4.333  10.190 -0.0042 -0.0737 -0.0408
22512W        W38646   3.519   9.976   0.873 -0.0956 -0.2920 -0.2099
22513W        W38647   8.255  15.896  12.659 -0.0391 -0.0076 -0.0096
22514W        W38648   6.594   8.560   1.885 -0.1384 -0.5687  0.0182
22515W        W38649   8.298   1.754   1.470 -0.2184 -0.0170 -0.1374
22516W        W38650   9.216   8.281   0.805  0.1226  0.4042 -0.3408
22517W        W38651  15.207  10.811  14.626  0.0990  0.0411 -0.1066
22518W        W38652  18.052   7.029   4.052  0.1548 -0.1277  0.4200
22519W        W38653  11.388  18.697   5.802  0.0766 -0.2483 -0.2459
22520W        W38654   0.835  11.231  14.706 -0.2520  0.0715 -0.0624
22521W        W38655  10.201   4.577  11.325  0.2492  0.3010  0.0817
22522W        W38656   5.216   3.771  12.282 -0.1332  0.0581 -0.0137
22523W        W38657  19.184   9.972   0.880 -0.0930  0.2219 -0.0004
22524W        W38658  16.599   8.873   3.357  0.0857  0.2731  0.1126
22525W        W38659   9.533  17.634  14.228  0.0365  0.4325  0.1894
22526W        W38660   5.897  15.836  13.610  0.2010  0.1456 -0.2329
22527W        W38661   3.765  12.279   0.997  0.2121 -0.1696 -0.1897
22528W        W38662  12.156  10.343   0.454 -0.1933 -0.1847  0.2851
22529W        W38663  11.604  19.183  11.711 -0.1115 -0.4078  0.0846
22530W        W38664  16.990   7.586   4.573 -0.3041 -0.1564  0.0031
22531W        W38665   9.027   3.171  14.304 -0.0202  0.0002 -0.1214
22532W        W38666   6.922   6.370  10.578  0.0630  0.0156 -0.1400
22533W        W38667   5.027   6.014  10.903 -0.1087 -0.0449  0.2420
22534W        W38668  11.682  15.582  14.282  0.1059 -0.0767 -0.1001
22535W        W38669   1.856   8.963   1.343 -0.0976 -0.1055  0.1566
22536W        W38670  12.054   9.490  14.055  0.0660  0.1329  0.2861
22537W        W38671   4.899  12.998  11.480  0.0804 -0.2146 -0.1717
22538W        W38672   0.520  18.957   0.680  0.2205 -0.2188  0.1460
22539W        W38673  17.263  18.975  14.082 -0.1724 -0.1758  0.0846
22540W        W38674  15.165  16.276  12.340 -0.1427 -0.3246  0.2539
22541W        W38675  16.305   3.747   2.160  0.0537  0.0424 -0.1372
22542W        W38676  13.756   4.380  10.666  0.1220  0.2326  0.0991
22543W        W38677   4.119   1.119  12.549  0.0842  0.1481  0.0012
22544W        W38678  13.182  15.499  13.574 -0.2873  0.0382  0.1385
22545W        W38679   2.217  16.754   1.808 -0.3185 -0.0579  0.0855
22546W        W38680   1.359   8.236   2.918 -0.2212 -0.0247  0.3435
22547W        W38681  15.556   8.937   3.069  0.3613 -0.0444 -0.1715
22548W        W38682   8.336   2.155  10.967  0.0507 -0.0561  0.0721
22549W        W38683  16.050   5.003  13.501  0.1136  0.2101  0.0845
22550W        W38684   3.257  14.831  14.383 -0.3438 -0.0613 -0.1109
22551W        W38685   0.701   6.237  14.910  0.1083 -0.1801 -0.0440
22552W        W38686   2.222   8.481   0.891  0.0061 -0.0993 -0.2484
22553W        W38687  13.264   8.544  14.074 -0.2888 -0.2107  0.0658
22554W        W38688   1.181   4.147   4.150  0.2523 -0.0919 -0.0998
22555W        W38689   1.088  14.384  12.725 -0.0698 -0.1166  0.1538
22556W        W38690  10.920   1.067   0.906 -0.0633 -0.2542  0.0972
22557W        W38691  15.251   2.435   2.343 -0.2756 -0.3022  0.2738
22558W        W38692  19.281  17.104   2.138  0.2102 -0.3132  0.0052
22559W        W38693  17.038   8.155  10.458  0.2418  0.0095  0.0903
22560W        W38694   9.312  13.431  11.813  0.0339 -0.2714  0.0150
22561W        W38695  17.510   4.376  12.677  0.0642  0.5006 -0.2244
22562W        W38696  13.996  15.401   2.540 -0.0531 -0.0665 -0.2288
22563W        W38697   9.458  11.548  13.656  0.0993  0.2157 -0.0175
22564W        W38698  16.872   0.555   1.488 -0.0334  0.0942  0.1918
22565W        W38699  14.094   6.465  13.166  0.6549  0.2588 -0.1054
22566W        W38700   2.067  16.862  14.492  0.1208  0.2774 -0.0813
22567W        W38701   4.562   4.209  13.605  0.1399  0.0894  0.2032
22568W        W38702   8.093  10.159  12.664 -0.1703 -0.2067  0.1615
22569W        W38703   3.513  11.955   5.482 -0.2242 -0.1920 -0.2235
22570W        W38704  18.870  15.444   0.669  0.1619 -0.0625 -0.0357
22571W        W38705  15.627  13.955  10.641 -0.0328  0.2304  0.4509
22572W        W38706  18.213   3.958   1.300 -0.2269  0.1331  0.1269
22573W        W38707   2.622   5.522  13.905  0.2412 -0.0478 -0.1897
22574W        W38708  12.221   4.941  10.057 -0.0753  0.1598 -0.1087
22575W        W38709  16.336   0.812  11.066  0.1062  0.2470 -0.0084
22576W        W38710   0.484   8.721   5.397 -0.0430 -0.1047  0.2531
22577W        W38711  12.837  12.626  11.561  0.4228 -0.2993  0.0192
22578W        W38712  14.475   5.040  11.856 -0.0038  0.1349  0.0768
22579W        W38713  16.344   3.870  13.261  0.0765  0.0598  0.0222
22580W        W38714   4.127  18.873   9.942 -0.1072  0.2047  0.0423
22581W        W38715   7.633   7.642   4.046 -0.3424  0.0539  0.1082
22582W        W38716   6.396  12.443   2.334 -0.3388 -0.3425  0.0992
22583W        W38717  16.659  17.860   0.349  0.1204  0.0832  0.2968
22584W        W38718   6.015  15.384  13.828  0.1658 -0.1893 -0.0083
22585W        W38719   6.374  16.547   0.380 -0.2971 -0.0396  0.1022
22586W        W38720   2.679  10.546   4.279 -0.0118 -0.1481 -0.1002
22587W        W38721   8.409   2.288  14.658  0.0448 -0.0241 -0.1950
22588W        W38722   7.118  15.428   0.507 -0.0768 -0.0444  0.2392
22589W        W38723   4.864   2.180   4.812 -0.0816 -0.1716 -0.0646
22590W        W38724   9.004   2.087   1.330  0.2690  0.0261 -0.0350
22591W        W38725  15.960   0.394   3.577 -0.0911 -0.3459 -0.1168
22592W        W38726   9.521   6.469   0.985  0.0940 -0.0604  0.0704
22593W        W38727   8.622  18.717  12.781 -0.3800 -0.1236 -0.2743
22594W        W38728  16.213  17.206  13.127  0.1879 -0.2401 -0.0076
22595W        W38729   2.884   4.829  11.684 -0.3052  0.0739  0.0540
22596W        W38730   8.290  15.344  13.459 -0.2296 -0.0964 -0.1519
22597W        W38731   6.953   7.742   3.503 -0.2595 -0.1457  0.1009
22598W        W38732   2.876   2.093  13.345 -0.4363  0.0241 -0.1374
22599W        W38733   7.718   4.414  13.884  0.2272  0.0452  0.2407
22600W        W38734   1.674  13.441  13.638  0.3009 -0.1045 -0.2107
22601W        W38735   7.082   4.444   3.244  0.1226  0.2655 -0.1984
22602W        W38736   9.905   4.794  11.655  0.0028  0.0293 -0.0067
22603W        W38737   4.904  12.025   1.194  0.3112 -0.1692 -0.1969
22604W        W38738   2.556   5.416   1.494  0.2241  0.0481 -0.2393
22605W        W38739  17.295   8.536  12.240 -0.0862  0.1204 -0.1285
22606W        W38740  12.565  13.638   2.359  0.3718 -0.1500  0.1315
22607W        W38741  10.510   2.691   1.228 -0.2987  0.2739 -0.0015
22608W        W38742  14.565  11.884   3.469 -0.0888 -0.1114  0.2534
22609W        W38743   8.705   1.022  12.700 -0.0772  0.1158 -0.0563
22610W        W38744   8.191   1.954   9.781  0.4150 -0.1924  0.5597
22611W        W38745  16.633   0.482  10.795 -0.1407  0.1410  0.3461
22612W        W38746  16.012  11.745  13.473  0.1482  0.3563  0.2050
22613W        W38747  13.950   3.569   1.797  0.5211 -0.4847  0.2717
22614W        W38748   9.774   3.765   0.686  0.1005  0.4293  0.0568
22615W        W38749  18.108   3.486   1.499  0.2271  0.0521  0.1984
22616W        W38750   7.894  12.602  14.325  0.0739  0.5174 -0.0763
22617W        W38751  16.009   9.018  13.489  0.1073  0.3739 -0.3701
22618W        W38752   7.880   9.031  10.917 -0.0886 -0.2564 -0.2881
22619W        W38753   9.903  11.699   0.878  0.0370 -0.1211  0.2500
22620W        W38754   6.549   9.186  12.515  0.0182 -0.0687  0.3859
22621W        W38755   2.438  14.400   1.079 -0.0715  0.1019  0.1811
22622W        W38756   0.132   8.296  14.997  0.0186 -0.2821 -0.3454
22623W        W38757  18.947   1.192  14.268 -0.0857 -0.0851  0.3213
22624W        W38758   1.997   4.187   4.215  0.0116  0.1616 -0.0340
22625W        W38759   3.764  12.270  12.694 -0.1480  0.1611  0.1402
22626W        W38760   6.180  11.573   4.174  0.1889  0.2189 -0.3435
22627W        W38761  11.263   1.922  10.795  0.1131 -0.0593  0.1430
22628W        W38762   5.533  11.939   9.818  0.0765 -0.0772  0.1857
22629W        W38763   1.895   1.724   1.546  0.0884  0.3189 -0.1010
22630W        W38764  15.816   2.830   3.158  0.2419  0.3704 -0.0252
22631W        W38765  12.182  10.752  12.553 -0.0358  0.0128 -0.1630
22632W        W38766  13.496  11.773  14.703 -0.0778  0.3996 -0.2528
22633W        W38767  15.445   1.057   3.375  0.0162  0.0326 -0.0075
22634W        W38768   8.827   3.667   4.380 -0.1954  0.0559  0.1363
22635W        W38769  16.892  18.331   2.780 -0.1123  0.1402 -0.1960
22636W        W38770   6.017  16.678  13.151 -0.1204 -0.0394  0.1412
22637W        W38771  11.513  14.928  14.318  0.1281 -0.3979 -0.1633
22638W        W38772  15.884   8.122   2.194 -0.1642 -0.3042  0.1732
22639W        W38773   2.097   5.945   2.666 -0.2607 -0.0356  0.0750
22640W        W38774  14.980   5.334  11.064 -0.0660  0.0453 -0.0724
22641W        W38775   5.766  14.117  12.670  0.0786 -0.1409  0.1090
22642W        W38776   4.008  12.152   1.952 -0.0611  0.1726 -0.1152
22643W        W38777  13.060  15.942  10.153 -0.2546  0.0759  0.0002
22644W        W38778  18.561   7.650  14.313  0.1022 -0.0689  0.1365
22645W        W38779  13.987   9.773  14.935 -0.1034 -0.0386  0.0979
22646W        W38780  16.576   8.649   2.362 -0.0286  0.0270 -0.2263
22647W        W38781  15.213   1.646   9.880 -0.3922 -0.0315  0.0368
22648W        W38782   6.086  13.863  14.998 -0.2797 -0.0336 -0.1079
22649W        W38783  15.320   4.100  10.693 -0.6102  0.2548  0.0609
22650W        W38784   9.615   8.699   0.211 -0.1057 -0.0151  0.0296
22651W        W38785  14.106   5.424  11.752 -0.0770 -0.3644 -0.0851
22652W        W38786  16.913  14.628  14.518 -0.0110 -0.1330  0.0974
22653W        W38787   4.123   5.508  13.603  0.3131 -0.5725  0.1397
22654W        W38788  17.367   8.822   0.457 -0.0344 -0.1058 -0.1892
22655W        W38789  18.154   5.078   4.332  0.2960  0.0648  0.0345
22656W        W38790  11.686  15.810  13.475  0.0632 -0.1773  0.2075
22657W        W38791   7.690  14.153  10.882 -0.0076 -0.4254 -0.2347
22658W        W38792  18.134  14.790   0.817  0.0009  0.1701 -0.2218
22659W        W38793  10.308  15.155  10.470 -0.4686  0.0362  0.0268
22660W        W38794  13.290   1.099  12.796 -0.0471  0.2409 -0.0450
22661W        W38795  15.939   9.196  14.449 -0.1571 -0.1233 -0.1513
22662W        W38796  15.362   7.952  10.624  0.1298  0.0340  0.3316
22663W        W38797   4.862  17.293   2.641  0.2057 -0.0388  0.0266
22664W        W38798  11.365  12.567  14.802 -0.2254 -0.1519 -0.2258
22665W        W38799   0.081  10.128  13.265 -0.0690 -0.2086 -0.1482
22666W        W38800   6.675   2.260  13.718 -0.0637 -0.1178  0.1331
22667W        W38801  12.226  13.341   3.771 -0.1669 -0.1547 -0.0538
22668W        W38802  14.433   6.906  10.391  0.0465  0.1243 -0.1648
22669W        W38803  12.842   1.777   3.963 -0.4281  0.0105 -0.2139
22670W        W38804  10.954   5.663  11.349 -0.0979  0.0246 -0.1723
22671W        W38805   9.447  13.505   1.085 -0.0020  0.2904 -0.0836
22672W        W38806   7.498  17.525  12.611 -0.2612  0.1334  0.3820
22673W        W38807  10.510   5.668  10.246 -0.1634  0.0028  0.3096
22674W        W38808   1.363  14.541  13.460 -0.1852  0.2772  0.4348
22675W        W38809  19.303   0.419   9.284  0.2928 -0.3524  0.0473
22676W        W38810  14.304   8.139   4.376  0.1247  0.2492 -0.0821
22677W        W38811   5.264  15.640  12.639 -0.0429  0.2164 -0.1439
22678W        W38812  10.147  16.034   1.283 -0.1257 -0.0522 -0.3218
22679W        W38813  16.791   9.776   2.871  0.0473  0.1215  0.2808
22680W        W38814  11.998  14.805   1.169  0.0623  0.1601  0.2696
22681W        W38815  13.709   7.764  14.482  0.2072  0.2439  0.2093
22682W        W38816  16.645   2.444  11.738 -0.1111  0.3176  0.0160
22683W        W38817   6.546   7.413  10.346 -0.1979  0.2907  0.0055
22684W        W38818  14.527   9.685  10.703  0.3048 -0.4172  0.0799
22685W        W38819   1.617  12.340  10.344  0.0614 -0.1779  0.1449
22686W        W38820   0.193  15.780  13.506  0.1482  0.0383 -0.2063
22687W        W38821   9.159   6.822   3.227 -0.0407  0.0627 -0.2320
22688W        W38822  17.258  12.336  12.908 -0.3281 -0.2219  0.1571
22689W        W38823  16.302  10.235   3.849 -0.1079  0.3283  0.2325
22690W        W38824  15.604  14.619   2.444  0.1360 -0.2024 -0.2148
22691W        W38825  11.942   4.826  12.141  0.0612  0.4177 -0.1956
22692W        W38826   9.491   5.148  13.396  0.1339 -0.1480  0.0277
22693W        W38827   2.333   5.414  12.498 -0.1969  0.1939 -0.4933
22694W        W38828  16.156   0.382   2.985  0.4784 -0.1894  0.2101
22695W        W38829   7.810  15.830   4.368 -0.2550  0.3223  0.0941
22696W        W38830   0.476   0.487   1.989 -0.3455  0.0709  0.0416
22697W        W38831  16.105   5.576  13.468 -0.3833 -0.1402 -0.0982
22698W        W38832   1.765  10.951   3.659 -0.2608  0.2343 -0.2753
22699W        W38833   3.670   0.056   1.667 -0.1201  0.2044 -0.3403
22700W        W38834  19.151   7.366   3.258 -0.0094  0.0576 -0.3946
22701W        W38835   8.035   6.440  10.568  0.0466 -0.3746  0.2064
22702W        W38836  18.422   8.608  13.679 -0.2597 -0.0549  0.1115
22703W        W38837   2.027   4.613   5.248 -0.0966  0.1968  0.0881
22704W        W38838   9.425   9.936   4.426 -0.0722  0.0696  0.0987
22705W        W38839  18.970   7.369   4.513 -0.0024  0.0749 -0.2392
22706W        W38840   7.167  16.310   0.953 -0.0296 -0.0500  0.2367
22707W        W38841  15.543   7.077  11.430 -0.0076 -0.1290 -0.3401
22708W        W38842  18.233  18.107   4.747 -0.2500 -0.0447 -0.1966
22709W        W38843   0.049  15.440   0.879  0.4998  0.6638 -0.0039
22710W        W38844   6.575   1.213   1.496 -0.0344 -0.1114  0.2638
22711W        W38845  13.411  13.882   0.891  0.2259 -0.1453 -0.1914
22712W        W38846   6.268  18.127   3.163 -0.1722  0.0823 -0.0906
22713W        W38847  18.437  14.437   1.539  0.0447  0.4547 -0.2848
22714W        W38848   4.768  15.615  11.780  0.2730 -0.2584  0.1416
22715W        W38849   0.090   0.338   1.718  0.0405 -0.3388  0.3780
22716W        W38850   1.596  11.562  13.523  0.2602 -0.1626  0.1319
22717W        W38851  17.495  13.048   4.074 -0.1383 -0.1186 -0.0812
22718W        W38852   2.682  10.807   2.154 -0.1471  0.2177 -0.2108
22719W        W38853  13.505   3.275  12.420  0.2945 -0.0580 -0.2429
22720W        W38854  11.313   1.219  12.883 -0.5196 -0.1147  0.2389
22721W        W38855  17.274  16.946  12.615  0.3657  0.0442  0.1320
22722W        W38856   5.397  11.286  10.888 -0.4036  0.0781  0.3574
22723W        W38857  13.152  10.657   1.518  0.0438 -0.1560 -0.1386
22724W        W38858   6.754   3.220   5.368 -0.3364  0.0204 -0.1648
22725W        W38859  12.390  14.184  10.842  0.1333  0.4972 -0.1357
22726W        W38860  11.978  12.916   4.603 -0.0441  0.1878 -0.0687
22727W        W38861   7.383  12.308   4.238  0.2433 -0.0989  0.0479
22728W        W38862  16.151   5.282   3.199  0.4813  0.0751  0.2450
22729W        W38863   6.342  18.155   0.710 -0.1937  0.4991  0.1415
22730W        W38864   5.318  11.503   3.833  0.2455 -0.0838 -0.0578
22731W        W38865  15.091   8.153   2.674  0.1021 -0.4258  0.1545
22732W        W38866  15.297   4.597  13.850 -0.2812 -0.0671 -0.4009
22733W        W38867  11.500  11.827  10.253  0.0350  0.1391  0.3688
22734W        W38868   8.922  12.891  13.201  0.3340 -0.1851  0.0580
22735W        W38869  12.949   2.914   5.026  0.2194  0.1347 -0.1909
22736W        W38870   8.314   0.618  14.332 -0.0545 -0.4294  0.0619
22737W        W38871  13.686  12.713  11.405 -0.1606 -0.1276  0.1368
22738W        W38872  18.708   3.495   9.137  0.3094 -0.1066 -0.0039
22739W        W38873   9.494  14.609   1.063  0.1468 -0.0081  0.0130
22740W        W38874  18.005  13.569   4.426  0.0620 -0.0834 -0.4976
22741W        W38875   8.691   7.113   1.142  0.1881 -0.3031 -0.2018
22742W        W38876  13.645   6.503   4.728  0.0760 -0.0196 -0.3061
22743W        W38877  10.472  16.799  11.980 -0.1271  0.2570  0.3464
22744W        W38878  15.487   5.716   2.526 -0.1055  0.0393  0.0786
22745W        W38879   5.576   6.342   4.255  0.3011  0.3030 -0.1005
22746W        W38880  12.873  12.028  10.403 -0.0835 -0.0262 -0.0081
22747W        W38881   3.897   1.372   3.569  0.0390 -0.0290  0.0614
22748W        W38882  13.220   0.424   3.922  0.0677  0.0693 -0.0743
22749W        W38883   5.317   4.880   4.776 -0.1226 -0.1026 -0.0812
22750W        W38884   9.406  10.869  11.126  0.2202  0.0988 -0.1051
22751W        W38885   1.167  12.050   4.618 -0.1662  0.2783  0.1298
22752W        W38886   8.002   9.998  14.666 -0.2283  0.4483 -0.1649
22753W        W38887  18.116  16.289   1.569  0.0083  0.1236 -0.0192
22754W        W38888  18.199   6.385  10.890 -0.0191  0.2875 -0.2889
22755W        W38889  11.491   5.901   3.698 -0.1116 -0.0725  0.1767
22756W        W38890  18.481  14.474   2.677 -0.3612  0.2824  0.0073
22757W        W38891  11.737   8.446   4.785 -0.0040  0.2176  0.0608
22758W        W38892  14.403   8.421  14.486  0.1257 -0.0639 -0.1038
22759W        W38893  14.306  15.006   0.696  0.0277  0.0047 -0.0832
22760W        W38894  11.135  13.877   5.230  0.1900 -0.1797 -0.2547
22761W        W38895   9.284  17.275   4.366  0.1784 -0.3665  0.0326
22762W        W38896  18.533   7.822  11.823 -0.1050  0.0371 -0.1966
22763W        W38897   2.286  15.791   2.345 -0.0984 -0.3894  0.1282
22764W        W38898  15.146  16.308   9.203 -0.0506  0.3848 -0.0843
22765W        W38899  14.594   6.676   1.050 -0.0169  0.0957  0.0350
22766W        W38900   1.818  14.892   3.880 -0.2370  0.2527  0.2003
22767W        W38901   3.681   1.305   4.092  0.0080  0.2343  0.3743
22768W        W38902  13.692  10.866   3.165  0.0924  0.0417  0.3513
22769W        W38903  13.474  10.168  11.084  0.0347 -0.3713  0.0340
22770W        W38904  10.449   0.168  13.945 -0.0928 -0.0057  0.0685
22771W        W38905   7.253   5.695  10.420 -0.2404 -0.1529  0.3986
22772W        W38906   1.255   4.209   3.272  0.0031 -0.0474 -0.1545
22773W        W38907  12.119   2.859   3.379 -0.1648 -0.1535  0.0490
22774W        W38908   3.640   7.453   1.543 -0.2285 -0.4589 -0.0610
22775W        W38909  16.696   6.121   1.787  0.0515  0.0529  0.0305
22776W        W38910  13.474   8.352   3.543 -0.0459 -0.0392  0.1438
22777W        W38911   3.304   1.920   4.593  0.1524  0.1312 -0.1519
22778W        W38912  12.993   4.052   2.182 -0.1772  0.0921  0.1674
22779W        W38913  11.502  15.093   4.075  0.3928  0.2394  0.0503
22780W        W38914  11.776  10.221  14.706  0.1882  0.1781  0.3173
22781W        W38915   8.123  13.258   6.161 -0.0479  0.1007  0.1998
22782W        W38916   2.812  18.496   1.711  0.0690  0.0986  0.3450
22783W        W38917  12.119   3.878   0.530 -0.1801  0.0755 -0.5003
22784W        W38918   1.295  15.141  12.894 -0.0483  0.1433  0.0784
22785W        W38919  16.573   5.543   0.089 -0.2530  0.4361  0.1565
22786W        W38920  16.529   7.538  12.555  0.4816 -0.1259  0.2787
22787W        W38921   4.762  14.022  14.137 -0.0516 -0.1566  0.3064
22788W        W38922   5.806  14.845  12.080 -0.0033 -0.2661 -0.2161
22789W        W38923   1.715  13.212  13.007 -0.4672  0.1166 -0.0154
22790W        W38924  12.467   1.203  10.746  0.0891  0.0911  0.3242
22791W        W38925   0.419   6.438   0.674  0.2769 -0.4740  0.1607
22792W        W38926   4.549   2.534  12.398 -0.2001  0.5033  0.0748
22793W        W38927  11.124   9.882  11.976  0.1624 -0.1590  0.3200
22794W        W38928   9.692  10.106  11.781 -0.3783 -0.2273  0.0316
22795W        W38929   2.388  13.196  11.029 -0.2008 -0.1541  0.0468
22796W        W38930   1.045   1.065   1.980  0.0989  0.2574 -0.2893
22797W        W38931  14.319  10.626  14.578 -0.1004  0.1708  0.0774
22798W        W38932  12.840  10.122  13.976 -0.1538 -0.2090  0.1215
22799W        W38933  17.685   6.355   2.545 -0.2273  0.0203  0.0365
22800W        W38934  12.028   9.702  13.166 -0.0457  0.2247 -0.0532
22801W        W38935   2.619  18.252  13.587  0.2590  0.1443  0.0286
22802W        W38936   4.775  17.840  12.654  0.2572 -0.0853  0.0117
22803W        W38937  10.928  15.379  10.802 -0.0655  0.0413 -0.1000
22804W        W38938  14.023   1.072   3.224 -0.0266 -0.0954  0.0393
22805W        W38939  18.161   2.891  13.721 -0.0876  0.2064 -0.3018
22806W        W38940  10.643  17.955   1.659  0.3252 -0.3177  0.1213
22807W        W38941  11.348   2.286   0.163 -0.2313 -0.2881  0.3216
22808W        W38942  10.797  11.459  10.084  0.0480 -0.0345 -0.5405
22809W        W38943  18.371  15.703   2.080 -0.0522 -0.0805 -0.1841
22810W        W38944   7.039   9.295  11.093  0.4475 -0.1344  0.1744
22811W        W38945  18.726   8.825   1.510  0.1205  0.0188  0.1885
22812W        W38946   5.931   1.823   1.581 -0.0808  0.0361 -0.0747
22813W        W38947  11.253   5.816   0.529  0.0149 -0.0703 -0.1195
22814W        W38948  16.800   8.792   4.877  0.0385  0.0975  0.2295
22815W        W38949   8.229  18.860  11.948  0.2024 -0.0922  0.2183
22816W        W38950   1.998  15.373   3.909  0.0595  0.4388 -0.4731
22817W        W38951  14.687  18.267  13.722  0.0686  0.2375 -0.0139
22818W        W38952  15.575  11.809   2.487 -0.0236  0.0969  0.1818
22819W        W38953  12.700  13.629  14.824  0.1061  0.1856  0.1439
22820W        W38954   3.116  17.599  12.982 -0.1047  0.7684  0.0035
22821W        W38955  10.899   7.485   3.510  0.1280  0.1090  0.1151
22822W        W38956  11.004   3.295   3.779  0.0439 -0.3433 -0.0945
22823W        W38957   6.490   7.682  12.316 -0.0679 -0.0468  0.0343
22824W        W38958  18.187   7.483   1.513  0.2299 -0.2618  0.4328
22825W        W38959  13.177   6.970  12.518 -0.1131 -0.0455  0.1370
22826W        W38960  10.491  17.196   3.862  0.0600  0.1033 -0.0850
22827W        W38961   8.364   8.844  11.424  0.0692 -0.2162 -0.0211
22828W        W38962  15.836   3.737   0.679  0.1625  0.0992  0.2525
22829W        W38963   9.017   7.852  14.287 -0.1243 -0.1576 -0.2620
22830W        W38964  18.559  10.784  11.389  0.1092 -0.1302  0.2829
22831W        W38965   6.147  18.480   4.701  0.0434  0.0737 -0.1343
22832W        W38966  18.402   4.428  14.086 -0.1687 -0.0194 -0.1591
22833W        W38967   1.810   1.019  12.357 -0.1725  0.4690  0.1960
22834W        W38968  16.393   4.847  13.067 -0.0884 -0.0370  0.2103
22835W        W38969   0.601  15.478  13.414  0.1300  0.0130 -0.0063
22836W        W38970  12.838  10.023   3.221  0.1059  0.1032 -0.1314
22837W        W38971   7.337   5.608  12.242  0.0244  0.1862 -0.0409
22838W        W38972  12.414  13.068   4.389  0.3228 -0.1061 -0.0090
22839W        W38973  13.467   5.216  12.878 -0.4200  0.0451  0.0819
22840W        W38974   0.443  14.305   3.360  0.2375 -0.2387  0.1489
22841W        W38975   9.160  11.838   3.280  0.2130  0.1339  0.1619
22842W        W38976   3.197  17.139  14.331  0.0651  0.0351 -0.0570
22843W        W38977  13.690  14.205   0.604 -0.1053  0.0001 -0.0078
22844W        W38978  16.885  17.562  11.070  0.1868 -0.1095 -0.0929
22845W        W38979  19.006  11.302   1.089 -0.2280  0.0157 -0.0618
22846W        W38980   0.916   6.909   2.914  0.0574  0.0500 -0.0854
22847W        W38981  13.408  10.138   0.349  0.2217 -0.2051 -0.1356
22848W        W38982   1.035  17.937  13.566  0.2206 -0.1753 -0.2126
22849W        W38983  15.156   0.646  13.540  0.0980 -0.0912  0.0239
22850W        W38984   3.678  19.232   4.222 -0.1276  0.1030 -0.2285
22851W        W38985   0.434   4.794  11.224  0.1570  0.1099 -0.2008
22852W        W38986   6.845  14.884   2.265 -0.1215  0.3420 -0.0276
22853W        W38987   4.514   1.584  14.379  0.0159 -0.1554 -0.1294
22854W        W38988  17.200   9.845   1.041 -0.0574 -0.0752 -0.3627
22855W        W38989  18.979  18.921  12.448 -0.1219 -0.1262 -0.0494
22856W        W38990  13.283   4.309  10.365 -0.0042  0.4022 -0.0169
22857W        W38991   1.404   3.512   3.901 -0.3169  0.0969 -0.1580
22858W        W38992  15.280  18.563  14.649  0.2997 -0.1550 -0.0151
22859W        W38993   1.198  12.807   2.715 -0.4139  0.3366  0.0248
22860W        W38994   0.987   0.860  12.052 -0.0211  0.3138  0.0827
22861W        W38995  17.625   3.091  11.928  0.0595 -0.2941 -0.1272
22862W        W38996  14.479   1.678  11.366 -0.0589  0.1399  0.2206
22863W        W38997   9.985  13.517  12.479 -0.1801 -0.1170  0.1445
22864W        W38998  18.645  11.410   4.963  0.5273 -0.0807 -0.1213
22865W        W38999  18.120  12.473  13.034  0.0932  0.1205 -0.3815
22866W        W39000   0.053  12.361   2.156 -0.0687  0.1454 -0.2172
22867W        W39001   2.522  15.506   3.693  0.1867 -0.3438 -0.0357
22868W        W39002  12.752   8.284   1.081 -0.2148  0.4365 -0.0759
22869W        W39003  12.667   9.347   4.484 -0.1812 -0.1462  0.0701
22870W        W39004  13.854   9.762  11.232 -0.0030  0.1689 -0.1326
22871W        W39005  18.251   1.995   1.034 -0.1146  0.0708 -0.0879
22872W        W39006  18.026  13.979   3.546  0.1139  0.1576  0.0432
22873W        W39007  13.720  18.616   0.410 -0.0353  0.0308  0.6144
22874W        W39008   8.976  19.024   1.710  0.1268 -0.2704 -0.1274
22875W        W39009  13.053  14.622  13.134 -0.2648  0.0884 -0.1685
22876W        W39010   2.407   6.432  11.063  0.2160  0.2594  0.2667
22877W        W39011  19.122   4.356   0.390  0.2230 -0.0430 -0.0352
22878W        W39012   2.863   4.538  10.456 -0.3957  0.0784 -0.1843
22879W        W39013  18.128   3.755  11.001 -0.0036  0.0113  0.2366
22880W        W39014   9.255  18.130  11.142  0.0455  0.2476  0.0174
22881W        W39015  10.242  13.274  12.148  0.0800 -0.1947 -0.0412
22882W        W39016   6.895   1.614   0.773 -0.0107 -0.1476  0.2091
22883W        W39017   4.307   1.192   0.463 -0.3175  0.0263 -0.0469
22884W        W39018  13.086   5.889   0.687 -0.0524 -0.0330 -0.1847
22885W        W39019   3.737   4.275  11.917  0.1503  0.0586  0.0439
22886W        W39020   6.758   5.165   1.926  0.1147 -0.0358 -0.3406
22887W        W39021  10.451   1.752  14.425 -0.0614  0.1067  0.0752
22888W        W39022  11.229  13.099  11.090  0.0876  0.1732  0.1791
22889W        W39023  10.501  10.581   0.610  0.0905 -0.1726  0.2418
22890W        W39024  12.203   5.358   2.679 -0.2314 -0.3193  0.1669
22891W        W39025   4.941   0.239  14.334 -0.3007 -0.1803  0.1302
22892W        W39026   6.716   6.903  10.352 -0.1124  0.0614 -0.2335
22893W        W39027   8.394  13.124  10.914  0.2912 -0.1324  0.3441
22894W        W39028   0.204   7.875  13.371 -0.0432  0.5153  0.2719
22895W        W39029   2.354  15.997  10.911  0.2669 -0.0739  0.0295
22896W        W39030  14.710   0.914   4.587 -0.1810 -0.1326 -0.0302
22897W        W39031  13.085   0.885   3.788 -0.2304  0.0378 -0.0621
22898W        W39032   1.499  18.400   3.606  0.2102 -0.1037 -0.0943
22899W        W39033  10.136   1.777  14.017  0.0373 -0.0385  0.0121
22900W        W39034  18.783   6.660   1.831 -0.1485  0.1801  0.1720
22901W        W39035   0.660   2.742   0.877  0.0675 -0.1821 -0.2308
22902W        W39036   2.970   8.897   3.974 -0.0624  0.1613 -0.0572
22903W        W39037  12.161   2.625   2.849  0.0880 -0.2519  0.5172
22904W        W39038  10.169  15.453  12.090 -0.0530  0.2829 -0.2899
22905W        W39039  15.762  12.078   4.309  0.2043  0.1391 -0.0734
22906W        W39040   7.739  12.366   0.101 -0.1229  0.1501  0.2188
22907W        W39041   2.888  10.326   2.114  0.1166  0.1215 -0.2129
22908W        W39042  18.286  12.206   3.805  0.1887  0.0575 -0.2635
22909W        W39043   2.599   4.650  13.107  0.1090  0.1948 -0.0465
22910W        W39044   9.383  11.362   0.715  0.2314  0.2905 -0.2633
22911W        W39045   9.595  11.068  13.904 -0.0914 -0.0230 -0.2434
22912W        W39046  13.706  18.845  11.839  0.1602 -0.2355 -0.2126
22913W        W39047   7.645   7.440  14.792 -0.0002  0.1237 -0.3053
22914W        W39048   3.741  17.286  14.896  0.2138  0.0126  0.1472
22915W        W39049  16.428  17.819   1.478 -0.1573  0.0697 -0.5034
22916W        W39050   6.510   9.077   1.785  0.3352  0.1879 -0.0409
22917W        W39051  15.323   3.719   0.654 -0.0140  0.0617  0.0373
22918W        W39052  10.176   7.569   2.159 -0.1728 -0.1073 -0.2267
22919W        W39053   6.984   9.628  11.446 -0.3010  0.1985  0.2908
22920W        W39054  16.791  15.423   2.943 -0.3258  0.2054  0.0406
22921W        W39055   0.236   7.473   0.614 -0.2194  0.3648  0.5144
22922W        W39056   9.595  19.212   1.319 -0.1649 -0.0390 -0.1588
22923W        W39057  13.744  11.415  11.807 -0.1283  0.1920  0.1410
22924W        W39058   2.615   3.336   4.277 -0.2287  0.1231 -0.2273
22925W        W39059  10.770   6.357  13.616  0.1688 -0.3611 -0.0791
22926W        W39060  12.844   0.311   9.882  0.0558 -0.1318 -0.1535
22927W        W39061  12.844  14.010  11.082  0.2364  0.0674  0.1575
22928W        W39062   7.339   8.919  13.638  0.0650  0.1101  0.0499
22929W        W39063  14.534   7.289  12.625  0.4708 -0.0351 -0.1103
22930W        W39064  19.135  11.559   4.749  0.2081  0.1204  0.1852
22931W        W39065   3.924  11.317  11.238  0.1633 -0.1834  0.2258
22932W        W39066   8.135  15.196  14.406  0.0359 -0.2177  0.2043
22933W        W39067  11.310  13.848  14.288 -0.0161  0.3152  0.2504
22934W        W39068   6.854  12.424  12.446  0.0704 -0.0231 -0.1696
22935W        W39069   1.704   0.930  14.254 -0.2513  0.0321 -0.0741
22936W        W39070  14.342  14.602   0.281 -0.0583  0.0742 -0.0101
22937W        W39071   3.184   5.570   1.135 -0.2207  0.0914 -0.1235
22938W        W39072  18.424   8.705   3.968 -0.0100  0.1798 -0.0966
22939W        W39073   4.209   5.353   0.930  0.1807 -0.1137 -0.0671
22940W        W39074   8.796  10.299   3.284 -0.1755  0.1681  0.3122
22941W        W39075   2.239  11.235   2.718  0.0769  0.1298  0.0939
22942W        W39076  12.484  11.821  10.586 -0.0260 -0.0717 -0.1184
22943W        W39077  12.874   4.386   2.542  0.4272 -0.4116 -0.0879
22944W        W39078  18.850  11.084  14.864 -0.2660 -0.0073  0.1139
22945W        W39079  17.631   1.235   3.470  0.2118 -0.2662  0.3635
22946W        W39080   7.102   6.259  11.517 -0.1673 -0.2413  0.2499
22947W        W39081  16.927   5.553  11.446  0.1643 -0.0836 -0.1041
22948W        W39082   2.542  16.768   9.329 -0.1272 -0.0748  0.0813
22949W        W39083  12.669   2.030  11.764 -0.4328 -0.1056 -0.3963
22950W        W39084   1.588  10.754   1.629  0.4696  0.0135  0.2904
22951W        W39085   9.325  12.661   2.335  0.0397  0.0925  0.1343
22952W        W39086   8.511   2.614  12.774 -0.4013 -0.0709  0.0894
22953W        W39087  18.170  14.316  11.127 -0.3278  0.0717  0.0917
22954W        W39088  14.057   4.812   4.186 -0.1655  0.1123  0.0229
22955W        W39089  13.584  15.072   2.709 -0.2020  0.2060  0.3035
22956W        W39090   5.859   8.525   1.564 -0.2124  0.0750  0.0446
22957W        W39091   9.654   7.747   3.079 -0.0365  0.2309 -0.1746
22958W        W39092   5.499  13.449   4.329 -0.2371  0.2898  0.3317
22959W        W39093  14.168  11.198  11.554  0.0523 -0.5877  0.0596
22960W        W39094   0.418  11.186   3.449  0.2166 -0.0516 -0.2852
22961W        W39095   4.559   5.930   4.322  0.0679  0.3834  0.0201
22962W        W39096   0.085  17.889   3.090 -0.1130 -0.0826 -0.1827
22963W        W39097   2.404   3.931   4.537 -0.0821 -0.1064  0.1928
22964W        W39098  15.773  14.835   5.263  0.0276 -0.0431 -0.0008
22965W        W39099   8.265   5.483  13.623  0.2335  0.1416 -0.3312
22966W        W39100   4.310   1.251  13.069 -0.0916 -0.0207 -0.1548
22967W        W39101   9.109   8.661  12.074 -0.0925  0.2407  0.2191
22968W        W39102   8.409   3.737  14.730 -0.0451 -0.1825  0.5309
22969W        W39103  17.167  13.742   3.430 -0.0007  0.1498  0.2318
22970W        W39104   5.906   1.187  13.920  0.0629  0.1767 -0.1432
22971W        W39105  12.157   0.216   2.818 -0.0536  0.1771 -0.1060
22972W        W39106   1.350   5.437   2.118 -0.3232  0.0694 -0.2460
22973W        W39107   8.962   6.239  12.807  0.0194  0.3713 -0.0793
22974W        W39108  17.133  14.111   9.484 -0.1642 -0.2303  0.1187
22975W        W39109  14.442  18.512  14.987  0.0215  0.2657 -0.2753
22976W        W39110   5.699  11.755   3.319 -0.1305  0.0207  0.1856
22977W        W39111  16.319   0.937  11.939  0.1040  0.0547 -0.3128
22978W        W39112  11.210  11.612   2.714 -0.0930 -0.6074 -0.0946
22979W        W39113  14.109   6.939   1.263  0.0486 -0.0118  0.2399
22980W        W39114  12.121   9.256   3.164 -0.0143  0.0190  0.2109
22981W        W39115   6.619  14.467   2.581 -0.0724 -0.0022  0.0927
22982W        W39116  10.220  17.645   0.345  0.2619 -0.1964  0.2403
22983W        W39117  10.848   8.327  14.110 -0.2325  0.0801 -0.0193
22984W        W39118  15.917  13.041   2.246  0.1074 -0.1885  0.0219
22985W        W39119   8.128  13.306   2.656  0.1686 -0.0345 -0.1829
22986W        W39120  13.720  16.381   1.139 -0.1658 -0.0847  0.0605
22987W        W39121  15.723   4.755  11.742 -0.1244 -0.1459 -0.1913
22988W        W39122   3.219  12.819   4.112  0.1742 -0.2756  0.1547
22989W        W39123  10.075  14.976   4.678 -0.1745 -0.2993  0.1277
22990W        W39124   3.323  13.685  12.700  0.2893  0.1169  0.0719
22991W        W39125   9.217  17.612   2.778 -0.2014 -0.0251  0.1975
22992W        W39126  16.159   7.464  13.947 -0.1713  0.1474  0.0089
22993W        W39127  12.209  19.141   2.591  0.1110 -0.1759 -0.4573
22994W        W39128  17.889   6.493  12.210  0.3355  0.1822 -0.3943
22995W        W39129   7.267   0.273  11.568  0.0178  0.2478 -0.0760
22996W        W39130  10.811  11.920  14.900 -0.3195 -0.0050 -0.2043
22997W        W39131  11.292   4.214  13.121 -0.1801  0.0174 -0.3544
22998W        W39132  15.872  16.103   4.512 -0.1673  0.0467 -0.1128
22999W        W39133  12.555  12.994  11.248  0.0257 -0.3685 -0.0708
23000W        W39134   3.808   5.729   0.967  0.0916 -0.0560 -0.1146
23001W        W39135  11.783  18.788   9.516 -0.1285  0.3685 -0.1848
23002W        W39136  15.489   9.878   4.010  0.0001  0.2690 -0.1337
23003W        W39137   3.528   4.471  13.317 -0.1118 -0.1155 -0.1342
23004W        W39138  13.768   7.074  11.260  0.0129 -0.2005  0.2691
23005W        W39139  17.458   7.752   4.336 -0.1560  0.0594 -0.0285
23006W        W39140   5.174  17.635  10.775 -0.3785 -0.4271 -0.0427
23007W        W39141  13.891  19.202  14.721  0.3545 -0.3616 -0.0368
23008W        W39142  17.028   7.725  14.438  0.1710  0.2915  0.4126
23009W        W39143   8.390   4.805   2.135 -0.0187 -0.1881 -0.1358
23010W        W39144   0.239  15.675  11.831 -0.0850 -0.1362  0.0653
23011W        W39145   7.406   8.928   3.936  0.2867 -0.0503  0.2165
23012W        W39146   7.575  15.369  13.732  0.1124 -0.4276 -0.1206
23013W        W39147  10.533   0.922  12.220  0.0959  0.0842  0.2631
23014W        W39148  14.897  12.748   4.926  0.0669  0.1778  0.2636
23015W        W39149   6.137   1.159  12.546  0.1722  0.0143 -0.3123
23016W        W39150  14.094  17.592   5.524 -0.1134  0.1304 -0.0184
23017W        W39151  18.776  14.944  13.725  0.5505 -0.1357  0.0899
23018W        W39152   7.516  10.112   3.509 -0.0380 -0.1018  0.1255
23019W        W39153   4.415  15.724  12.328 -0.1266 -0.1221 -0.0156
23020W        W39154   9.475   5.767  12.368 -0.2306  0.1098 -0.1268
23021W        W39155   1.632   3.163   4.246  0.1604 -0.1636 -0.4036
23022W        W39156   1.860  10.393   5.597 -0.0103  0.2319  0.3563
23023W        W39157  16.289  16.849  10.513  0.0383  0.1190  0.0669
23024W        W39158  13.515  17.879  12.325  0.1093 -0.2191  0.1077
23025W        W39159   6.996   1.047  10.776 -0.0132  0.2414 -0.0777
23026W        W39160   5.674  18.735  13.555  0.2249  0.2227 -0.1118
23027W        W39161   3.943  10.897  13.730 -0.0388  0.0139 -0.0198
23028W        W39162  19.255   7.284  11.494  0.2709 -0.0509 -0.1014
23029W        W39163  14.157   5.897   3.740 -0.3121  0.2220 -0.0268
23030W        W39164  18.103  13.782   0.584  0.3946 -0.0153  0.0707
23031W        W39165  17.194  14.785   2.430 -0.1652  0.0207  0.1471
23032W        W39166  17.883   1.413   3.047 -0.1731  0.0584 -0.1294
23033W        W39167   3.589   7.498  11.121 -0.4206 -0.0039 -0.1395
23034W        W39168   9.117  17.741   3.243 -0.0221 -0.1576  0.0741
23035W        W39169  14.367   7.100  14.971 -0.0682 -0.3259 -0.2345
23036W        W39170  15.144   9.863   2.807  0.0580  0.0027  0.1109
23037W        W39171   1.966  15.086  13.809  0.0570  0.0925 -0.1661
23038W        W39172  11.615  18.984   5.334 -0.0202  0.2062  0.1437
23039W        W39173   0.738  18.486   1.469  0.3033 -0.1592 -0.3873
23040W        W39174  16.827  16.556  14.734  0.0660  0.1897  0.1368
23041W        W39175   2.502  10.637   3.444 -0.0959 -0.1499 -0.1958
23042W        W39176  11.323   4.845  14.618  0.0214 -0.0923 -0.3655
23043W        W39177  13.140  18.946   1.306 -0.1601  0.0490  0.2902
23044W        W39178  15.534  17.418  12.321  0.3903  0.1874 -0.1220
23045W        W39179  14.744  11.920  12.340  0.4513  0.2960  0.0325
23046W        W39180  14.889   7.185   1.331  0.4101  0.2019  0.0228
23047W        W39181   0.989  18.726  11.142  0.2814 -0.0382  0.1828
23048W        W39182  12.142  11.025  14.806  0.1629  0.3616 -0.0565
23049W        W39183   4.309   1.645  11.852  0.1785 -0.0784 -0.2841
23050W        W39184   5.547  17.547  12.366 -0.0374  0.0345 -0.0408
23051W        W39185  16.627  10.734   2.916  0.2292  0.0797  0.1062
23052W        W39186   2.727   3.220   3.340 -0.0990 -0.0005  0.0446
23053W        W39187  17.219   8.972   1.709 -0.0192 -0.0259  0.2179
23054W        W39188  16.003   7.754  14.829 -0.1606  0.1680 -0.0663
23055W        W39189   9.534  10.226   1.693 -0.1798  0.1580 -0.3716
23056W        W39190   9.268  13.689  13.730 -0.1952  0.1863  0.1548
23057W        W39191   9.639  12.292  14.072 -0.0217  0.2780 -0.3452
23058W        W39192   4.163  16.148  14.441 -0.0913  0.0360  0.1473
23059W        W39193   1.191   1.432   2.420 -0.0231  0.0786 -0.0593
23060W        W39194   3.544   7.325   0.612  0.3359 -0.1008  0.1003
23061W        W39195   1.425  15.855   5.193  0.1102 -0.0846 -0.0875
23062W        W39196   0.434  18.733   1.853  0.6047 -0.1507  0.1721
23063W        W39197   7.685   3.953   5.875  0.0340  0.1337  0.0971
23064W        W39198  12.173  11.364  12.789  0.0576  0.2834  0.0524
23065W        W39199   6.055   2.326  11.931  0.0663 -0.3140  0.3209
23066W        W39200   5.016  12.471   0.606 -0.3204 -0.0649 -0.1966
23067W        W39201  13.683  16.329   5.155 -0.0220  0.1382 -0.1158
23068W        W39202   3.698  13.100   9.742  0.2022  0.0548  0.2929
23069W        W39203   8.988  14.346   0.783 -0.0921 -0.0201 -0.0553
23070W        W39204   4.881  11.287   0.346 -0.1674  0.0564  0.0306
23071W        W39205  19.068   4.896  12.066  0.0961  0.1062 -0.0820
23072W        W39206   9.819  18.287  14.844  0.0901  0.1882  0.1692
23073W        W39207  11.947  16.395  12.648  0.0942 -0.3318  0.2622
23074W        W39208   1.768   6.058  11.907 -0.0388 -0.0333 -0.0715
23075W        W39209   0.061  19.079  10.969 -0.1795 -0.0481  0.1302
23076W        W39210  10.653   6.015   3.327 -0.4621  0.0638 -0.1678
23077W        W39211   8.794   2.124   2.240  0.1218  0.2743  0.1134
23078W        W39212   6.157   0.194  14.884 -0.2211 -0.0079  0.3350
23079W        W39213  11.726  17.130  11.358  0.5229 -0.1025 -0.1344
23080W        W39214  16.732  14.022   2.046  0.2857 -0.2064 -0.2985
23081W        W39215  18.965  12.993  11.649  0.1188  0.1926 -0.0014
23082W        W39216   1.254  13.680   3.014  0.0560  0.3110 -0.2804
23083W        W39217  16.980  11.919  13.076  0.1106 -0.0207 -0.1233
23084W        W39218  11.074   0.491  11.719 -0.2140 -0.3231  0.1996
23085W        W39219  18.926  12.270  14.969  0.6408 -0.0939  0.3705
23086W        W39220  11.101   5.922  12.183  0.0377  0.1913 -0.0029
23087W        W39221  18.757  15.523  11.448  0.1862 -0.2137  0.1119
23088W        W39222   8.170   3.389   0.728  0.0166 -0.0187  0.0709
23089W        W39223  15.762  18.606  14.570 -0.2844  0.1157  0.1482
23090W        W39224   8.334   4.196  12.314 -0.0679  0.1849  0.0262
23091W        W39225   6.350  18.714   1.670 -0.0844 -0.0787 -0.2134
23092W        W39226   8.067  14.567   1.830  0.3579  0.0184  0.1190
23093W        W39227  15.099  14.915   3.027  0.1112  0.0625  0.2484
23094W        W39228   7.030  15.203   4.308 -0.0263 -0.1524 -0.1310
23095W        W39229   8.957  12.625   0.081  0.1882 -0.1070 -0.0709
23096W        W39230   9.650   4.557  12.202  0.2165  0.2268 -0.0350
23097W        W39231  17.768   9.757   5.137  0.0151 -0.3783 -0.2909
23098W        W39232   4.670   4.766  14.286  0.2681 -0.3718 -0.2856
23099W        W39233   7.850   3.790  14.660  0.1059 -0.1379 -0.0152
23100W        W39234  15.034  14.372  13.591  0.1053 -0.1350  0.0399
23101W        W39235  14.581   1.494  12.353  0.2605  0.0608  0.2024
23102W        W39236  17.045  10.189  13.027 -0.1397  0.2989 -0.2994
23103W        W39237  11.128  17.089  14.284  0.2157 -0.0971  0.1502
23104W        W39238   2.738  13.583  11.227  0.1294 -0.1705  0.1911
23105W        W39239  16.791  14.855  12.081 -0.0814  0.1049 -0.1799
23106W        W39240  18.991  13.990  13.236  0.2444  0.0299 -0.0169
23107W        W39241  19.035   8.443   1.052  0.1750 -0.2363 -0.0265
23108W        W39242   6.995   7.708   0.634 -0.2144 -0.1847 -0.1255
23109W        W39243  17.436   6.926   0.873 -0.0548 -0.1103 -0.0052
23110W        W39244  12.907   0.603   1.151 -0.1580 -0.0479 -0.0820
23111W        W39245   1.576  11.364   1.484  0.1162 -0.1121 -0.0861
23112W        W39246   5.099   1.279  13.629 -0.1028  0.1020 -0.1969
23113W        W39247   5.255   0.296  11.070 -0.1171  0.2429  0.0415
23114W        W39248  18.849   8.366   2.359  0.1204  0.0653 -0.0532
23115W        W39249  14.024   9.565   2.754  0.0779  0.0884 -0.4041
23116W        W39250  15.378  11.549  14.388  0.1315 -0.0815  0.0519
23117W        W39251   2.049   5.292  13.879 -0.0518 -0.0072  0.1253
23118W        W39252  15.847   4.343   0.557 -0.4673 -0.0031  0.2409
23119W        W39253   2.454   0.649  10.721 -0.2649  0.4684 -0.0219
23120W        W39254  17.596  17.452   0.993  0.3614 -0.0168  0.1617
23121W        W39255  12.557   6.647   1.443 -0.3583 -0.2127 -0.0241
23122W        W39256   8.392   0.710   4.046 -0.0230 -0.2349 -0.0500
23123W        W39257  11.781   4.079  12.918 -0.2081 -0.1904 -0.1170
23124W        W39258  11.759  12.444  11.008  0.1475  0.2347 -0.0777
23125W        W39259   1.380   6.435  14.136 -0.0616  0.0177  0.0688
23126W        W39260   5.761  15.024   3.277  0.0629  0.0009 -0.3651
23127W        W39261  14.771  10.160   2.473  0.0732 -0.0591  0.2341
23128W        W39262   0.265   4.706   0.165  0.1810 -0.3130 -0.2664
23129W        W39263   7.428  17.281   5.551 -0.2382 -0.1930 -0.0817
23130W        W39264  18.725   8.996   3.382 -0.2642 -0.1536  0.0068
23131W        W39265   1.439   0.083  14.940  0.1228 -0.0627  0.0097
23132W        W39266   0.186   4.552  13.906 -0.0928 -0.1915  0.0581
23133W        W39267   3.985  17.486   5.001 -0.1536 -0.0571  0.0045
23134W        W39268  12.628  13.283  10.624  0.0694 -0.1630  0.0733
23135W        W39269  14.284   4.050   1.751  0.0556 -0.2895 -0.1051
23136W        W39270   2.432   9.674   3.409  0.1194 -0.0726  0.1297
23137W        W39271  14.496   8.937  13.600  0.0869  0.0314  0.1075
23138W        W39272  15.055  13.659  13.027  0.0538 -0.0933  0.0077
23139W        W39273  13.852  17.744   4.741  0.1840 -0.2179  0.0322
23140W        W39274  10.321  17.747  13.042 -0.4282 -0.1963 -0.2327
23141W        W39275   8.466  10.488   2.541 -0.0217  0.0830  0.3497
23142W        W39276   6.109  18.214  13.026  0.0209 -0.1216  0.2739
23143W        W39277   1.566   4.004  11.509 -0.0784 -0.1206  0.0813
23144W        W39278  11.000  13.891   2.722  0.3846 -0.0900 -0.0727
23145W        W39279   7.977  12.321  11.209  0.1600 -0.0810  0.4326
23146W        W39280   4.725  13.163   3.504 -0.2188  0.2246 -0.0254
23147W        W39281   9.106   7.045  11.270  0.1306 -0.3547  0.0994
23148W        W39282  16.463  10.356  10.314  0.1020  0.1088  0.2874
23149W        W39283   2.975  18.338  11.997 -0.1325  0.3856 -0.2393
23150W        W39284  18.087   0.552  10.821 -0.0382  0.0323 -0.1985
23151W        W39285   7.088   3.567   3.717 -0.3774  0.2788 -0.2113
23152W        W39286   0.617   6.736   5.927  0.2678 -0.1415  0.2472
23153W        W39287  14.566   5.137   1.855  0.0302 -0.0684 -0.0379
23154W        W39288  13.632   6.604   5.454 -0.0043 -0.2484  0.0101
23155W        W39289   3.853  19.168  10.936 -0.0342 -0.0152  0.1902
23156W        W39290  13.301  16.633  12.544  0.0854 -0.0343 -0.0286
23157W        W39291  10.848  10.833   0.345 -0.2917 -0.0161 -0.3932
23158W        W39292   4.904  11.785   0.146  0.1027  0.0359 -0.1994
23159W        W39293  10.028   8.490   3.555  0.0325  0.0039  0.0787
23160W        W39294   2.336   8.755   2.190  0.3416  0.0384 -0.0360
23161W        W39295   9.529   2.665   0.469 -0.0120  0.1134 -0.0224
23162W        W39296   6.193  16.190  14.720 -0.0362  0.1186 -0.2331
23163W        W39297  12.553  18.290  13.275 -0.0646  0.0636 -0.0994
23164W        W39298   4.080  13.174   1.457 -0.1446 -0.1937 -0.1445
23165W        W39299   2.947  19.134  10.878 -0.1084  0.1262 -0.1547
23166W        W39300  10.201  15.285   4.353 -0.1436  0.1150  0.2850
23167W        W39301  13.969  18.023   4.274 -0.0060  0.1529 -0.1239
23168W        W39302   7.092   5.606   1.463  0.2935  0.2676 -0.1817
23169W        W39303   9.687   2.141  10.944 -0.2550  0.0639  0.0619
23170W        W39304   7.353  12.220  12.478 -0.3002  0.1441 -0.1363
23171W        W39305  15.304   9.344   0.035 -0.3330 -0.1010 -0.0856
23172W        W39306   0.210  11.018  12.896 -0.1016  0.2547  0.0202
23173W        W39307  18.152   2.373  12.782 -0.1010 -0.0192  0.1209
23174W        W39308  14.806   5.890   4.984  0.0882 -0.0629 -0.0054
23175W        W39309  12.653   1.231  13.916 -0.0383  0.2307  0.0680
23176W        W39310  18.874  16.720   2.739 -0.0925  0.0304 -0.3575
23177W        W39311  18.635   5.008   4.761  0.2712 -0.2423  0.0469
23178W        W39312   4.009  11.154   0.438 -0.0701 -0.1363  0.0688
23179W        W39313   5.447  13.332   2.136  0.4683  0.1732 -0.4049
23180W        W39314   8.409   1.651  14.653  0.3794  0.5966 -0.2444
23181W        W39315   9.791  12.082  10.009 -0.3739  0.0675  0.5167
23182W        W39316   7.381   0.824   0.395 -0.3246  0.0183 -0.1338
23183W        W39317  19.164   5.547  11.689  0.2840 -0.0844  0.3943
23184W        W39318  10.038   2.065   2.499  0.1723 -0.1402  0.2249
23185W        W39319   8.934   9.714   2.957  0.1743  0.0994 -0.0982
23186W        W39320  13.637   7.893  11.535  0.3799 -0.5018  0.4458
23187W        W39321  12.387   5.902  13.916  0.1194  0.2730  0.0158
23188W        W39322   6.558   5.946  11.605 -0.1946  0.1953  0.0612
23189W        W39323   3.829   6.057  14.363 -0.2408  0.2224 -0.1121
23190W        W39324  12.582  16.989  11.732  0.2053  0.2577 -0.1373
23191W        W39325  17.640  14.097   1.804  0.0351 -0.1124  0.3377
23192W        W39326   5.574  16.295   2.050  0.0675  0.0142  0.1455
23193W        W39327  14.422   2.584   0.301  0.1058 -0.0000  0.1828
23194W        W39328   2.839  12.966  13.942  0.1583  0.2344 -0.0215
23195W        W39329  15.443   2.540  13.618 -0.0333  0.0785 -0.0370
23196W        W39330   5.587   3.880   2.453 -0.3906 -0.0185 -0.0213
23197W        W39331  13.337   3.769  10.795 -0.1210  0.3984  0.2380
23198W        W39332   9.053   9.190  12.192 -0.3237  0.0157 -0.0704
23199W        W39333   7.030   8.504  12.856 -0.3786  0.1327 -0.0221
23200W        W39334   3.860   4.825   1.079  0.1589  0.2666  0.1122
23201W        W39335   7.878   3.433  11.681 -0.1866 -0.2140 -0.1458
23202W        W39336   9.988   9.458   2.823 -0.1916  0.1162 -0.0395
23203W        W39337  15.412  10.345  12.294 -0.2062 -0.0763  0.0428
23204W        W39338  12.293  12.426  11.187  0.2700  0.1585 -0.1855
23205W        W39339   9.850  16.017   3.585  0.0583  0.2033 -0.0963
23206W        W39340   7.895  14.778   9.438 -0.1520  0.0436  0.0292
23207W        W39341  12.434  11.123  13.983  0.3002  0.0548  0.0658
23208W        W39342   4.378   6.418  13.022 -0.3467 -0.1074 -0.1233
23209W        W39343   5.536   4.294  14.440  0.0298 -0.3320 -0.1849
23210W        W39344   7.515   1.869  13.154  0.0408 -0.0487  0.0297
23211W        W39345  11.175  12.129   1.594  0.2183 -0.3926  0.0289
23212W        W39346   8.333   4.229  14.546  0.2569  0.1265 -0.6159
23213W        W39347  14.314  14.070  12.658  0.0149  0.0605 -0.2923
23214W        W39348  12.463  16.264   4.869 -0.0786 -0.1383  0.0772
23215W        W39349   6.070  15.667  14.609  0.1069 -0.1315 -0.0718
23216W        W39350   8.329  15.485   1.370  0.5625  0.1971  0.1367
23217W        W39351   7.513   1.851   4.043  0.1098  0.1261  0.0669
23218W        W39352   9.853  18.429  12.011 -0.1842 -0.0513  0.0049
23219W        W39353  19.249  12.243   5.210  0.2555 -0.2993 -0.2203
23220W        W39354   9.543   5.967   1.128  0.1551  0.0653 -0.0832
23221W        W39355  17.359  17.448   3.922  0.0199  0.0519  0.3296
23222W        W39356  16.850   5.127   1.473  0.1079  0.0781  0.3794
23223W        W39357   2.838  17.134  13.019  0.2377  0.0068 -0.1778
23224W        W39358   2.025   9.527  14.721  0.0548  0.1243  0.3501
23225W        W39359   9.180  18.617   0.554 -0.0306  0.2095  0.0068
23226W        W39360   2.481  16.614   3.820 -0.1360 -0.0086 -0.0043
23227W        W39361  16.590  17.491  12.183  0.4293  0.0058 -0.0242
23228W        W39362  14.320   0.263   0.391  0.0415  0.0908  0.0414
23229W        W39363   1.935  14.497   3.624  0.0931 -0.1456  0.3735
23230W        W39364  15.134  18.946  13.353  0.0899  0.5557 -0.3896
23231W        W39365  12.475   6.560  13.054  0.2744 -0.1257 -0.1664
23232W        W39366  15.061   1.170   4.320  0.3506  0.0596 -0.2596
23233W        W39367  13.993   8.525   0.889  0.0710  0.0079 -0.2434
23234W        W39368   6.716   9.341   1.361 -0.0907 -0.2449  0.3441
23235W        W39369   8.088   4.672   1.298 -0.1531 -0.0995  0.3599
23236W        W39370   7.311  15.390  11.761 -0.1688 -0.1622 -0.1468
23237W        W39371  10.183  15.952  14.070 -0.0116 -0.1423 -0.1979
23238W        W39372  12.590  11.519   4.829 -0.1207 -0.2072 -0.1530
23239W        W39373  16.446   6.647  14.592  0.1106  0.0509  0.3021
23240W        W39374   4.241   3.482   3.279  0.0660  0.0549 -0.0691
23241W        W39375  13.812   0.437  12.306  0.1582  0.0347 -0.0774
23242W        W39376   7.839  15.506  14.190 -0.0301 -0.2900 -0.1282
23243W        W39377  16.255  12.950  10.405 -0.0257 -0.0953  0.0712
23244W        W39378   8.753  10.831   0.248 -0.0214  0.2113 -0.1499
23245W        W39379  12.034  13.955  11.620  0.0331 -0.0425  0.0242
23246W        W39380  16.934   3.803   1.406  0.3263 -0.0759  0.1227
23247W        W39381   5.404  12.959  14.913 -0.1177  0.1893  0.1783
23248W        W39382   3.342  13.041  12.035  0.1935 -0.0088 -0.2780
23249W        W39383  12.778  17.244  12.329  0.2819  0.2274 -0.0974
23250W        W39384  14.663  19.216   3.118  0.1428 -0.1938  0.1498
23251W        W39385  12.030   1.305  11.401  0.3484  0.1440 -0.2203
23252W        W39386   0.926  17.772  13.122  0.0423  0.0355 -0.1258
23253W        W39387   1.083   0.478  13.516 -0.0078 -0.1610  0.2164
23254W        W39388  11.786  19.324  10.775 -0.0725 -0.0632 -0.0004
23255W        W39389  13.754  13.211   2.218  0.0215 -0.2623 -0.0897
23256W        W39390   3.110  17.110  12.148 -0.0526 -0.3276  0.1852
23257W        W39391   3.686  11.829   3.262 -0.5125  0.3706 -0.1502
23258W        W39392   9.986   6.692   4.844 -0.1571 -0.2734 -0.0141
23259W        W39393   6.055   3.975  10.987 -0.0961  0.1437  0.0896
23260W        W39394  16.313   8.960  11.697  0.2780 -0.0548 -0.2804
23261W        W39395   0.589  15.401  12.145 -0.1529  0.1792 -0.2442
23262W        W39396   6.772  12.024  10.333  0.1358  0.0054  0.0544
23263W        W39397   3.537   7.166  13.955  0.2328  0.1547  0.2128
23264W        W39398  16.406  18.257   9.977  0.3366 -0.0927 -0.2785
23265W        W39399   0.126  14.534   2.581 -0.1037  0.3173  0.2386
23266W        W39400   6.600   0.364   0.061 -0.0706  0.3039 -0.1106
23267W        W39401   4.062   1.378   3.111 -0.1670  0.2453 -0.2225
23268W        W39402   7.430   9.215  14.248 -0.1106 -0.1845 -0.1472
23269W        W39403  11.059  11.500  13.899  0.2185  0.0216  0.0430
23270W        W39404  13.626   5.297  11.855  0.0553  0.0024 -0.1903
23271W        W39405   4.965   1.995  10.412 -0.2976  0.0850  0.1089
23272W        W39406   9.230   7.466   1.895 -0.0136  0.0346  0.1786
23273W        W39407   9.214  13.889  11.676 -0.1604 -0.2208 -0.4053
23274W        W39408  12.222   5.300  10.722 -0.0579  0.3275  0.0142
23275W        W39409  14.461   7.070   4.323  0.0788 -0.0299  0.0144
23276W        W39410  12.861   4.720   0.838 -0.0029  0.3140 -0.1971
23277W        W39411  15.951  15.913  10.272 -0.5128 -0.2430  0.0498
23278W        W39412   0.940   6.190   4.760  0.0370 -0.2227 -0.0113
23279W        W39413   5.797   2.920  10.359  0.1099  0.0062 -0.2935
23280W        W39414   8.837  17.437  12.262 -0.0773 -0.2280 -0.3594
23281W        W39415   5.121   8.924   4.522 -0.0621 -0.0748 -0.0532
23282W        W39416   0.034   7.659   2.799  0.4246  0.1770 -0.1175
23283W        W39417   2.431   8.480  12.374  0.0512 -0.0704  0.1369
23284W        W39418  15.961  19.175  12.856 -0.3724  0.1936  0.0137
23285W        W39419   0.388   1.937   2.444 -0.0702 -0.1077 -0.4563
23286W        W39420  14.003  12.750  10.534 -0.2509 -0.0237 -0.0062
23287W        W39421   0.783  16.347  12.665 -0.1473  0.1304  0.3684
23288W        W39422  15.636  17.605   4.524 -0.4058 -0.0444 -0.2829
23289W        W39423  17.019  13.417   4.429 -0.0162  0.0554 -0.2242
23290W        W39424  17.497  13.252  11.794  0.0609  0.2159 -0.3881
23291W        W39425  17.543  11.819   2.291 -0.2115  0.3070 -0.0689
23292W        W39426   6.532   5.731  11.114  0.0348 -0.1941 -0.3232
23293W        W39427  17.739   2.807   4.514 -0.3175  0.0707  0.5235
23294W        W39428  19.271  12.591  14.178 -0.0506 -0.1184 -0.0840
23295W        W39429   0.883   9.419  12.040 -0.0670  0.1799 -0.0176
23296W        W39430   9.387   1.152   0.719  0.2057  0.0248  0.2014
23297W        W39431  14.439   6.089  14.823  0.0528 -0.1143  0.0656
23298W        W39432   8.250   3.016  13.017  0.1195  0.0554 -0.3871
23299W        W39433   5.591  14.549   2.365  0.2844  0.1640  0.2359
23300W        W39434  13.410   0.836   2.561 -0.0158 -0.0512  0.1781
23301W        W39435  15.930  16.603   4.642 -0.1843 -0.2491  0.1900
23302W        W39436   7.763  18.910   3.921  0.3613 -0.2457  0.1556
23303W        W39437   9.018   5.945  13.241 -0.1267 -0.1862  0.1097
23304W        W39438   0.452   1.073   3.045  0.1899 -0.0319 -0.2313
23305W        W39439   3.637  18.290  12.428 -0.0394 -0.1093 -0.2619
23306W        W39440   6.029  10.551  11.942  0.2354 -0.0734  0.0216
23307W        W39441   0.762  13.696  14.615 -0.2107 -0.0103  0.1362
23308W        W39442  14.403   9.666   3.169  0.0518  0.0282  0.0761
23309W        W39443   0.922   2.161   3.011  0.1394 -0.2694 -0.2013
23310W        W39444   5.655   9.148  11.664  0.0282 -0.0517 -0.1294
23311W        W39445   9.345   0.404  11.996 -0.2911  0.1939 -0.3378
23312W        W39446  12.409  16.133   3.494 -0.1317  0.1868 -0.1285
23313W        W39447  12.270   5.730  12.521  0.0250 -0.2909  0.2628
23314W        W39448  17.712  11.835   1.362 -0.0425 -0.0210  0.4052
23315W        W39449  12.819   2.084  13.252 -0.2696 -0.1805  0.1496
23316W        W39450   9.406   7.683  13.254 -0.2064 -0.4077 -0.3269
23317W        W39451   5.911  16.817  11.942  0.2861 -0.0485 -0.1542
23318W        W39452   2.833   6.189   0.018 -0.0183  0.0958  0.0436
23319W        W39453  10.025  12.178  11.845  0.1744 -0.0997  0.1846
23320W        W39454  12.693  12.833  12.000  0.2338 -0.1410  0.1443
23321W        W39455  16.170  13.993  14.445 -0.1063 -0.1971  0.2506
23322W        W39456  17.071   2.638  11.891 -0.0983 -0.2432 -0.0124
23323W        W39457  14.129  12.169  13.122  0.3539  0.0011 -0.0558
23324W        W39458   3.442   6.319  14.704 -0.2871  0.0388  0.0662
23325W        W39459  14.163  16.511   5.134  0.0281  0.2393 -0.0314
23326W        W39460   1.174   7.265   3.535 -0.1369  0.1013 -0.1452
23327W        W39461   2.939   1.691   1.478  0.2368 -0.0477 -0.1086
23328W        W39462  17.487   0.535  10.677 -0.3399  0.1231  0.2549
23329W        W39463  15.620  18.004   3.959  0.2619  0.1252 -0.0242
23330W        W39464  18.287   4.356  13.177  0.1148 -0.0017 -0.5942
23331W        W39465   8.241   2.145  10.223  0.1065  0.3492  0.1461
23332W        W39466  11.264   1.492  11.958  0.3182  0.1258  0.1911
23333W        W39467   1.830   6.451   4.398  0.0188 -0.0436  0.0739
23334W        W39468  15.403   4.135  11.177 -0.2031  0.1014 -0.2269
23335W        W39469  11.222   0.004   3.012  0.2597 -0.1581  0.0893
23336W        W39470   3.032  15.859   0.903 -0.2075 -0.4290 -0.3184
23337W        W39471   4.924  15.019   3.906 -0.1509 -0.3126 -0.3061
23338W        W39472   9.788  17.400   0.443  0.3326  0.1414 -0.1223
23339W        W39473  17.653   6.922  12.418  0.0257 -0.1793  0.0693
23340W        W39474  10.428   5.560  14.106  0.0522 -0.4545 -0.0265
23341W        W39475   9.737   5.234   2.008  0.1100 -0.1467  0.2174
23342W        W39476   3.058  17.892  13.566 -0.2084 -0.0812  0.2267
23343W        W39477  15.353  18.087  13.932 -0.1667  0.0205 -0.0246
23344W        W39478   2.084   3.919   2.019  0.1948  0.1194 -0.1749
23345W        W39479   2.569   1.267   2.648  0.6111  0.0608  0.1197
23346W        W39480  14.374   3.038  14.960  0.0836  0.0544 -0.0139
23347W        W39481   3.311  14.659   0.244  0.0333  0.3173 -0.2996
23348W        W39482   8.324   5.998  10.633 -0.3373  0.0247 -0.2995
23349W        W39483   3.767  12.772   3.198 -0.2383 -0.5299  0.0015
23350W        W39484  15.441  13.493  14.410  0.1926  0.1997 -0.1374
23351W        W39485   9.368   9.583  14.776 -0.1422  0.1641 -0.0792
23352W        W39486  13.936  12.866  11.031 -0.4860  0.0923  0.4505
23353W        W39487  17.561  14.101   0.607  0.3373 -0.2349  0.4686
23354W        W39488   4.741  13.278   5.267 -0.0384 -0.0241 -0.3263
23355W        W39489  18.281  18.866  12.185  0.1705  0.0817 -0.1537
23356W        W39490  16.048  16.605   3.433  0.2892 -0.0008 -0.1754
23357W        W39491  18.500   0.571  13.806 -0.0432 -0.0446  0.0829
23358W        W39492  16.181   8.221  11.968  0.1740  0.1487 -0.0038
23359W        W39493   3.814  18.660  12.712  0.1046  0.1914 -0.0942
23360W        W39494  12.398   7.909   1.116 -0.0842 -0.2151  0.0643
23361W        W39495  19.000  13.072   4.706  0.2287 -0.0234  0.3230
23362W        W39496   3.828  16.637   0.684 -0.2716  0.0411 -0.1669
23363W        W39497  16.012  11.884  14.851 -0.2127 -0.1302 -0.1592
23364W        W39498   8.832  10.198   3.787 -0.1408  0.0161  0.2610
23365W        W39499   7.831  15.460   1.627  0.2000  0.1644 -0.2936
23366W        W39500  12.282   0.139   0.404 -0.0058 -0.0312  0.4008
23367W        W39501   8.343   1.124   0.685 -0.1268 -0.3127  0.2428
23368W        W39502  12.647  12.267   3.138  0.0796 -0.0544 -0.0503
23369W        W39503   3.559   2.062   2.220 -0.4010 -0.3566 -0.0895
23370W        W39504   6.229   2.672  10.404 -0.0847  0.1226  0.1304
23371W        W39505  16.486  13.821   0.399 -0.2402 -0.2818  0.0780
23372W        W39506   1.549  15.618  11.658  0.0958 -0.0118  0.3135
23373W        W39507  15.765  10.005   4.547 -0.0576 -0.1567 -0.4020
23374W        W39508  11.764   3.106  14.604  0.1501 -0.5836  0.2161
23375W        W39509   8.487   5.419  12.329  0.2731 -0.2928  0.0188
23376W        W39510   0.245  19.209  11.437  0.3620  0.2150 -0.1950
23377W        W39511   3.272   8.117   0.823  0.1601 -0.1828  0.2176
23378W        W39512   9.120   7.643   4.534  0.0429 -0.0263 -0.2625
23379W        W39513  13.284   6.041   4.756  0.0932 -0.1791  0.0457
23380W        W39514   1.965   0.061   2.052 -0.0202 -0.4393  0.3060
23381W        W39515  11.920  15.378  11.307 -0.1030 -0.2116 -0.0315
23382W        W39516   8.665   9.927   0.295  0.2565  0.0016 -0.1265
23383W        W39517  19.329   9.224  10.394  0.1257 -0.1582  0.0184
23384W        W39518  13.784   3.461   1.165 -0.1192  0.2456 -0.0523
23385W        W39519  15.502   4.541  10.862 -0.0502 -0.0737 -0.0277
23386W        W39520   7.300  13.693   3.726  0.3175 -0.0754  0.1608
23387W        W39521  16.743  19.002  14.255 -0.0298 -0.1132  0.0806
23388W        W39522  12.059   3.911   2.169  0.0557  0.1791 -0.3224
23389W        W39523   6.033  14.980   1.028  0.0944  0.0729  0.3728
23390W        W39524  13.864   5.651  13.165  0.0034  0.1254  0.1381
23391W        W39525   2.160   2.761   3.674 -0.0896 -0.1404 -0.2973
23392W        W39526  10.701  12.317   1.893  0.0384  0.1285  0.1173
23393W        W39527  17.018   9.729  13.891  0.4935  0.0254 -0.2121
23394W        W39528  15.287  14.392  14.057  0.0716 -0.2351  0.1134
23395W        W39529   5.150   6.765   1.804  0.1603 -0.4796 -0.1211
23396W        W39530  10.457   5.725   4.339 -0.0218  0.2008 -0.0374
23397W        W39531  17.686   1.005  12.381  0.4482 -0.0924 -0.1168
23398W        W39532   7.181   3.417  13.666  0.0259  0.0417 -0.2297
23399W        W39533   4.909   7.488   0.692  0.2760 -0.2946  0.0644
23400W        W39534   6.742   8.319   4.203  0.0484  0.4898 -0.3217
23401W        W39535  12.233  13.173   3.086  0.1355 -0.2958  0.2831
23402W        W39536   8.890  10.216   2.649  0.1004  0.0219  0.1099
23403W        W39537   3.342   0.977  11.358 -0.2592  0.1618 -0.0549
23404W        W39538   6.748   9.322  13.049 -0.1036  0.0589 -0.0848
23405W        W39539   5.964   7.060  10.949 -0.1593  0.0058 -0.0188
23406W        W39540   2.140  10.100  12.418  0.0469  0.2259  0.0469
23407W        W39541   4.675   0.703  10.860  0.0083  0.0236 -0.2916
23408W        W39542   6.892   0.480   0.936 -0.1524  0.0841  0.1666
23409W        W39543  15.133   3.358  11.940 -0.1655 -0.0559 -0.0995
23410W        W39544   8.104  10.707   3.082 -0.2552 -0.1089 -0.1227
23411W        W39545  11.229  12.377   3.571 -0.0023 -0.1468  0.2323
23412W        W39546   4.719  16.943  11.860  0.3059  0.2964  0.1551
23413W        W39547  16.086  11.935   3.977  0.3225  0.2790  0.0976
23414W        W39548  11.859  17.859   3.412 -0.0745  0.1037  0.0165
23415W        W39549  10.894  16.652   1.353 -0.3361  0.2633 -0.0859
23416W        W39550   5.690   6.461  12.721  0.1705 -0.0713  0.1657
23417W        W39551   4.488   7.396   1.574  0.0457  0.0916  0.0946
23418W        W39552   6.562  11.319   3.298 -0.2973 -0.2059  0.0283
23419W        W39553   9.968  16.352  13.891  0.5642  0.2065 -0.2683
23420W        W39554   9.673  11.596  14.826 -0.0580 -0.2187  0.0714
23421W        W39555  14.384   1.527   3.901  0.1131 -0.0683  0.3421
23422W        W39556   8.542   7.533   1.327  0.1291  0.1093 -0.3457
23423W        W39557  15.199  18.988   1.621 -0.0805  0.0958 -0.1391
23424W        W39558   8.292  15.471   0.683 -0.2388 -0.0508  0.0522
23425W        W39559  13.940   4.729  13.971 -0.0410  0.1851  0.0167
23426W        W39560  16.905  12.590   3.746 -0.2535 -0.0537 -0.0767
23427W        W39561  15.210   7.400   0.102  0.1208 -0.0477  0.2356
23428W        W39562   7.700  14.272   0.399 -0.1796  0.2154 -0.1832
23429W        W39563  13.273  16.230   1.288 -0.3280  0.0821  0.0610
23430W        W39564   8.526  10.467  11.473 -0.0678  0.0616  0.0310
23431W        W39565  11.292  17.345  11.949  0.1426 -0.3246 -0.0686
23432W        W39566   0.612   1.672   3.842 -0.0073 -0.0389  0.1501
23433W        W39567  12.942  10.897  11.670  0.0900 -0.4337 -0.0281
23434W        W39568  17.443   7.934   0.309 -0.0204 -0.1159  0.1013
23435W        W39569   0.090   9.376   2.751 -0.0620 -0.1466  0.1235
23436W        W39570   8.249   8.301  12.209 -0.1363 -0.1078  0.1056
23437W        W39571  18.745  15.346  13.019 -0.1515 -0.3781 -0.2192
23438W        W39572  15.023  14.403   0.336  0.2175 -0.0070 -0.1997
23439W        W39573   2.003  10.289   0.966 -0.0179 -0.2997  0.1994
23440W        W39574  16.890   1.448  12.162 -0.1188  0.0021  0.1517
23441W        W39575  13.691   8.776   3.875 -0.1364 -0.0405 -0.0874
23442W        W39576   2.831   2.069   2.864 -0.3423 -0.2844  0.1350
23443W        W39577  16.054  14.284   1.269  0.0315 -0.1948 -0.2221
23444W        W39578   0.041   3.885  13.914  0.0119  0.2916 -0.0159
23445W        W39579  12.990  17.264  11.889 -0.1962  0.0154  0.3255
23446W        W39580  14.638  18.445  11.457 -0.0407  0.1664  0.1235
23447W        W39581   3.015   7.824   4.083  0.1214 -0.0103  0.1042
23448W        W39582   8.762  18.362   1.324  0.3775 -0.2450  0.1286
23449W        W39583   9.608   8.736   3.460  0.1174 -0.0725  0.4781
23450W        W39584  18.483  11.722  14.784 -0.2549 -0.2999 -0.1551
23451W        W39585  10.477   1.171  11.795  0.1051  0.0305 -0.1200
23452W        W39586   4.244   4.101  10.577  0.0731  0.1444  0.3063
23453W        W39587   9.551   8.819  11.889  0.2349  0.2562  0.0483
23454W        W39588   7.674   0.685  11.387  0.1325  0.0312  0.1098
23455W        W39589  11.839   6.269   1.950  0.3350  0.0367  0.1539
23456W        W39590   7.052   7.965   5.988  0.0230  0.0834 -0.2348
23457W        W39591  13.771   1.600  10.831 -0.1816  0.3720  0.3896
23458W        W39592  16.849  16.806  10.613 -0.0143 -0.0481 -0.2503
23459W        W39593   0.685   0.441  13.139  0.0680  0.3661  0.3473
23460W        W39594   5.742   6.550   0.574 -0.1279  0.1416 -0.0165
23461W        W39595  17.877  16.732  14.762 -0.3035  0.2437 -0.2651
23462W        W39596  13.352   8.578   5.177 -0.1511  0.0277  0.0447
23463W        W39597   2.267  18.778  14.398  0.1405 -0.0429 -0.1350
23464W        W39598   8.774  10.510  13.898  0.0033  0.1576 -0.3495
23465W        W39599  13.402   1.748   4.067 -0.4396 -0.1623  0.2524
23466W        W39600  13.037  19.284  11.758  0.1980  0.4848 -0.3396
23467W        W39601   2.010  18.996   3.166 -0.0158  0.2587  0.1308
23468W        W39602  15.303   4.186   0.746  0.1952 -0.0549 -0.0248
23469W        W39603   9.238   7.821   0.720  0.6762 -0.2245 -0.2837
23470W        W39604   2.162   1.928  10.229 -0.0870 -0.0437  0.1251
23471W        W39605  10.331   0.034   2.319 -0.1326 -0.1279  0.2153
23472W        W39606   8.047  12.676   3.168 -0.0596  0.1169  0.2479
23473W        W39607  19.328   9.048   1.050  0.2127  0.1097  0.1269
23474W        W39608  15.465  11.445   1.713 -0.1125 -0.1344 -0.0240
23475W        W39609   9.072  13.289   3.167  0.3358  0.0451  0.3925
23476W        W39610   7.395   6.674  14.352 -0.0896 -0.1726  0.0776
23477W        W39611   0.841  16.274  14.175  0.1749 -0.2777  0.2395
23478W        W39612  13.013   8.103  10.364 -0.0681 -0.0453  0.0323
23479W        W39613  11.086  18.104   1.318  0.1112  0.1365  0.1311
23480W        W39614  15.723  11.318   1.308  0.4265 -0.3066  0.0011
23481W        W39615  11.165   5.760   3.314  0.1360 -0.0348 -0.0407
23482W        W39616  16.560  18.147   2.420  0.3605  0.0105  0.0666
23483W        W39617  12.805   2.097   0.754 -0.0471 -0.1502  0.2333
23484W        W39618   2.505  14.212   2.807 -0.0407 -0.3020  0.1987
23485W        W39619   7.955   8.701   2.106  0.1989  0.3858  0.4048
23486W        W39620   6.586   3.250   4.881  0.1014 -0.1103  0.1709
23487W        W39621   8.449   0.170   4.314  0.2559 -0.2501 -0.0841
23488W        W39622  12.148   3.312  10.060  0.1041 -0.2285  0.1575
23489W        W39623   0.173  15.899   4.424 -0.1061  0.0353 -0.1332
23490W        W39624   5.709  18.907  11.809  0.0169  0.0344 -0.2803
23491W        W39625  14.887  17.210   2.615  0.0482  0.1906 -0.1491
23492W        W39626   2.776   9.861  10.851  0.1110  0.4660  0.0373
23493W        W39627  11.428  12.542  13.888 -0.0372 -0.3864 -0.1260
23494W        W39628  19.282   8.056   1.223 -0.1170 -0.2598  0.1244
23495W        W39629  16.500   0.361   4.412 -0.3056 -0.0739  0.2251
23496W        W39630  18.128  18.043  11.313 -0.0400 -0.1153 -0.0526
23497W        W39631   5.849  18.604   4.309  0.0567 -0.1335  0.2450
23498W        W39632   2.008   4.274  13.601  0.1607 -0.1436 -0.0382
23499W        W39633   2.873   4.597   0.768  0.1668  0.1262  0.1263
23500W        W39634  17.234   7.311  11.373 -0.0974  0.1828  0.0459
23501W        W39635   4.983   9.271  10.992 -0.0003 -0.0647 -0.2010
23502W        W39636   5.714   0.777   0.409 -0.0586 -0.0951  0.5039
23503W        W39637   4.665  13.723  14.576 -0.0230  0.1228 -0.0834
23504W        W39638   1.236   1.830  10.228  0.2842 -0.3624  0.1512
23505W        W39639   1.018  16.585  13.688  0.0212 -0.0923 -0.3321
23506W        W39640   9.559   1.567   1.679  0.0670 -0.0617  0.0508
23507W        W39641  12.524  18.437   0.860 -0.0297  0.0857 -0.1282
23508W        W39642   9.707   9.447  11.341  0.0996 -0.5389  0.1591
23509W        W39643   2.567   9.991   0.730  0.0871  0.1746  0.1533
23510W        W39644  16.359  17.335  10.422 -0.0635  0.3688 -0.0931
23511W        W39645  17.126  17.126  13.451 -0.1876  0.1249  0.4815
23512W        W39646   9.936  18.954  12.184  0.0106  0.1445 -0.1158
23513W        W39647   8.532   0.050  11.270  0.0969  0.4782  0.0631
23514W        W39648   6.835   7.686  13.908  0.3170 -0.2620  0.0739
23515W        W39649  10.511   4.631   1.099  0.2587  0.0112 -0.1149
23516W        W39650  12.332  11.378  14.469 -0.0995  0.4136  0.0940
23517W        W39651  18.927   4.256   3.195  0.1537  0.3394  0.1616
23518W        W39652   3.280  11.817  11.494  0.3339 -0.0599 -0.0047
23519W        W39653   3.809  13.579   4.527 -0.1271 -0.2579 -0.1951
23520W        W39654  13.238   2.953  12.152  0.0593  0.1791  0.3305
23521W        W39655  18.424   7.582   4.775  0.1186  0.0140 -0.0275
23522W        W39656   7.991   0.467  11.776  0.1127  0.0593  0.0633
23523W        W39657  14.113   8.667   2.942 -0.1954  0.1514 -0.1140
23524W        W39658   4.783  15.075   4.400 -0.1112  0.1053  0.0430
23525W        W39659   8.478   0.312   0.864 -0.1191  0.2101 -0.3002
23526W        W39660  11.976   2.186   0.776 -0.4257 -0.2131  0.1866
23527W        W39661   0.136   9.765   5.039  0.2140 -0.1091  0.0608
23528W        W39662   9.900  14.012   2.521  0.0667 -0.1746 -0.1084
23529W        W39663   7.732   4.113  12.190  0.2224  0.4099  0.0837
23530W        W39664  16.955   8.778   3.852 -0.2027 -0.1342  0.0646
23531W        W39665   0.471  17.771   4.495  0.2501 -0.0737 -0.1247
23532W        W39666  15.621   7.875   4.963 -0.1519 -0.1955  0.1165
23533W        W39667  10.006  10.851   3.819 -0.1438 -0.2881  0.3316
23534W        W39668  14.577   2.603  11.370  0.2629  0.1057  0.0463
23535W        W39669  11.357  11.676  13.433  0.0433 -0.2255 -0.0296
23536W        W39670  15.073  18.736   0.980  0.0097  0.3332 -0.1192
23537W        W39671  15.189   9.113   5.198  0.1519 -0.3075 -0.0001
23538W        W39672   6.681  11.068  13.568  0.0041  0.2580 -0.1561
23539W        W39673   9.903   4.069  12.091 -0.0262 -0.1462 -0.2023
23540W        W39674   9.715   4.656  13.170  0.2977 -0.0351  0.0039
23541W        W39675   6.602  16.895  11.541 -0.2733 -0.0169  0.0044
23542W        W39676   5.467   0.417   2.837 -0.0286  0.1290  0.1076
23543W        W39677  14.706   6.114   0.188  0.1440 -0.1554  0.2920
23544W        W39678  10.228  13.319   0.361  0.0166  0.2609 -0.0667
23545W        W39679   3.271  11.068   3.095 -0.1301  0.3943 -0.1171
23546W        W39680   3.871  16.586   2.574  0.0043 -0.1626 -0.0539
23547W        W39681   3.663   5.219  11.819 -0.1151 -0.1902 -0.2405
23548W        W39682   4.139   0.377  12.350  0.1995  0.0709  0.0009
23549W        W39683  19.002   0.009   1.003 -0.1721  0.2983  0.2554
23550W        W39684  18.089  12.435   0.638 -0.1171  0.1647 -0.2104
23551W        W39685   2.810  17.338   0.346 -0.4726  0.1133  0.1738
23552W        W39686   6.479  12.389   4.760 -0.2654 -0.4227  0.2440
23553W        W39687  17.783  11.427   4.609  0.4790 -0.0336 -0.1118
23554W        W39688  16.619   4.037  14.477  0.0950 -0.2322  0.1220
23555W        W39689  17.827   5.511  10.934  0.2558 -0.1852  0.2305
23556W        W39690   2.074   1.218   4.324  0.3136  0.2465  0.1937
23557W        W39691  16.220  16.763  11.559 -0.2224  0.3704 -0.2756
23558W        W39692   7.632  10.730  11.262  0.0207  0.2526  0.0125
23559W        W39693  14.328  17.609  11.901  0.1459  0.0229  0.0669
23560W        W39694   2.965  12.773  14.377 -0.1653 -0.0374 -0.1356
23561W        W39695   2.540  16.241   3.041  0.0004  0.0334 -0.1654
23562W        W39696   1.283  18.673   0.203 -0.1652  0.0017  0.2564
23563W        W39697  14.971   3.933  13.470  0.1475  0.1045  0.2184
23564W        W39698   2.201   7.892  10.841  0.1885 -0.0666  0.1167
23565W        W39699   4.787  11.511   1.313 -0.2716  0.0977 -0.1402
23566W        W39700   7.057   0.556   4.332  0.1338  0.1474 -0.1128
23567W        W39701   9.029   2.895   3.855  0.0226 -0.2164  0.1324
23568W        W39702  17.220   6.220   0.935  0.2327 -0.0946  0.2397
23569W        W39703   1.562   0.369   2.815 -0.2031 -0.4185  0.1220
23570W        W39704  15.733  15.894   1.952 -0.0578  0.2195  0.0910
23571W        W39705   4.578  10.362  14.479 -0.0341 -0.0841  0.1086
23572W        W39706  16.311  14.662  13.691 -0.1581  0.0339 -0.4043
23573W        W39707   6.718  17.313   1.043  0.0663 -0.1717  0.2275
23574W        W39708  19.025  13.450  11.248 -0.0222 -0.1124  0.3048
23575W        W39709   9.988   7.134   2.027 -0.1121  0.3729 -0.1387
23576W        W39710   3.912  13.989   1.437 -0.0669  0.1257 -0.2974
23577W        W39711   0.796  18.175   1.956 -0.1564 -0.0093 -0.1339
23578W        W39712  16.514  17.745   0.974 -0.0755  0.0350 -0.2647
23579W        W39713  12.849  14.544   4.872  0.0976 -0.1752  0.3077
23580W        W39714   5.082  19.087  14.429 -0.2745 -0.1231 -0.0711
23581W        W39715   4.725  12.412  12.064 -0.0677 -0.0409 -0.2052
23582W        W39716  17.476   2.069   2.406  0.1435  0.2470 -0.1501
23583W        W39717   6.004  16.261  11.800 -0.0078  0.0816  0.0303
23584W        W39718  13.310  12.523  13.707 -0.3480 -0.0618  0.5057
23585W        W39719   2.273   9.401   3.015  0.0107  0.0970 -0.1256
23586W        W39720  13.804  12.591   3.713 -0.0968  0.1214  0.0951
23587W        W39721   8.727  16.923  14.164  0.0987 -0.3495 -0.1628
23588W        W39722   5.375  17.436   2.309 -0.1152 -0.0227 -0.1918
23589W        W39723   8.891   5.677  11.503 -0.3005 -0.1326  0.0348
23590W        W39724   6.718  13.801  14.845  0.1033 -0.5684  0.3831
23591W        W39725   6.403  12.140  12.259 -0.1222  0.3033  0.0145
23592W        W39726   3.907   0.482   9.743  0.1135  0.2090 -0.0086
23593W        W39727   1.218   6.434  10.768 -0.2191  0.1416 -0.1085
23594W        W39728  13.073  10.376  10.808  0.1263 -0.0854 -0.3188
23595W        W39729   7.397  12.620   0.693 -0.1793 -0.2266 -0.2853
23596W        W39730  17.885  11.514  10.692 -0.0850  0.0928 -0.1963
23597W        W39731   5.289   1.810   1.211  0.1151 -0.0811 -0.2224
23598W        W39732  13.624   3.371   4.007 -0.0305 -0.1844 -0.1039
23599W        W39733   2.222  13.925   0.954 -0.2037  0.2409 -0.1563
23600W        W39734  16.009   1.490   1.540 -0.0309 -0.1976  0.0719
23601W        W39735   6.529  17.035   1.457 -0.1354 -0.1321 -0.1949
23602W        W39736   5.875  12.148  11.030  0.2105  0.1146  0.2275
23603W        W39737   8.559  17.462   4.954  0.1460 -0.0887 -0.3844
23604W        W39738   9.151  17.698   3.853 -0.3538 -0.1680 -0.4610
23605W        W39739  16.326  13.803   1.913 -0.2565  0.0214 -0.2511
23606W        W39740  16.959  11.090   4.666  0.0646 -0.1781 -0.0248
23607W        W39741   1.659   3.140  14.906  0.2722  0.0495  0.1343
23608W        W39742  17.133   5.016   4.630  0.0630 -0.0278 -0.3818
23609W        W39743   1.391   4.975   3.407 -0.0539  0.0680  0.0593
23610W        W39744  16.698  13.019  13.830  0.0136 -0.1249 -0.2293
23611W        W39745   4.398  17.711  13.608 -0.1395 -0.0314  0.0158
23612W        W39746   2.941  16.206   1.737 -0.0111  0.1137  0.0608
23613W        W39747  16.325   0.514  12.202  0.0016 -0.0401 -0.2822
23614W        W39748   5.208  16.445  13.706  0.0919  0.4799 -0.1434
23615W        W39749  17.532   9.474  11.795 -0.0676  0.2077 -0.1519
23616W        W39750  18.808  19.050   3.198 -0.1110 -0.0377  0.3393
23617W        W39751  11.036  19.328   0.646  0.4066 -0.1912 -0.0572
23618W        W39752   1.023  17.193  10.946 -0.0700  0.1291  0.3975
23619W        W39753   9.687   8.884   1.981  0.0166 -0.1326 -0.0758
23620W        W39754  11.739  12.838  10.103  0.1517 -0.5405 -0.1974
23621W        W39755  18.936  10.499  14.781  0.0472  0.0709 -0.0558
23622W        W39756   7.551   8.527   4.438  0.1244  0.2488 -0.0562
23623W        W39757  15.981   3.543  13.405  0.3140  0.3454  0.0035
23624W        W39758   9.154  11.550  14.611 -0.1705  0.2056  0.0604
23625W        W39759   8.703   9.261  12.612 -0.1718 -0.2759 -0.0867
23626W        W39760  14.654   0.116  12.374 -0.1621  0.1628  0.0653
23627W        W39761  11.092  11.028  14.985  0.2668  0.2291  0.0915
23628W        W39762  14.797   2.250  10.537  0.4529  0.4058 -0.2025
23629W        W39763   5.944  16.047  10.810 -0.3676 -0.3429  0.2722
23630W        W39764  14.869   2.507   4.678 -0.0414 -0.0071 -0.0534
23631W        W39765  12.481   4.701  13.557  0.2493  0.1150 -0.0500
23632W        W39766  17.550  15.837  14.814  0.0818  0.2010 -0.0425
23633W        W39767   0.396  14.897   1.764  0.0621 -0.0896  0.2692
23634W        W39768  14.155   5.021   0.630  0.1768 -0.2056 -0.2318
23635W        W39769   6.724   1.108   3.584  0.0934 -0.1065 -0.1548
23636W        W39770  16.772   1.699   1.987  0.0192  0.2383 -0.2262
23637W        W39771   5.168  12.572   1.117  0.1967 -0.1704  0.0644
23638W        W39772  13.385  17.602   1.702  0.0231 -0.2804  0.1907
23639W        W39773   2.006   8.734   1.759  0.0206 -0.1071  0.2637
23640W        W39774  17.182   5.441  12.472  0.0953  0.0625 -0.1271
23641W        W39775  14.199   3.392   3.359 -0.1753 -0.3694  0.2491
23642W        W39776   9.983   4.918   2.340 -0.0965  0.0314  0.2059
23643W        W39777  12.601   8.933  11.386 -0.1448  0.3013  0.0753
23644W        W39778  17.164  12.891  13.979  0.0323  0.0377  0.3401
23645W        W39779   8.679  17.596  10.594  0.3604 -0.0484  0.1143
23646W        W39780   5.329   8.298  10.228  0.3220 -0.1843  0.2647
23647W        W39781  18.149  10.987  10.482  0.3272  0.1273 -0.4309
23648W        W39782  13.904  18.363  12.346 -0.0589  0.1800  0.3500
23649W        W39783   1.654   9.209  14.334 -0.1628 -0.0604  0.1303
23650W        W39784   7.879  11.071   1.616 -0.1384 -0.0346 -0.1254
23651W        W39785  15.840   0.034  10.563 -0.0175 -0.0332  0.2384
23652W        W39786   9.696  11.512  12.306  0.2200  0.2355 -0.1010
23653W        W39787  16.662   3.863  12.039 -0.0935 -0.1310 -0.3653
23654W        W39788   4.056   8.872  13.511  0.1312 -0.0572  0.0161
23655W        W39789  18.498   9.924  14.921  0.1685 -0.2567  0.0948
23656W        W39790  16.102   8.513   2.592  0.2265 -0.0772 -0.0718
23657W        W39791   3.885   8.964   2.160  0.0678 -0.3233 -0.1398
23658W        W39792  10.416   4.194  12.787 -0.1854  0.0776  0.1841
23659W        W39793  11.356  18.842  13.816  0.1368  0.2727  0.2419
23660W        W39794  17.941  15.649   3.740  0.0906  0.1021  0.0468
23661W        W39795   1.380   7.508   0.363  0.2397  0.3244 -0.2271
23662W        W39796   0.060  11.484   3.190 -0.3070  0.5041  0.1389
23663W        W39797  12.239   6.024   4.211 -0.3470  0.2066  0.1742
23664W        W39798  10.551   3.005   3.837 -0.1167  0.0392 -0.0656
23665W        W39799  10.809  13.487   5.209  0.0030  0.1033 -0.0339
23666W        W39800   8.818  12.906  11.706  0.4170 -0.1214  0.1137
23667W        W39801   1.946  10.505  11.934  0.0266  0.3038 -0.1432
23668W        W39802  10.912   5.873   2.798  0.1479  0.2828 -0.0788
23669W        W39803  15.782   2.778  10.972 -0.0943 -0.2504  0.0555
23670W        W39804  12.411   8.083  10.957 -0.1368 -0.1843 -0.2406
23671W        W39805  16.689  15.492  12.502  0.2292  0.0668 -0.1740
23672W        W39806  11.099  19.299   9.859 -0.0660  0.1090 -0.4364
23673W        W39807   7.049  17.596   4.726 -0.1889  0.2228 -0.2445
23674W        W39808  15.595   3.578   1.685 -0.2929  0.2579  0.0712
23675W        W39809  12.072  17.918  11.379  0.0099 -0.0895 -0.1373
23676W        W39810   6.141  16.607  10.806  0.5019 -0.1240  0.3216
23677W        W39811  15.771   9.858  13.430  0.5274  0.2706  0.2482
23678W        W39812   9.565  15.230  14.827 -0.4000 -0.2271 -0.0728
23679W        W39813  13.147   9.767   0.541  0.1791 -0.1494  0.0111
23680W        W39814  16.733  17.765   2.690 -0.4399 -0.0839 -0.3630
23681W        W39815  10.694   2.895  14.791  0.1957 -0.0462 -0.0328
23682W        W39816  10.287  15.621  10.115 -0.3772 -0.0022 -0.0083
23683W        W39817   2.281  16.294  13.043  0.0016  0.2699 -0.0964
23684W        W39818   3.793   7.663   3.083  0.1757  0.2206 -0.0011
23685W        W39819  14.528   8.869   1.556 -0.4562 -0.2993 -0.1897
23686W        W39820   0.703   7.571  12.032  0.5468  0.0231  0.2986
23687W        W39821   6.877   1.403  14.048  0.0265 -0.0879  0.1528
23688W        W39822  12.723  15.606  13.234  0.0163 -0.0345  0.0826
23689W        W39823  10.283  12.780   2.772  0.4352  0.2132 -0.1788
23690W        W39824  15.053  16.780   3.422  0.2695  0.3265  0.0820
23691W        W39825  14.066  18.077  14.237 -0.0127 -0.1008  0.0693
23692W        W39826   4.633   0.331   1.151 -0.1366  0.0597  0.2296
23693W        W39827  11.434   5.817   1.973 -0.0416 -0.2751 -0.0902
23694W        W39828  12.393   2.646   3.766 -0.0782 -0.1539  0.0120
23695W        W39829   6.769   2.290  14.237 -0.0240  0.1327  0.1363
23696W        W39830  15.839  11.465   4.953  0.1077  0.3847  0.2373
23697W        W39831   5.834  19.182  13.897 -0.0019  0.2790  0.0086
23698W        W39832   9.437   5.401   1.653 -0.1140  0.1726  0.1427
23699W        W39833  12.850  14.070   3.770 -0.0492  0.1383 -0.0744
23700W        W39834   8.565  16.834   0.983 -0.0209 -0.1002 -0.3830
23701W        W39835  11.070   2.844   3.857 -0.2418  0.1665  0.0537
23702W        W39836   0.534   6.643   4.181  0.1691  0.1455 -0.3494
23703W        W39837  11.689  12.069   1.531 -0.2926 -0.0491  0.0029
23704W        W39838   1.600   0.022  12.258 -0.3121 -0.0856  0.0865
23705W        W39839  18.547   6.642   3.033 -0.2869  0.1838  0.0967
23706W        W39840   4.415  11.499  12.623  0.1264  0.3426  0.2743
23707W        W39841   2.701  16.231  13.334  0.0950  0.2670  0.1592
23708W        W39842  17.464   8.744   3.811  0.1787  0.3106  0.4024
23709W        W39843  14.648   5.426   2.782 -0.2917 -0.0633 -0.2607
23710W        W39844   6.646  10.075   1.917  0.0457  0.2961  0.3492
23711W        W39845  14.489   1.117  11.302 -0.1323  0.1520  0.3449
23712W        W39846  18.654  17.091  14.170 -0.1518 -0.4383 -0.1362
23713W        W39847   9.173   4.988  13.839 -0.2060  0.3270  0.0983
23714W        W39848   7.234  14.117   0.243 -0.0073  0.1939  0.0369
23715W        W39849   5.979  17.141  14.858  0.2452 -0.1342  0.1608
23716W        W39850   5.573  10.329   4.727 -0.0742  0.1190  0.0965
23717W        W39851   6.170  12.909   4.966 -0.0908  0.0713  0.0553
23718W        W39852  11.293  17.060   0.950  0.0114 -0.2014 -0.1805
23719W        W39853  18.074  17.725  11.674 -0.0569  0.2140 -0.1612
23720W        W39854  10.769   0.168  14.819 -0.0352  0.1448 -0.1666
23721W        W39855  15.648  16.271   1.265  0.0159 -0.0792  0.1626
23722W        W39856   4.499  18.465  14.088 -0.1604 -0.2063  0.0648
23723W        W39857  18.525   4.411   4.860  0.1496  0.0453 -0.0120
23724W        W39858   6.107   2.784   2.494  0.2877 -0.2357  0.0501
23725W        W39859  16.562  13.406   0.150  0.1975  0.0963  0.1701
23726W        W39860  16.577   3.569   0.179  0.0010  0.1462 -0.2779
23727W        W39861   1.317   9.694  11.996 -0.0946 -0.1992 -0.0094
23728W        W39862  12.361   6.696  11.213  0.0139 -0.0433 -0.0860
23729W        W39863   8.748   4.408  13.319  0.0748  0.3870 -0.2040
23730W        W39864  17.910   9.419  12.200  0.1704 -0.2388 -0.1278
23731W        W39865   8.393  14.939   0.459  0.0268 -0.0626 -0.0675
23732W        W39866  12.878  13.301  14.334  0.1475  0.1137 -0.3900
23733W        W39867  14.896  14.492   3.491 -0.1252  0.0615 -0.3427
23734W        W39868  10.275  14.401  13.203  0.2751 -0.0450 -0.0756
23735W        W39869   3.805  12.613  11.749  0.0482  0.3842  0.1678
23736W        W39870   7.802  13.003   3.418 -0.0443 -0.2285 -0.1020
23737W        W39871   6.917   3.517  13.236  0.0896  0.0174  0.0549
23738W        W39872  15.125   3.100   4.730 -0.0949 -0.2024  0.2593
23739W        W39873   8.886   0.816   3.716 -0.3897 -0.1703 -0.1953
23740W        W39874  13.757   4.216   0.492 -0.0914 -0.0594 -0.0181
23741W        W39875  16.796   4.369   4.552 -0.2705 -0.1560 -0.5347
23742W        W39876  18.458   6.862  11.646 -0.1616  0.1491  0.1172
23743W        W39877  16.831   9.476  14.799 -0.0738  0.2515  0.3521
23744W        W39878   8.032   7.468   3.756  0.3002 -0.0234 -0.2551
23745W        W39879  12.989  16.227   2.133  0.2433  0.1714  0.1001
23746W        W39880  15.802  10.221  10.243  0.3384 -0.3334 -0.3606
23747W        W39881   7.904  10.520   1.832 -0.1247  0.1902  0.0819
23748W        W39882   7.930   8.827   4.577 -0.2943  0.1116  0.0881
23749W        W39883   0.011   6.464   3.465 -0.0782  0.1221  0.2106
23750W        W39884   0.499   4.709   1.703 -0.3206  0.3142  0.0688
23751W        W39885  16.176   5.557   2.670 -0.0543 -0.0521 -0.1946
23752W        W39886   9.706   0.708   5.446 -0.2555 -0.3282  0.0920
23753W        W39887  10.322   0.381  13.433 -0.0069 -0.0269 -0.3943
23754W        W39888  14.946  15.591  12.459 -0.3136 -0.0718  0.1337
23755W        W39889   0.577   0.563  10.109  0.3903 -0.1128 -0.3024
23756W        W39890   2.898  16.584  12.424  0.2140 -0.0579 -0.0540
23757W        W39891  18.959  10.605  14.217  0.0447  0.0272  0.3175
23758W        W39892   4.341  17.490   3.354  0.0578 -0.0174 -0.3155
23759W        W39893  15.494   4.243  12.885  0.2014  0.1092  0.0809
23760W        W39894   3.651  12.044   5.013  0.0829  0.1653  0.1651
23761W        W39895   3.736  13.338  14.042  0.3636 -0.0129 -0.1375
23762W        W39896  14.593  12.353  13.276  0.0433 -0.0457  0.0510
23763W        W39897   3.226   3.962  12.147  0.4710 -0.0224 -0.2539
23764W        W39898   5.531  14.641   3.856 -0.0070 -0.0750  0.2321
23765W        W39899   9.329   1.780   3.246 -0.1707 -0.0707 -0.0413
23766W        W39900   4.879  13.054  12.850  0.0927 -0.0174 -0.0969
23767W        W39901  16.186   7.181  10.227 -0.3606 -0.1314  0.1585
23768W        W39902   6.716  16.114  13.690  0.2321  0.2311 -0.1305
23769W        W39903   7.000  16.183  13.157  0.0212 -0.0004  0.0555
23770W        W39904   6.291   5.727  13.362  0.1539  0.0933 -0.2472
23771W        W39905  16.605   7.992  12.848  0.2251  0.2023 -0.0431
23772W        W39906  10.900  10.421  14.155 -0.0542 -0.0484  0.0751
23773W        W39907  13.978   4.170  14.997  0.0774  0.0404  0.0783
23774W        W39908   2.783   2.255  14.885 -0.3353  0.0339  0.0923
23775W        W39909   2.541   4.842   1.100  0.5620 -0.0083  0.1056
23776W        W39910   2.605   6.822  11.793 -0.0216 -0.3052 -0.4929
23777W        W39911  11.410  18.066   3.450  0.2541  0.0119 -0.0765
23778W        W39912   8.791   0.506   4.401 -0.2788 -0.2436  0.3589
23779W        W39913   5.033   5.030   5.184 -0.1447  0.2437 -0.1169
23780W        W39914   2.976  16.621  10.670  0.0853  0.0589  0.0064
23781W        W39915   0.026   8.326  10.510  0.2145 -0.0176  0.1034
23782W        W39916   0.401  16.653  10.539 -0.2277  0.1669  0.1188
23783W        W39917   0.650   2.677   0.347 -0.1132 -0.1009 -0.3478
23784W        W39918   8.724   7.792  14.711  0.1213  0.1004 -0.1334
23785W        W39919   4.794  14.926  14.608  0.2864  0.1895 -0.0501
23786W        W39920  10.219  12.067  12.672  0.1175  0.2022 -0.2087
23787W        W39921   2.776  14.710  14.139  0.0749  0.0167 -0.0970
23788W        W39922  17.515   6.122  14.162  0.0377 -0.2444  0.1745
23789W        W39923  17.104   9.966   2.402  0.1939 -0.0161 -0.1059
23790W        W39924  18.789   0.681  11.674  0.2445 -0.0362  0.2019
23791W        W39925  13.107  11.096  11.162  0.0205 -0.0838 -0.1840
23792W        W39926  11.478  14.890  11.541 -0.1020 -0.2329 -0.0841
23793W        W39927  13.068   8.841   0.286 -0.1173 -0.1151  0.0517
23794W        W39928  15.922   1.618   0.149  0.1097 -0.0880 -0.2167
23795W        W39929  16.896   1.726   0.561  0.0943  0.0761 -0.0132
23796W        W39930  13.921   9.661  12.492 -0.2734 -0.1758 -0.0884
23797W        W39931  18.715  14.472  13.989 -0.3440  0.1420 -0.0182
23798W        W39932  14.771  18.822   0.515  0.0189 -0.1627  0.2320
23799W        W39933   9.194   6.018   9.836  0.0640  0.1332 -0.1610
23800W        W39934   2.900  13.758   3.011 -0.2357  0.0113 -0.3331
23801W        W39935   2.533   8.528   0.373  0.2136 -0.1209  0.0902
23802W        W39936   9.303   8.745   0.608  0.2967 -0.2488  0.1342
23803W        W39937  16.124   5.526  12.556 -0.1768  0.0654 -0.2739
23804W        W39938   7.289  18.786  11.305 -0.0067  0.0991 -0.1871
23805W        W39939  11.221  15.182  12.922  0.0503  0.0538 -0.1811
23806W        W39940  10.197   1.474   3.359  0.3068  0.1400 -0.1228
23807W        W39941   6.618   5.875   3.566 -0.1830  0.0728 -0.2300
23808W        W39942   8.667  13.496  14.420 -0.0143  0.1866  0.2476
23809W        W39943   0.436   6.764  10.117  0.1877 -0.0536  0.0365
23810W        W39944   3.000  13.308  13.494  0.0425  0.0644  0.0394
23811W        W39945  11.717  11.945   4.279 -0.0548  0.4746  0.3279
23812W        W39946  11.817  10.218   0.904 -0.2414 -0.1316 -0.2261
23813W        W39947  12.302  13.820  11.236  0.1084 -0.1465 -0.0552
23814W        W39948  18.231   0.901   1.098  0.1932  0.2509  0.0492
23815W        W39949   7.643  13.418   2.944  0.1108 -0.3783  0.3358
23816W        W39950   4.877   5.247   3.938 -0.2925  0.2446 -0.0166
23817W        W39951   2.194   9.423   4.287 -0.1419 -0.1805  0.1554
23818W        W39952  13.886  15.997   3.627  0.2255  0.1494 -0.0138
23819W        W39953   6.409  17.071  14.045  0.0031  0.1649 -0.1563
23820W        W39954   0.500  18.901   3.166 -0.0506  0.2509 -0.1467
23821W        W39955  10.128   2.739   3.942  0.1840 -0.3465  0.0281
23822W        W39956  14.085   0.228   1.789 -0.1402 -0.0202  0.0231
23823W        W39957   0.042   2.549   3.023  0.2687 -0.3563 -0.0006
23824W        W39958   8.503   3.956   1.940 -0.1095  0.0220 -0.0315
23825W        W39959  16.240   0.573   0.208  0.0196 -0.0181  0.0473
23826W        W39960  17.480   4.209   2.994  0.0620  0.1089 -0.0142
23827W        W39961  18.557  13.577  12.461  0.0351 -0.2824 -0.1960
23828W        W39962  17.734  18.224  12.894  0.0278 -0.3369  0.2610
23829W        W39963   0.504   8.136   4.494 -0.0625 -0.3058  0.1595
23830W        W39964   5.345  16.546  12.475  0.1493  0.1021 -0.0464
23831W        W39965   2.942  16.323   2.431  0.0195 -0.1817  0.1708
23832W        W39966  17.289   8.237   4.435  0.1117  0.0662  0.1308
23833W        W39967   5.966   7.028   3.569 -0.0374  0.3624 -0.1174
23834W        W39968  17.119  14.156   1.713 -0.3311  0.0267 -0.1150
23835W        W39969   8.361   0.942  13.579 -0.1184  0.3502  0.2646
23836W        W39970  18.849  13.244  14.664 -0.2678  0.1096 -0.0757
23837W        W39971  11.173  10.363  13.168 -0.0063  0.0358  0.1071
23838W        W39972   8.452   2.455   0.709  0.1748 -0.1938  0.0799
23839W        W39973   3.019  13.712  13.243 -0.1942 -0.0410 -0.2257
23840W        W39974   3.510   0.895   3.836  0.5121 -0.0789 -0.2037
23841W        W39975   5.007  19.064  12.641  0.1967 -0.1567 -0.1618
23842W        W39976  10.870  19.206  11.079  0.1254 -0.1566 -0.0145
23843W        W39977  17.215   9.491  14.341 -0.1194 -0.0676 -0.0081
23844W        W39978  12.729   5.675  11.017 -0.4393 -0.1544 -0.2460
23845W        W39979   7.827   4.133   2.582 -0.0053  0.0653 -0.2196
23846W        W39980  16.706   6.587   3.712  0.2910 -0.1346  0.1217
23847W        W39981  16.980   3.523  13.661 -0.0470  0.1140  0.3077
23848W        W39982   2.822   4.275  14.249 -0.1685 -0.3233  0.0872
23849W        W39983  16.806  13.424   2.235 -0.1813  0.3842  0.0630
23850W        W39984  17.988  11.260  12.254 -0.0462  0.2124  0.1292
23851W        W39985   4.232   5.646   2.693  0.0732  0.2187 -0.1385
23852W        W39986  12.795  18.068   5.794  0.0575  0.2052 -0.0668
23853W        W39987  18.679   5.637  12.315  0.0732  0.1885  0.2488
23854W        W39988   5.723  14.159   3.971  0.3159 -0.0244  0.0848
23855W        W39989  11.607  13.225  13.899  0.1633  0.0773 -0.2179
23856W        W39990  15.296  12.075  11.485 -0.2148  0.0061 -0.0026
23857W        W39991   7.682  17.973  12.468  0.1653  0.1969  0.1874
23858W        W39992  16.604  17.841  10.598 -0.4749  0.2347  0.2502
23859W        W39993   6.729  16.103   3.348  0.0955 -0.1558  0.0729
23860W        W39994   3.119  17.375   4.947 -0.1359 -0.0991  0.0744
23861W        W39995   8.729  15.893  12.814  0.0540 -0.1157 -0.2257
23862W        W39996  17.119   6.040   4.492  0.2480 -0.2255  0.1489
23863W        W39997  11.518   5.683  13.574 -0.1094  0.2084  0.2809
23864W        W39998  18.274  16.094   0.751 -0.1037 -0.3504  0.0514
23865W        W39999   0.969  18.220   5.392 -0.5112 -0.0363 -0.3109
23866W        W40000   0.509  11.448  14.984  0.2388 -0.2735  0.0133
23867W        W40001   8.993   3.953  10.087  0.0127 -0.1629 -0.0634
23868W        W40002  12.945   8.766   1.898 -0.2191 -0.0041  0.1288
23869W        W40003   6.173  10.591   0.587 -0.0414  0.2478 -0.0535
23870W        W40004  14.987  13.711  10.222 -0.1760  0.3136  0.0500
23871W        W40005   9.373   1.291   4.851 -0.0329  0.1116 -0.0388
23872W        W40006   5.028   8.940  12.720 -0.0315 -0.1380  0.2292
23873W        W40007   1.207   4.459   9.180 -0.0401 -0.1114 -0.0519
23874W        W40008  10.083  13.869  14.649  0.1104 -0.0097  0.1143
23875W        W40009   8.626   3.353  14.565 -0.1472 -0.1855  0.3901
23876W        W40010  10.053  17.589  14.069 -0.1122  0.3754 -0.0854
23877W        W40011  12.202  12.451   4.815  0.0774 -0.0523 -0.0391
23878W        W40012   0.426  10.632   3.652  0.0603  0.0695 -0.2268
23879W        W40013   7.149   2.093   3.715  0.0842 -0.0145 -0.1603
23880W        W40014  16.922  11.302   4.119  0.1099 -0.0718 -0.1731
23881W        W40015   8.654   1.544   0.612 -0.0918 -0.0146 -0.1787
23882W        W40016   4.136  10.818  11.225  0.1323 -0.3186  0.3885
23883W        W40017   8.089   5.981   3.665  0.0389  0.2475  0.3407
23884W        W40018   5.877  10.000   4.452 -0.1184 -0.1357  0.3860
23885W        W40019  18.184   5.971   3.623 -0.1703  0.2025 -0.1042
23886W        W40020  15.352  19.330  14.374 -0.1530  0.1475 -0.1877
23887W        W40021  12.986   4.908  12.800 -0.3000  0.0468 -0.1595
23888W        W40022   8.464   0.677   0.364  0.0934 -0.2105  0.3501
23889W        W40023   1.926   4.894   1.947 -0.1266 -0.0912  0.0975
23890W        W40024  18.650  14.808   9.909 -0.0479  0.1505  0.0133
23891W        W40025  11.365  19.262  12.656  0.4326  0.1537  0.2558
23892W        W40026   5.482  10.517   3.669  0.1965 -0.1937  0.0570
23893W        W40027   6.831  17.763  10.790 -0.1321 -0.4682 -0.2283
23894W        W40028   4.802   4.217   5.289 -0.0610  0.4343  0.0285
23895W        W40029   1.268   1.815   1.329 -0.0552  0.0528 -0.1141
23896W        W40030  17.928   1.460   4.440 -0.1853  0.2568 -0.1113
23897W        W40031   0.669  17.687   2.034 -0.0062 -0.2021  0.1704
23898W        W40032  16.581   2.731   3.782 -0.1925  0.2216  0.3624
23899W        W40033   3.787  16.242   3.467 -0.0609 -0.1918  0.1060
23900W        W40034   2.123  12.509  10.229  0.1949  0.3392  0.2142
23901W        W40035   0.054   9.931  11.673  0.1574 -0.0613 -0.2639
23902W        W40036   5.967  11.034   5.678 -0.1000 -0.1456  0.0149
23903W        W40037   2.168  12.317   0.591 -0.2560 -0.0701 -0.0876
23904W        W40038   5.201  10.605  10.229 -0.0438  0.3470  0.0178
23905W        W40039   5.372  10.852  11.614 -0.0851 -0.1455  0.2482
23906W        W40040  18.393   7.576   2.733 -0.2694 -0.1073  0.1799
23907W        W40041  18.995   0.437  10.474  0.0672  0.2551  0.0912
23908W        W40042   8.243  11.646   3.513  0.0693 -0.0598  0.1658
23909W        W40043  17.743   1.916   4.874  0.1262  0.1116  0.1122
23910W        W40044   4.526  13.891   3.373  0.2852  0.1425  0.1449
23911W        W40045   6.976   2.337  12.035  0.1934 -0.0816  0.1087
23912W        W40046   4.634  11.375   4.653  0.1221 -0.2021 -0.0420
23913W        W40047  17.708  17.835  10.505  0.0929  0.1799 -0.1604
23914W        W40048  18.411   7.192   1.880 -0.0505  0.2873 -0.1610
23915W        W40049  10.565   3.739  13.662  0.1050 -0.1359  0.1836
23916W        W40050  12.935  12.667   3.151  0.2481 -0.1015 -0.2428
23917W        W40051  17.102   1.449   1.647 -0.2458 -0.0049  0.0083
23918W        W40052  17.220  15.692  11.340  0.1104 -0.0945  0.3229
23919W        W40053   5.656  14.994  13.106 -0.1914  0.1715 -0.1534
23920W        W40054   4.172  18.375   5.253  0.0887 -0.0302  0.0550
23921W        W40055   0.137  15.260   3.418 -0.1904 -0.0182  0.0289
23922W        W40056   8.730   7.676  10.581 -0.2161 -0.1349 -0.3381
23923W        W40057   2.167  11.399  11.916  0.1070 -0.2562 -0.3107
23924W        W40058   9.686   3.173   3.835 -0.0064  0.0427  0.1699
23925W        W40059   7.224   7.064   0.149 -0.1041  0.2172 -0.4158
23926W        W40060   4.462  17.593  12.246  0.1825  0.0181  0.2984
23927W        W40061  13.811   6.856   3.673  0.2029  0.2411 -0.1242
23928W        W40062   9.337   4.086  14.311 -0.0319 -0.0923  0.3218
23929W        W40063   3.422   8.379  11.425 -0.0024  0.0535 -0.0335
23930W        W40064  12.127  18.268  13.802 -0.0171 -0.1092 -0.1896
23931W        W40065  18.306   2.899   4.198  0.3385  0.3689  0.2469
23932W        W40066   9.974   8.158  14.004  0.1250  0.1499  0.5188
23933W        W40067  11.234  15.366  13.456 -0.0278  0.1529  0.1259
23934W        W40068  12.696  14.940  12.760  0.1468 -0.0944  0.0036
23935W        W40069   1.642  14.022  10.814  0.0192  0.0155  0.0999
23936W        W40070  15.216  10.957   0.786 -0.0896 -0.0271  0.1839
23937W        W40071  16.847   0.575   0.138  0.2449  0.0281  0.0223
23938W        W40072   9.896   2.089  11.486  0.1002  0.0880 -0.0625
23939W        W40073  16.659   9.035   0.058  0.2408  0.0878 -0.3102
23940W        W40074   1.619   6.079   4.089  0.2405  0.0933  0.0197
23941W        W40075   5.167  17.808   3.649 -0.0933 -0.0341 -0.1987
23942W        W40076   4.669   8.614  13.142 -0.3246  0.0987 -0.0061
23943W        W40077   1.596   6.067  14.970  0.0487  0.2153 -0.1268
23944W        W40078  19.290   5.092  13.053  0.2235 -0.1285 -0.1779
23945W        W40079  11.706  12.162  12.092  0.1215  0.1592 -0.4176
23946W        W40080  15.856  10.233  12.462 -0.1260  0.1262 -0.0953
23947W        W40081  16.818   4.202   1.044 -0.1636  0.1276 -0.0166
23948W        W40082   2.189  12.187   1.845  0.1240  0.1339 -0.3396
23949W        W40083   6.202   2.903   4.677  0.3493 -0.1546  0.4327
23950W        W40084   7.308  12.671  14.212  0.2245 -0.0212  0.0571
23951W        W40085   1.456  17.381  11.592 -0.0507  0.3091 -0.0769
23952W        W40086   4.427  10.964   3.819  0.1856  0.0988  0.0822
23953W        W40087  15.108  14.590   0.888  0.1151  0.5030  0.0851
23954W        W40088  14.375   2.020   2.929 -0.1692  0.1994 -0.1293
23955W        W40089   0.045  10.451   2.570 -0.3398  0.0342  0.2350
23956W        W40090   6.334   3.848   1.797 -0.0310  0.2783  0.2625
23957W        W40091   2.325   2.284  12.037 -0.0184  0.1832  0.1550
23958W        W40092   0.270   6.595   1.122  0.0414 -0.1428 -0.1162
23959W        W40093   6.241  14.178  11.843  0.0197  0.1870  0.0628
23960W        W40094  18.688  12.431   4.661  0.3190  0.0519 -0.0131
23961W        W40095   3.490   2.810   1.980  0.3061  0.1100  0.1535
23962W        W40096  11.437   5.111  10.618 -0.2516 -0.1547 -0.3087
23963W        W40097  14.255   5.660   1.880  0.0691 -0.1787  0.0320
23964W        W40098   0.353   6.154   2.534  0.0148  0.2509 -0.0557
23965W        W40099  13.359  17.933   1.326  0.2127  0.1072  0.1216
23966W        W40100  18.198  13.871  12.954 -0.0432  0.3539 -0.0960
23967W        W40101   4.393  15.512  14.892 -0.1146 -0.1775  0.0340
23968W        W40102  18.156   4.220  11.315 -0.1991  0.2521  0.3685
23969W        W40103   7.160   7.959   1.750  0.0466 -0.1213  0.1628
23970W        W40104   3.805  15.466   1.146 -0.0558 -0.0943  0.1015
23971W        W40105   7.613  11.039  14.876  0.0600 -0.2497 -0.1722
23972W        W40106   8.152   2.053  14.280 -0.3459  0.1400 -0.0922
23973W        W40107  10.718  15.626  12.413 -0.0248 -0.3670 -0.0261
23974W        W40108  14.824   7.862  12.427 -0.1195 -0.2268 -0.0688
23975W        W40109   2.951   3.641   2.457  0.0211  0.3104 -0.3285
23976W        W40110   5.577   2.106  12.737  0.0591  0.0802  0.1815
23977W        W40111   2.185   5.609   3.019  0.0870  0.1201 -0.4019
23978W        W40112  18.758   3.629   3.736 -0.0132 -0.3165  0.3460
23979W        W40113  11.313   1.791  14.325 -0.3121 -0.2934 -0.1163
23980W        W40114  12.079   3.853  12.290  0.1639 -0.2386  0.1115
23981W        W40115   0.815   1.960   1.548  0.3563 -0.2548  0.2659
23982W        W40116  19.324  15.166  14.926  0.2063 -0.1725 -0.3450
23983W        W40117  17.572  18.981   5.284 -0.2760 -0.4118  0.2147
23984W        W40118  10.366  17.570  11.282 -0.1085 -0.2981  0.0110
23985W        W40119  13.118   2.190   5.324  0.1306 -0.1444  0.4447
23986W        W40120  18.399   0.161   2.831  0.2155  0.1157  0.2216
23987W        W40121   1.250  14.712  14.923  0.1479 -0.0565  0.2259
23988W        W40122  17.181   0.712   4.513 -0.1032 -0.1914  0.0174
23989W        W40123  13.739  18.545   2.131  0.2088 -0.0156  0.0315
23990W        W40124  12.624   8.944  11.925  0.2721 -0.0037 -0.2192
23991W        W40125  15.561  14.903  14.243 -0.2037  0.0115  0.4106
23992W        W40126  10.403   8.336  13.802  0.3152  0.4192  0.5162
23993W        W40127   6.381   4.300  12.961 -0.2717 -0.2709  0.3647
23994W        W40128  11.449   7.424  11.974  0.1320 -0.1102  0.1744
23995W        W40129  18.668  11.018  12.100 -0.1927  0.1406 -0.2435
23996W        W40130  18.300   4.366   3.646  0.4770 -0.0518 -0.1661
23997W        W40131   6.240  13.460  13.943 -0.1679  0.1251  0.1478
23998W        W40132  13.952  12.912   2.826 -0.0192 -0.2100 -0.0866
23999W        W40133  10.485  16.609   0.313 -0.1308 -0.4294 -0.0455
24000W        W40134  16.763  18.952  13.416  0.1583  0.1866  0.0997
24001W        W40135   6.632   6.414   3.517  0.2036  0.3614  0.0057
24002W        W40136  11.263  10.699   1.645  0.2055  0.2298  0.2864
24003W        W40137   8.134  17.511  11.825 -0.1388 -0.0633 -0.0555
24004W        W40138  12.193  10.302   1.344  0.0359  0.0802 -0.0920
24005W        W40139   0.614   4.794  13.884 -0.4046  0.0288  0.0767
24006W        W40140  10.176   8.961   2.074  0.0404  0.0524  0.0157
24007W        W40141  15.479  18.441  13.097 -0.0835  0.2905 -0.0990
24008W        W40142  18.191  13.342  11.061 -0.2189 -0.2721 -0.0377
24009W        W40143  15.617  16.545  10.882  0.4615 -0.3316 -0.0349
24010W        W40144   6.180  14.148   1.219  0.0450 -0.0637 -0.2838
24011W        W40145  18.674   2.242   4.016 -0.1359 -0.0502 -0.0355
24012W        W40146   6.877  12.974   1.520  0.3995  0.3489 -0.4207
24013W        W40147  15.758  19.336   9.287 -0.1922 -0.0155  0.0096
24014W        W40148   5.743   4.606   0.636  0.1819 -0.2098  0.1518
24015W        W40149  13.304  11.375  12.793 -0.0427  0.2409 -0.1305
24016W        W40150   4.557   0.008  12.496 -0.2186 -0.1540  0.1456
24017W        W40151  10.600   1.074   0.482 -0.0874  0.1265  0.0471
24018W        W40152   2.825  16.197  12.752  0.1272 -0.1906 -0.0103
24019W        W40153  11.611  12.493   2.023 -0.2012 -0.2261 -0.0803
24020W        W40154  15.042  18.769   4.315  0.0877 -0.1069  0.2582
24021W        W40155   4.654  15.661  13.468 -0.0865  0.0440  0.1739
24022W        W40156   3.100  17.768  14.427  0.0285 -0.3332  0.0324
24023W        W40157   2.469  19.125  11.147  0.1708  0.2653 -0.1139
24024W        W40158   8.330   2.097   2.015 -0.4184 -0.1009 -0.1636
24025W        W40159   1.052   7.623  10.577  0.0350  0.1489  0.2443
24026W        W40160   0.053  16.130   0.175  0.0584  0.2036 -0.1423
24027W        W40161  10.588  13.889   5.002 -0.1777 -0.2860  0.3685
24028W        W40162   4.664  16.705   1.391  0.1664  0.0442 -0.0457
24029W        W40163  18.324   3.261  14.267 -0.0560 -0.0411  0.0863
24030W        W40164   3.868   5.093   4.339  0.1106 -0.0185 -0.0209
24031W        W40165   7.030  18.768   2.780  0.0235  0.2062 -0.2627
24032W        W40166   9.117  10.907   4.317  0.1190 -0.0388  0.1136
24033W        W40167   8.863  12.761   2.996 -0.2114  0.1394  0.1493
24034W        W40168   6.908   6.931  12.374  0.4239 -0.0478 -0.0729
24035W        W40169  16.292   4.811   3.231 -0.1284 -0.1084  0.1008
24036W        W40170  12.026   8.330  14.422 -0.1183  0.1432  0.0270
24037W        W40171  11.762  10.018   1.395  0.3819  0.0176  0.0987
24038W        W40172   9.966  11.483   3.239  0.0044  0.2453  0.0973
24039W        W40173  15.186   0.132   0.107 -0.0618 -0.2572 -0.0277
24040W        W40174  18.745   6.257  10.053 -0.0978  0.2788 -0.3487
24041W        W40175  18.377  14.912  10.362 -0.0444 -0.1410  0.2627
24042W        W40176  13.464  13.040  14.285  0.2181 -0.0373  0.2266
24043W        W40177   2.952  18.946  14.653  0.1894 -0.1583 -0.1110
24044W        W40178   2.115   6.784   4.683  0.1404  0.2057  0.1193
24045W        W40179  17.589   6.111  11.356 -0.2270 -0.1112  0.2653
24046W        W40180   7.416  16.867  14.601  0.1026  0.4136  0.1395
24047W        W40181   5.164   1.730   2.401  0.1364 -0.2466 -0.0813
24048W        W40182   2.155   7.995   4.229  0.1220 -0.2139  0.3068
24049W        W40183  11.476   3.069   0.356  0.1029  0.1944  0.0313
24050W        W40184  16.125  19.197  13.632 -0.0031 -0.2333 -0.2987
24051W        W40185  16.037  16.812  14.804 -0.1303 -0.3515 -0.0729
24052W        W40186  16.693   3.119   2.851 -0.4912  0.1355  0.0764
24053W        W40187  11.025  12.077  12.733 -0.0835  0.0829  0.1427
24054W        W40188  10.461   8.748   2.352 -0.0953 -0.0545 -0.2409
24055W        W40189  13.707  14.102   1.571  0.3748 -0.0801  0.0101
24056W        W40190   5.207   8.212   2.260  0.2564 -0.0012  0.1848
24057W        W40191   5.006  11.900   3.674 -0.0666 -0.0161 -0.2661
24058W        W40192  19.129   3.138   1.004 -0.0806  0.2375  0.2345
24059W        W40193   4.585   0.219   0.143  0.0356 -0.1397 -0.1309
24060W        W40194  17.517   4.564   3.371 -0.0282 -0.1276  0.0845
24061W        W40195   0.833  10.058   5.163 -0.1447 -0.1420  0.0862
24062W        W40196  10.330   8.575   0.352  0.0009  0.0442 -0.0417
24063W        W40197  14.949  19.252  13.020  0.0997  0.0326  0.1471
24064W        W40198   7.416   7.842  14.682 -0.2119 -0.2003 -0.2571
24065W        W40199  16.934  18.049  13.489 -0.2499 -0.2161 -0.2254
24066W        W40200   6.649   8.141  12.394 -0.2038 -0.0584  0.1997
24067W        W40201   3.744   1.545   1.243  0.0071  0.0225  0.1518
24068W        W40202  10.841  13.883   2.139  0.0530  0.1024  0.0370
24069W        W40203   3.117   3.236   0.885 -0.0566 -0.4313 -0.1255
24070W        W40204  16.214   9.826   2.901  0.2595  0.1985 -0.0975
24071W        W40205  18.786  14.199  14.950  0.2968 -0.0370  0.2542
24072W        W40206  15.880  17.425   4.151 -0.2112 -0.0542 -0.0822
24073W        W40207  12.770   1.070   1.484 -0.2617 -0.0801  0.2134
24074W        W40208  16.717  10.835  12.749 -0.0029  0.0969 -0.0470
24075W        W40209   8.988   1.225   5.654  0.0805  0.2260  0.0586
24076W        W40210   2.520  12.069   0.857  0.2885 -0.0798 -0.0778
24077W        W40211   9.100  14.787  13.757 -0.0509 -0.0215 -0.0166
24078W        W40212  12.615  10.787  11.141  0.1316  0.1567  0.2484
24079W        W40213  17.822   1.689   2.204  0.1704 -0.0822 -0.3819
24080W        W40214  11.473  19.055  11.210  0.0071 -0.2089 -0.1283
24081W        W40215   9.544   2.768  13.199 -0.1725  0.0377  0.0422
24082W        W40216  15.503   1.543   3.291 -0.0932  0.0922 -0.0667
24083W        W40217  13.251  16.158  10.991 -0.2682  0.1280 -0.1332
24084W        W40218  11.709   9.948  11.852 -0.2506  0.1167 -0.3008
24085W        W40219  11.225  17.308   0.523  0.1339 -0.4387 -0.0384
24086W        W40220   1.638   4.430  10.838  0.2680 -0.0766  0.1006
24087W        W40221   9.505   9.164  12.429 -0.3545 -0.4255  0.3103
24088W        W40222  15.675   1.823  12.869 -0.3518  0.2475 -0.0675
24089W        W40223   7.597  18.502   4.608  0.2081  0.0284  0.0092
24090W        W40224   1.378   3.682  13.104  0.0259  0.5041 -0.1788
24091W        W40225   8.194  13.355  12.788 -0.3957  0.2419 -0.1829
24092W        W40226  17.156  13.411  14.133 -0.0131  0.1273 -0.2334
24093W        W40227  10.807   6.137  12.509 -0.1056  0.4460 -0.4859
24094W        W40228   4.034   2.261   3.636 -0.0727  0.1298 -0.1291
24095W        W40229   2.104  16.431   3.431  0.0155  0.4128  0.1318
24096W        W40230   1.906  12.235   3.336 -0.0072 -0.0560 -0.2080
24097W        W40231  14.616  11.518   1.856  0.1259 -0.4717 -0.1836
24098W        W40232  19.234  16.935   3.348  0.1243 -0.0871 -0.1934
24099W        W40233   8.702  18.789   5.385  0.1407  0.2992 -0.3102
24100W        W40234  18.717   5.082  13.442 -0.0009 -0.2028  0.1281
24101W        W40235   5.951  18.314  10.759  0.0323  0.0350  0.0446
24102W        W40236  10.201   5.363   3.834 -0.0008  0.3716 -0.0023
24103W        W40237  10.397   2.339   2.738  0.3091 -0.1436 -0.2101
24104W        W40238  10.007   3.339  14.190 -0.2106  0.1402 -0.0269
24105W        W40239   5.049   2.360  12.460 -0.1310  0.0070 -0.1957
24106W        W40240  18.991  11.236   2.984  0.1982 -0.0234  0.1132
24107W        W40241   2.372   0.478   1.686  0.3091 -0.4278  0.2816
24108W        W40242   3.049   1.778  12.538  0.1786 -0.0371  0.0422
24109W        W40243  16.897   6.926  11.321 -0.0877  0.2239  0.1091
24110W        W40244   7.159  15.848  13.540  0.0529 -0.4262 -0.0236
24111W        W40245   2.592   5.597   0.561  0.1058  0.2538  0.0423
24112W        W40246  14.875   2.108  12.180 -0.0569  0.1732  0.1964
24113W        W40247   0.267   9.414   5.532  0.0526 -0.1550  0.0518
24114W        W40248   8.757  13.739  10.496  0.2999 -0.1886 -0.0205
24115W        W40249   8.552  11.225   3.216 -0.0627 -0.1818  0.1867
24116W        W40250  17.175  10.275   1.908  0.1012  0.0611 -0.3091
24117W        W40251   1.898   8.806  13.960 -0.1636  0.2044  0.3798
24118W        W40252   9.999  17.280   1.661  0.0501 -0.0069  0.0293
24119W        W40253  13.915   2.113   3.456 -0.1000 -0.1707  0.0006
24120W        W40254   7.179  18.526   0.231 -0.1976  0.1634  0.1706
24121W        W40255  19.313  16.297  13.840 -0.1176  0.0739 -0.0539
24122W        W40256   6.208  15.548   0.610  0.0903 -0.0949 -0.2025
24123W        W40257   5.583   0.479  14.249 -0.0827 -0.1596 -0.2916
24124W        W40258  12.663  16.173   0.031  0.0571 -0.2879  0.0819
24125W        W40259   1.805   9.060   4.231  0.0865  0.0297 -0.2120
24126W        W40260  15.225  17.270  14.474 -0.2112 -0.4965  0.0206
24127W        W40261  10.253  15.031  14.066 -0.0666 -0.2587  0.1304
24128W        W40262   9.294   6.126  14.663  0.1530 -0.0289 -0.0785
24129W        W40263  18.730   8.683   2.768  0.1717  0.0359 -0.3653
24130W        W40264  15.902  12.039   5.766  0.0722  0.0506 -0.0034
24131W        W40265  12.228   3.314  14.974  0.2247  0.1704 -0.0278
24132W        W40266   0.221   7.217   4.094 -0.0699 -0.2185 -0.1009
24133W        W40267  18.250   3.927   3.424  0.3875 -0.2074 -0.1774
24134W        W40268   2.651   6.749   2.616 -0.0224  0.1534  0.0776
24135W        W40269   6.982  12.641   2.966 -0.2703  0.0159 -0.1747
24136W        W40270   7.022   4.774   0.091 -0.0417 -0.0311 -0.0129
24137W        W40271  12.521   1.947   4.546 -0.0035  0.0129  0.1818
24138W        W40272   0.100   8.349   5.292 -0.2535 -0.0833 -0.0025
24139W        W40273  16.673   3.585  14.733  0.0357 -0.3210  0.1097
24140W        W40274   4.826   2.430   3.487 -0.0523  0.1133  0.2141
24141W        W40275   3.124   4.465   3.334  0.0835  0.1495  0.1403
24142W        W40276  16.387   4.129   3.507  0.0243  0.2321 -0.1927
24143W        W40277  10.805  10.925   2.022 -0.0004  0.2108 -0.0463
24144W        W40278  15.887   1.320   2.554 -0.2125  0.1464 -0.0980
24145W        W40279  18.875  14.412  13.033  0.0213  0.1313  0.1082
24146W        W40280  17.837   4.530  10.716  0.0245 -0.0654 -0.0946
24147W        W40281   0.202  16.264  11.923  0.2702 -0.3691  0.3096
24148W        W40282  10.461   9.466  10.854 -0.1798 -0.0806 -0.5146
24149W        W40283  11.127   4.922  13.736  0.0024  0.0693 -0.0191
24150W        W40284   8.255  11.534   0.745 -0.0688  0.0323 -0.2142
24151W        W40285   3.658  12.325  13.205 -0.0000 -0.3259 -0.1118
24152W        W40286   0.332   0.060  13.942  0.2130  0.0493  0.2334
24153W        W40287   5.864  18.972  12.598 -0.0156 -0.0190 -0.0205
24154W        W40288  12.060  11.141   0.999 -0.1249  0.0666  0.0707
24155W        W40289   2.256   3.186   1.880 -0.0570  0.1281  0.0090
24156W        W40290  18.262   7.330   9.982 -0.0164 -0.1446  0.1146
24157W        W40291   9.512  18.571   2.684 -0.1069  0.3543  0.0224
24158W        W40292  10.949  18.321   4.357 -0.4653 -0.0569 -0.0962
24159W        W40293   2.653   1.802   3.711  0.0488  0.0303  0.0624
24160W        W40294   5.027  13.445  11.315  0.0934 -0.1652 -0.3242
24161W        W40295  18.996   2.032   0.901 -0.1338  0.2542  0.1997
24162W        W40296   3.074   6.770  10.734  0.2074 -0.0678 -0.0611
24163W        W40297  15.829   3.672  14.997  0.2711  0.1445 -0.2049
24164W        W40298   0.458   7.337   5.343  0.1689  0.1314  0.0192
24165W        W40299   8.144   4.206  11.827 -0.2305  0.2215 -0.2226
24166W        W40300  13.653  12.025  13.031 -0.1091  0.3246  0.0513
24167W        W40301  16.196   2.426  13.002  0.1095  0.0992 -0.0497
24168W        W40302  14.017  10.634  12.991  0.1872 -0.3734  0.1217
24169W        W40303   0.843  14.521  12.217 -0.0500  0.3220  0.2208
24170W        W40304  19.145  11.434   0.187  0.1335  0.0009 -0.1628
24171W        W40305   5.729   4.043   1.944  0.1624  0.1599 -0.1401
24172W        W40306   8.989   0.905   4.806  0.1202 -0.1924 -0.2842
24173W        W40307   9.579   3.392  13.490  0.0184 -0.3230  0.1500
24174W        W40308  19.157  13.031   3.932  0.0971  0.2384  0.0166
24175W        W40309  18.651  10.534   1.676 -0.0325 -0.1526 -0.0654
24176W        W40310   5.272   7.432   2.731 -0.3589 -0.1791 -0.1753
24177W        W40311   2.424  12.997   5.455  0.1651 -0.4142 -0.5578
24178W        W40312   7.620   6.500  12.295  0.0079  0.0850 -0.1073
24179W        W40313   6.964  10.476  13.167 -0.2352 -0.2066 -0.1475
24180W        W40314   6.923  18.878   1.100 -0.1334 -0.0384  0.0491
24181W        W40315  19.091  11.148   3.489 -0.0851 -0.3640  0.0143
24182W        W40316  13.341  18.333  12.195  0.0357 -0.0113 -0.4265
24183W        W40317   7.040  16.711   4.931 -0.0703 -0.1828  0.1478
24184W        W40318   7.498   9.927  13.799 -0.1737  0.1911  0.0225
24185W        W40319  18.725  14.204  11.027 -0.0295  0.0954  0.0694
24186W        W40320  10.949   2.958   2.329 -0.0261  0.1308  0.0700
24187W        W40321   2.867  15.634  11.418  0.2417  0.0635 -0.2064
24188W        W40322   6.366  16.563   4.350  0.2139 -0.0116  0.0565
24189W        W40323   4.591  17.904  11.366  0.0240 -0.0409  0.0233
24190W        W40324  19.139  16.943  11.989  0.2568  0.0055 -0.1076
24191W        W40325   1.885   8.025  14.738 -0.2005  0.0557 -0.3186
24192W        W40326  16.877   4.019   3.046  0.1616  0.1609 -0.5209
24193W        W40327   2.068   0.002   1.033 -0.0905 -0.2992 -0.0440
24194W        W40328  10.785  10.663  13.111  0.3537 -0.0721  0.1002
24195W        W40329   4.593  14.227  11.626 -0.3172 -0.1899 -0.0408
24196W        W40330   9.377  12.982  14.768 -0.0612 -0.1326  0.1417
24197W        W40331   8.477   9.940  11.339 -0.2521  0.1294  0.0486
24198W        W40332  16.563   4.613  14.804  0.1583  0.1035 -0.1550
24199W        W40333   2.064  10.709  13.065  0.0025  0.0053 -0.2623
24200W        W40334   1.003   6.239   0.763 -0.1795 -0.0521  0.0652
24201W        W40335   2.594  17.033   1.541 -0.3024 -0.1171  0.0107
24202W        W40336   5.683   7.951  13.953  0.0447 -0.1102 -0.0772
24203W        W40337  11.076   3.812   1.965 -0.0401 -0.1100  0.2305
24204W        W40338  10.467  14.199  13.696  0.2166  0.2144  0.2655
24205W        W40339  13.255  13.152   1.976  0.3628 -0.0262 -0.0486
24206W        W40340  19.150  13.252   2.896 -0.0112 -0.1082  0.2573
24207W        W40341   7.186   2.989  13.300  0.2002 -0.0850 -0.0837
24208W        W40342  13.668   5.459  14.579 -0.1761 -0.1617  0.1355
24209W        W40343  12.435   7.811  10.026 -0.1179  0.2832  0.0244
24210W        W40344   7.289   5.687   0.423  0.1877 -0.0276  0.2592
24211W        W40345   6.239  18.798   4.115 -0.1910  0.0613 -0.1855
24212W        W40346   8.198   1.880   4.002  0.2313  0.3986  0.5940
24213W        W40347   3.508   1.336   0.102 -0.1142 -0.0607 -0.0567
24214W        W40348  10.483   8.234  12.408  0.0863  0.1308 -0.5099
24215W        W40349  13.316   4.055  11.773  0.0800 -0.0121  0.1186
24216W        W40350   5.904   9.220  14.614  0.0874 -0.1535  0.3077
24217W        W40351  11.039   2.537   1.059 -0.0652  0.2104  0.2243
24218W        W40352  15.097  13.050  13.117 -0.0290 -0.1418  0.2736
24219W        W40353   8.908  10.911   3.441 -0.0302  0.0609 -0.3744
24220W        W40354   8.890   4.897   3.427 -0.1740  0.3940  0.0345
24221W        W40355  17.069  17.904  13.949 -0.0280  0.2167  0.2280
24222W        W40356   5.662   1.208   3.736 -0.0001 -0.2326 -0.2625
24223W        W40357   7.999   3.250   4.637 -0.1432 -0.1747 -0.0160
24224W        W40358   9.570  17.343   1.954  0.0205 -0.1228  0.2640
24225W        W40359   3.602  16.183  10.456  0.0241  0.1811 -0.1515
24226W        W40360  11.112  17.732  13.793  0.0641  0.0417 -0.0032
24227W        W40361   6.413   0.165  12.295 -0.2793  0.0069 -0.1431
24228W        W40362   2.385   0.832  12.980 -0.0365  0.1093 -0.0232
24229W        W40363  15.581   4.022   0.330 -0.1949  0.1166 -0.3460
24230W        W40364   4.483  17.639   4.725 -0.0397  0.5798  0.1748
24231W        W40365   9.931  10.441   2.393 -0.0862 -0.1660  0.3156
24232W        W40366  12.214  15.758  11.477  0.1193  0.2215 -0.1074
24233W        W40367   8.192   4.226   2.292  0.2429 -0.2815 -0.2339
24234W        W40368   8.976  16.585  13.756 -0.1363 -0.0516  0.3876
24235W        W40369  14.969  12.686  11.866  0.3580  0.3221  0.0523
24236W        W40370  12.230   6.579   0.667  0.0049  0.0545  0.0998
24237W        W40371  13.405   8.599  10.885  0.1645  0.0299 -0.0056
24238W        W40372  13.026   3.776   0.632 -0.4764 -0.1480 -0.0889
24239W        W40373  16.082  16.468  11.046  0.3737 -0.0202 -0.0694
24240W        W40374   5.349  15.868   4.213 -0.1351 -0.0025  0.1472
24241W        W40375  18.626   7.232   3.104  0.3186 -0.3711  0.0034
24242W        W40376  17.039   0.172  14.312  0.0187  0.0126  0.0510
24243W        W40377  17.713   6.015  10.885 -0.1554  0.0058 -0.0926
24244W        W40378  18.776  11.621  10.200  0.1136  0.2061  0.2239
24245W        W40379   2.087  13.837  13.280  0.1550 -0.0950  0.2245
24246W        W40380  10.440   9.286  14.826  0.1519  0.3939 -0.3094
24247W        W40381   4.403   1.074  14.937 -0.0460 -0.0030 -0.5148
24248W        W40382  10.140  15.917  11.675 -0.0670  0.1402 -0.0950
24249W        W40383   6.161   5.540  10.206 -0.0033 -0.1133 -0.0095
24250W        W40384   8.209  12.195   5.137 -0.1443  0.0907 -0.3300
24251W        W40385  18.798   4.365  13.541  0.2196  0.1817 -0.0516
24252W        W40386  16.079   3.391   0.962  0.2017 -0.0905 -0.1048
24253W        W40387  15.052   3.872  14.527 -0.0639  0.1868 -0.2075
24254W        W40388   0.046   4.495  11.029 -0.0225  0.1130  0.0495
24255W        W40389   1.675  14.564  14.480  0.0914  0.3370  0.0736
24256W        W40390  15.593  16.095   2.822  0.4369 -0.3363 -0.2084
24257W        W40391   6.201   7.494   2.436  0.0799 -0.2422  0.1580
24258W        W40392  11.181  17.785  11.184 -0.1576 -0.1927  0.1808
24259W        W40393   3.091  17.518  10.887 -0.0201 -0.1046  0.1126
24260W        W40394  16.766  15.458  13.111 -0.1263 -0.2042  0.0021
24261W        W40395   8.471  15.014   4.649  0.3325 -0.3559  0.1730
24262W        W40396   7.858   7.293  11.594 -0.2203 -0.0090 -0.0835
24263W        W40397  14.093   3.660  12.022  0.0345  0.3618 -0.0861
24264W        W40398  13.562  18.045  14.921  0.0797 -0.0503 -0.0672
24265W        W40399  11.035   1.294  12.498 -0.3760 -0.0177  0.1269
24266W        W40400   1.725   7.142  14.859  0.0055  0.1063 -0.3601
24267W        W40401   7.946  18.365   2.338  0.0615 -0.1312  0.5063
24268W        W40402   3.207   8.210  13.869  0.0220  0.1468 -0.1358
24269W        W40403  16.489   6.706  12.043 -0.4374  0.0106 -0.0402
24270W        W40404  12.703   9.204   0.423  0.3334  0.0880  0.2113
24271W        W40405   2.075  12.050  10.501  0.2099  0.1511  0.1553
24272W        W40406   4.627  11.888  12.901 -0.0362 -0.1772 -0.3085
24273W        W40407  11.832  10.763  13.423  0.0892  0.1572 -0.2992
24274W        W40408  14.987  10.900  13.772 -0.0468 -0.1092 -0.0009
24275W        W40409  13.673   5.774   0.246 -0.1265  0.0992 -0.1655
24276W        W40410   0.565  17.209   2.511  0.0676 -0.1038  0.0552
24277W        W40411  16.033  10.079  13.847  0.0965  0.2306  0.0387
24278W        W40412  19.051  18.449  12.292 -0.0393 -0.1850 -0.0586
24279W        W40413  13.166   5.273   3.180 -0.1699 -0.2546  0.1921
24280W        W40414  15.079  19.102  10.268 -0.2501 -0.3073 -0.1126
24281W        W40415  18.551  18.770  10.899  0.0372  0.0140 -0.3471
24282W        W40416   3.494  11.135   1.918  0.1485  0.0923  0.0592
24283W        W40417   3.352   8.585   3.763  0.3357 -0.2379  0.1215
24284W        W40418   3.552   6.363   2.385  0.0753 -0.1508 -0.0975
24285W        W40419  13.253   1.177   1.338  0.2239 -0.0041  0.1752
24286W        W40420  10.470   8.211   1.192 -0.1925  0.2620 -0.2350
24287W        W40421   3.443  16.699  10.511  0.2331  0.2896 -0.1270
24288W        W40422   3.001  18.808   4.351 -0.0717  0.1861  0.0845
24289W        W40423   1.950  13.381   2.551 -0.0590 -0.2387  0.3192
24290W        W40424   5.804  10.033   0.053 -0.0125 -0.0697 -0.1299
24291W        W40425  15.376   4.493   4.056  0.2416 -0.2266  0.0437
24292W        W40426  16.360  11.541   2.977 -0.4538 -0.2978  0.0243
24293W        W40427   2.864   5.855   0.966  0.2568 -0.0136  0.1593
24294W        W40428   8.291   8.267   5.532 -0.2282  0.1933 -0.1272
24295W        W40429  10.052   2.273  13.817 -0.0331  0.3968 -0.0874
24296W        W40430  10.371  17.697   4.004  0.4714  0.3047 -0.1605
24297W        W40431  12.297   8.859   3.485  0.2443  0.0497  0.2118
24298W        W40432   1.843   0.114  13.990  0.2184 -0.0209 -0.0945
24299W        W40433  16.248   6.800   9.821  0.1970  0.0785  0.1424
24300W        W40434  17.836   0.710  12.886  0.0105 -0.0553 -0.0392
24301W        W40435   5.381   7.723   1.757 -0.2716 -0.3285 -0.1662
24302W        W40436  18.358   5.255  10.463 -0.0820 -0.1411  0.1584
24303W        W40437   3.623   9.037  14.688 -0.0033  0.0849  0.3575
24304W        W40438   2.992  15.810   4.598 -0.1576  0.0650  0.0960
24305W        W40439   4.531   5.601  11.155  0.1664  0.1094 -0.1435
24306W        W40440   0.337  11.303  12.498 -0.1530  0.0924 -0.5429
24307W        W40441   8.240  11.913  13.538  0.0766 -0.1910 -0.1790
24308W        W40442  19.093   8.520  11.417  0.0308  0.0372  0.0543
24309W        W40443  16.710   4.526  13.307 -0.1410 -0.1149  0.0865
24310W        W40444  11.970   6.389   3.051 -0.1452  0.2999 -0.0930
24311W        W40445   1.969  10.573   3.046  0.1283  0.3035 -0.2728
24312W        W40446   4.042  10.095  10.354  0.0106 -0.1358 -0.1295
24313W        W40447   1.369   9.377  14.752  0.3604  0.2030  0.0616
24314W        W40448   6.359   5.339   0.704  0.0205  0.1768  0.1839
24315W        W40449   2.480  10.418   1.194 -0.0567 -0.1008  0.0140
24316W        W40450  15.544   1.561  11.824  0.0439 -0.0102 -0.0780
24317W        W40451   3.632   7.600  14.904 -0.0694  0.1046 -0.0445
24318W        W40452  17.722   1.020  11.712  0.0770  0.1205  0.0845
24319W        W40453   2.595  18.532   4.300  0.3013  0.1194  0.1853
24320W        W40454   9.574  10.433   0.278 -0.2168 -0.0923  0.0241
24321W        W40455   1.100   5.157  11.862 -0.1153  0.0765 -0.1907
24322W        W40456   8.974  13.232  12.176 -0.2205 -0.2069  0.1660
24323W        W40457  18.183  15.261   5.349 -0.0180 -0.1483  0.0616
24324W        W40458  17.190  10.046  13.554 -0.1311 -0.1203 -0.1483
24325W        W40459   2.088  13.309   9.697 -0.0174 -0.1056  0.0508
24326W        W40460   7.466  17.063  12.921  0.2210 -0.1764 -0.1515
24327W        W40461  14.852  10.623   1.763  0.0106 -0.1456 -0.1456
24328W        W40462   9.171  10.518  10.850 -0.1417  0.0500 -0.0699
24329W        W40463   4.876   8.287  12.071 -0.1917 -0.0848  0.2020
24330W        W40464   2.050  19.277  10.396 -0.1010 -0.0983 -0.1448
24331W        W40465   8.212  15.039   1.616 -0.0192 -0.2125 -0.1089
24332W        W40466  18.072  17.718   2.790 -0.2198  0.2426  0.1601
24333W        W40467   2.787   0.105   3.676 -0.0906  0.0176 -0.2217
24334W        W40468  16.273   3.065  14.362 -0.3878 -0.1919 -0.1032
24335W        W40469   3.565  11.420  11.595  0.1791  0.0519 -0.1597
24336W        W40470   0.918   6.264  14.163 -0.0175 -0.1563  0.1274
24337W        W40471   7.450   5.531   2.532  0.1264  0.1741 -0.2080
24338W        W40472  12.098   4.268   3.062  0.0708 -0.0667 -0.1439
24339W        W40473   4.106  12.108  10.980  0.3807 -0.1759  0.2098
24340W        W40474   5.299   0.677   0.619  0.0436  0.0947 -0.0936
24341W        W40475   3.246   9.242  12.761 -0.3311  0.0904 -0.2102
24342W        W40476  17.114   8.627  13.803 -0.2378  0.1116 -0.1596
24343W        W40477  18.214  10.423   4.186  0.3898  0.0479 -0.1077
24344W        W40478  11.348   5.498  12.165  0.1003 -0.0817 -0.2456
24345W        W40479  16.847  18.588  11.233 -0.1596  0.2458 -0.1186
24346W        W40480   7.023  12.707   4.691 -0.0904  0.3481 -0.1314
24347W        W40481  17.764  16.968   0.163  0.2800 -0.1130 -0.0836
24348W        W40482  18.417   0.111  14.030 -0.1854  0.2719  0.1297
24349W        W40483   5.669  14.758  11.190  0.3492 -0.0967  0.0189
24350W        W40484  15.962  17.957  11.485 -0.0951  0.0423 -0.1444
24351W        W40485   4.786  10.218  12.268 -0.1344  0.0543 -0.0889
24352W        W40486  16.751  16.233  13.711  0.2561  0.1614  0.3036
24353W        W40487  16.221  13.093   9.936  0.0347 -0.0508 -0.0213
24354W        W40488  10.624   0.542   6.179  0.0604  0.0791  0.1443
24355W        W40489   8.511  16.142   2.284 -0.2720 -0.0699  0.1564
24356W        W40490  11.330   4.991  11.108  0.1350  0.0503  0.1452
24357W        W40491   8.518  14.207   9.895 -0.0204  0.1192 -0.1552
24358W        W40492   1.684   3.270  13.161 -0.1519 -0.2397 -0.0101
24359W        W40493  14.529   2.647  14.391  0.0565 -0.1122 -0.5710
24360W        W40494  11.288  11.430  12.624 -0.0643  0.0721  0.0006
24361W        W40495  15.841  17.495  10.182 -0.2729  0.1170  0.0518
24362W        W40496   1.939  13.608  10.834  0.3138 -0.0351 -0.2585
24363W        W40497  16.076  11.904   2.405  0.0610 -0.1225  0.4594
24364W        W40498  11.082   9.861  12.901 -0.3007  0.0775  0.2668
24365W        W40499   0.775   3.275  12.657 -0.3286 -0.2445 -0.1297
24366W        W40500   6.484  15.600  10.575  0.0260  0.1341 -0.4285
24367W        W40501   6.817  17.283   2.346  0.1904 -0.0139 -0.4004
24368W        W40502  13.792   9.821   0.995  0.1114 -0.0967 -0.0495
24369W        W40503   5.789   7.415   0.263  0.0125 -0.0210 -0.0394
24370W        W40504   5.500  19.116   0.528  0.0469  0.0090 -0.2635
24371W        W40505  16.553  17.870  13.795  0.0237 -0.2876 -0.0382
24372W        W40506   8.379  14.446  13.141  0.1885 -0.2337 -0.0756
24373W        W40507  18.487   7.112  10.640 -0.1003 -0.1053 -0.2606
24374W        W40508  15.139  11.524   0.777  0.2458 -0.1891 -0.1088
24375W        W40509   2.130   8.894  12.083 -0.0924 -0.3485  0.1016
24376W        W40510  19.057   9.012  14.925  0.0953 -0.1461 -0.1190
24377W        W40511  11.456   9.646  13.308 -0.0849  0.2725  0.2745
24378W        W40512  12.392   5.983   3.425 -0.0169 -0.1647  0.0980
24379W        W40513  10.263   1.405   5.746 -0.0720 -0.4255  0.0319
24380W        W40514   1.752   0.607   3.378 -0.4115 -0.0848  0.1230
24381W        W40515  18.134   0.994  13.926 -0.0762  0.2199 -0.0572
24382W        W40516  14.187   8.496   0.077 -0.0487 -0.0430  0.2743
24383W        W40517   6.464  11.566  10.884 -0.1134  0.2844  0.1918
24384W        W40518  17.802  11.533   2.917  0.1632 -0.1797  0.2108
24385W        W40519  18.704  15.269   1.129 -0.1526 -0.2730  0.4363
24386W        W40520   6.296   4.433  14.002  0.1541 -0.1123  0.3184
24387W        W40521  18.820   9.918   4.333  0.0405  0.0632  0.0771
24388W        W40522   7.083   6.550  13.495  0.3983  0.0459 -0.0692
24389W        W40523  18.488   7.257  12.803  0.3011 -0.0676  0.1795
24390W        W40524   7.589  10.119  12.078  0.0770 -0.1445 -0.1457
24391W        W40525  14.337  10.534   0.904  0.1412  0.0899 -0.2368
24392W        W40526   4.261   5.833  12.811  0.1749  0.0179 -0.3014
24393W        W40527  16.544   8.658  11.219  0.3455  0.1535 -0.3992
24394W        W40528   7.292   2.489  14.035  0.0374  0.2444  0.5099
24395W        W40529   5.584  13.909   2.139 -0.2919  0.1862  0.1303
24396W        W40530   5.768  12.897   4.497  0.1783 -0.0282 -0.2038
24397W        W40531  18.590  17.803  11.305  0.2106  0.0730 -0.1662
24398W        W40532   4.174  13.377   0.002  0.1740 -0.2967 -0.0852
24399W        W40533   6.170   8.004  13.986 -0.0862  0.0051  0.0672
24400W        W40534   0.244   6.003   1.417  0.1090 -0.1894  0.1001
24401W        W40535  10.576   1.375   1.816  0.0152  0.0830 -0.3316
24402W        W40536  13.017   3.578   5.050 -0.1325 -0.0647 -0.4580
24403W        W40537   8.024   3.500   3.049  0.2075 -0.0373 -0.3054
24404W        W40538  19.253   9.208  11.123 -0.0390 -0.0652 -0.2051
24405W        W40539   2.713   1.398  12.366 -0.3045 -0.0154 -0.1055
24406W        W40540   8.802   6.171   2.448 -0.0189  0.0790 -0.0948
24407W        W40541   9.708   8.410   4.375  0.2212 -0.0628  0.0860
24408W        W40542  19.232   8.705   2.228 -0.0878  0.1410 -0.1581
24409W        W40543   4.809  16.786   2.081 -0.3041  0.0122 -0.2381
24410W        W40544  13.834  14.543   1.853 -0.1086 -0.1287  0.1268
24411W        W40545   3.803   5.079   3.282 -0.0380 -0.1952  0.1044
24412W        W40546  16.264   8.125  10.487  0.1922 -0.2364 -0.2971
24413W        W40547   6.287  10.103  14.235 -0.0965  0.0499 -0.2359
24414W        W40548   9.906  14.676  10.364 -0.0139 -0.1554  0.0814
24415W        W40549   6.486  19.229   0.104  0.0639 -0.1979 -0.0810
24416W        W40550  19.323   9.831   1.852 -0.2409 -0.1289 -0.2773
24417W        W40551   4.480  11.692   5.060  0.3636 -0.1423  0.2286
24418W        W40552  17.340  11.304   0.763  0.2234  0.2136  0.1787
24419W        W40553  16.202  15.920   2.071  0.0432  0.1081  0.0933
24420W        W40554  14.097   3.937   3.188  0.0111 -0.1761  0.2277
24421W        W40555   3.174   4.542   9.962 -0.1357  0.0196 -0.1870
24422W        W40556   9.038  18.521   2.141 -0.1522  0.0790  0.1444
24423W        W40557  18.788  13.440   3.321 -0.1574 -0.0774  0.0164
24424W        W40558   4.412   5.568   5.380 -0.1607  0.2814 -0.0390
24425W        W40559   1.129  10.340   0.457 -0.1771  0.0215  0.1341
24426W        W40560  14.833   8.100  12.859  0.1933  0.0068  0.1519
24427W        W40561   9.480  14.821  10.610  0.0463 -0.2612 -0.1701
24428W        W40562  11.034   2.957   5.271 -0.1039 -0.1361  0.0663
24429W        W40563  14.110   3.610  14.198  0.1016  0.1716  0.1117
24430W        W40564  17.685   5.889   0.958  0.0985  0.2068  0.0869
24431W        W40565   9.759   6.845  13.691  0.2137  0.1097 -0.0204
24432W        W40566   4.870   1.113  13.190 -0.1342 -0.0176  0.3105
24433W        W40567   6.279   2.479   3.731  0.1172 -0.1056  0.3448
24434W        W40568   2.781  19.307  11.962  0.0960  0.2509 -0.1129
24435W        W40569  13.871  11.588   2.261 -0.0608  0.0362 -0.1002
24436W        W40570  12.770  14.311   2.437  0.0396  0.1069  0.1547
24437W        W40571   3.165   1.561  13.064 -0.1624 -0.3434  0.1226
24438W        W40572   0.621  16.805  14.986 -0.2709  0.1906  0.0569
24439W        W40573   9.706   4.221   2.030  0.0778  0.2562  0.0334
24440W        W40574  10.228   5.328   2.276  0.1830  0.0791  0.0080
24441W        W40575   6.774  18.915  11.810 -0.0366  0.1840  0.1473
24442W        W40576   2.386   3.080  12.490  0.1672 -0.0658  0.2061
24443W        W40577   1.127   0.337   1.841  0.0135  0.3066 -0.1885
24444W        W40578   8.620  16.453   3.496 -0.1990  0.0006  0.1032
24445W        W40579   0.102   8.845  12.526 -0.0618  0.4538  0.2816
24446W        W40580   6.467   2.521   0.949  0.4825 -0.3162  0.1888
24447W        W40581   6.001   4.795   3.073  0.1607 -0.1161  0.2529
24448W        W40582  14.085   2.633   1.094  0.0564 -0.1199 -0.2389
24449W        W40583  18.107   1.559   4.012  0.0033 -0.0943  0.3055
24450W        W40584  12.477  17.541  11.343 -0.1001  0.2030 -0.1720
24451W        W40585   9.917  10.043   1.186  0.1982  0.0393 -0.0513
24452W        W40586  10.432   6.835   1.877  0.0007  0.0587  0.3093
24453W        W40587  15.056  15.315   1.617  0.2564 -0.2955  0.1451
24454W        W40588  17.964   7.965   2.866  0.2948 -0.0327 -0.2773
24455W        W40589   6.247   9.529  14.280  0.1198  0.0687 -0.1277
24456W        W40590  15.926  17.920  14.190  0.0204 -0.3111  0.0424
24457W        W40591  11.775   3.596   4.502 -0.2861  0.2755  0.0058
24458W        W40592  13.861  13.030   5.794 -0.0886  0.1166  0.0177
24459W        W40593  14.557  13.736   2.425 -0.1832 -0.0964  0.2343
24460W        W40594   8.089  16.753  11.336 -0.0057 -0.1077 -0.3128
24461W        W40595   8.680   5.792   1.096 -0.2548  0.1934 -0.0122
24462W        W40596  13.842  13.213  10.695  0.2131  0.0701 -0.1176
24463W        W40597   8.608  11.745   0.398 -0.1144  0.0044  0.0900
24464W        W40598   3.555  16.596   1.165 -0.2661  0.0601  0.1202
24465W        W40599  14.224   7.088   3.418 -0.0526 -0.0985  0.1448
24466W        W40600   2.017   8.421   2.385  0.1203 -0.0973  0.0042
24467W        W40601   6.388   8.395   4.830  0.0563  0.0986 -0.0265
24468W        W40602   5.153  17.390  10.348  0.5168  0.0747 -0.2083
24469W        W40603   6.946  11.519  10.621  0.1241 -0.0645  0.1393
24470W        W40604   2.819  15.882   2.575 -0.3952 -0.0535  0.5193
24471W        W40605  17.091   9.882   3.305  0.0484  0.2087 -0.2222
24472W        W40606  13.231  17.728  14.683 -0.1081  0.1428 -0.0488
24473W        W40607  18.095   4.830   9.259 -0.2051  0.0688 -0.1820
24474W        W40608   9.957   6.816   1.499  0.5582  0.0858 -0.1292
24475W        W40609   8.577   6.192  13.983  0.3546 -0.0078  0.0201
24476W        W40610  10.745   1.292  11.189 -0.0406 -0.0777 -0.0994
24477W        W40611  17.404   0.724   0.873 -0.0445 -0.6207  0.1638
24478W        W40612  18.051   3.993  14.216 -0.2722  0.2287 -0.2442
24479W        W40613   3.346   8.930   0.150  0.0054 -0.1770 -0.0449
24480W        W40614  11.789   6.867   5.333  0.2634  0.2788  0.0967
24481W        W40615  12.882   2.085   3.091 -0.1427 -0.3261  0.0898
24482W        W40616  17.206   8.368   0.109  0.0951  0.0025 -0.1708
24483W        W40617   0.656   4.611   2.757 -0.2121  0.3097  0.0398
24484W        W40618   0.988   0.597  12.603 -0.3974  0.3264  0.0437
24485W        W40619  13.666  16.189   0.647  0.0049  0.2251  0.1679
24486W        W40620  13.824  13.676  13.874 -0.0527 -0.3025 -0.3467
24487W        W40621  14.215   8.165   0.460  0.1530  0.0566 -0.1709
24488W        W40622  17.397  17.495  12.662  0.1849  0.4048  0.0237
24489W        W40623  10.640  17.170   4.895  0.1791 -0.1367  0.1730
24490W        W40624   9.437   8.406  14.317  0.1532  0.1431 -0.0478
24491W        W40625   8.405  10.821  14.352 -0.2543  0.1954  0.0067
24492W        W40626  13.686  11.080   2.066  0.0464 -0.2567 -0.1304
24493W        W40627   2.787  11.465   1.537 -0.2633  0.2344 -0.1047
24494W        W40628   9.860  13.659   0.790 -0.4236 -0.0193  0.0947
24495W        W40629   2.041   3.316   2.722 -0.0432 -0.1302 -0.0917
24496W        W40630  17.558  16.799   3.344 -0.3313  0.3024  0.0696
24497W        W40631  10.829   4.550   2.069 -0.2600  0.1582 -0.1242
24498W        W40632   8.079   5.474   2.429  0.4282  0.1153 -0.1851
24499W        W40633  14.728   5.597   1.696 -0.0569 -0.0055  0.0169
24500W        W40634  16.179  17.841  11.968  0.1226 -0.0463 -0.2363
24501W        W40635  14.640   3.901  14.940  0.1367 -0.0216 -0.0619
24502W        W40636  12.677  17.991  14.308  0.1126  0.0440 -0.1798
24503W        W40637  10.006   4.554   5.121  0.0122 -0.1650 -0.0623
24504W        W40638   9.034  17.791   0.834 -0.2523 -0.0627 -0.2014
24505W        W40639  18.255   9.164   9.209 -0.1335  0.0341  0.0993
24506W        W40640  19.223   0.172   3.896  0.0565  0.0607  0.1007
24507W        W40641  10.001   5.170  13.403  0.0770 -0.1324 -0.4279
24508W        W40642   1.030  15.341   2.996  0.0835  0.0496  0.0694
24509W        W40643  12.885  11.162   3.041  0.0137 -0.1478 -0.1735
24510W        W40644  15.755   9.520   0.002 -0.3608 -0.3117 -0.1231
24511W        W40645  16.971  14.413  13.835  0.2966 -0.2653  0.1003
24512W        W40646  11.668   5.568   4.823 -0.1837 -0.0765  0.0102
24513W        W40647   6.598   5.546   2.279  0.0321  0.1655 -0.1553
24514W        W40648  13.441   9.799  13.330  0.3238 -0.3294  0.2189
24515W        W40649   0.934   6.535  12.114  0.0393  0.1880  0.0665
24516W        W40650   3.889   5.267   1.770 -0.0412  0.0015  0.0286
24517W        W40651   8.591  12.759   4.211 -0.4564  0.0453  0.0550
24518W        W40652  17.364   5.495  11.660 -0.0862  0.2250  0.2591
24519W        W40653   0.290   2.174  10.133 -0.0674  0.3097 -0.0001
24520W        W40654   9.982  13.807  13.881 -0.0622  0.0938 -0.1030
24521W        W40655  13.741   8.814  11.222 -0.1456  0.1797 -0.3492
24522W        W40656  11.083  16.121  10.417 -0.1605  0.2679  0.2954
24523W        W40657   9.251  11.216   4.703  0.3240 -0.0724 -0.0174
24524W        W40658  10.492   4.097   1.947 -0.0338 -0.0654  0.2248
24525W        W40659   7.806   1.821   2.269  0.2145 -0.1802  0.0263
24526W        W40660  14.751   8.400  13.768 -0.2638  0.1282 -0.0210
24527W        W40661   7.098  16.049  12.175  0.1014 -0.3900  0.1516
24528W        W40662  10.128  16.940   3.466  0.0868  0.2175 -0.3005
24529W        W40663  10.298  12.649  13.656  0.0475  0.3998 -0.2043
24530W        W40664  11.665  18.485  12.832  0.0252 -0.3031 -0.4398
24531W        W40665   4.137   7.588  11.330 -0.0276  0.0834 -0.0523
24532W        W40666   9.080   3.775  12.662  0.1492 -0.2747  0.0749
24533W        W40667   7.033  15.139   2.670 -0.0936 -0.2045 -0.0215
24534W        W40668  17.079  11.670  13.665  0.0327 -0.0879  0.6102
24535W        W40669  11.042  10.743   3.894 -0.0410  0.0497 -0.1633
24536W        W40670   5.744  13.595  14.109  0.1491 -0.2569  0.0451
24537W        W40671   2.167   8.881   5.733  0.2358 -0.4947 -0.1581
24538W        W40672  10.934  14.457  10.313 -0.2378  0.1120 -0.2664
24539W        W40673   7.496  10.795  14.025 -0.2008 -0.2191 -0.2090
24540W        W40674  18.489   8.132  14.389 -0.1047 -0.2919 -0.0083
24541W        W40675   6.572  10.805   1.276  0.5041  0.4122  0.1235
24542W        W40676   4.151   3.707  11.799  0.0127  0.0081  0.1321
24543W        W40677  11.022  13.358   2.854  0.0439 -0.2569 -0.1394
24544W        W40678  15.602   3.248   9.397  0.0009 -0.0569  0.0103
24545W        W40679   0.687  18.403   0.992 -0.1663 -0.1223 -0.0813
24546W        W40680   1.589   3.089   3.738 -0.2336  0.1490 -0.2142
24547W        W40681   5.077  15.600  11.038 -0.1048  0.0699 -0.1459
24548W        W40682   4.817   0.226  10.885  0.2297  0.1100  0.0752
24549W        W40683   1.699   6.312   1.789  0.2293  0.0099 -0.1212
24550W        W40684   2.185   3.342  13.436  0.0001  0.1420 -0.0862
24551W        W40685   7.662  16.337   3.220  0.3704 -0.0629 -0.2661
24552W        W40686  12.657  12.987  13.688  0.0092  0.1349  0.2906
24553W        W40687   4.503  19.248  13.191  0.0302  0.1832 -0.0225
24554W        W40688  10.006   5.059  11.158  0.4005  0.2169  0.0079
24555W        W40689  10.009   9.857   3.765 -0.0277  0.1011  0.0681
24556W        W40690  15.477   8.382  10.917  0.0952 -0.0977  0.1432
24557W        W40691   5.993   9.193  10.759  0.1139 -0.0585  0.0214
24558W        W40692   9.838   0.791   3.308  0.1115  0.0772 -0.0961
24559W        W40693  13.125   5.022  14.785 -0.1384 -0.0013  0.0724
24560W        W40694   0.780  12.953   0.076  0.0134  0.3363  0.0815
24561W        W40695   7.436   1.990  14.716 -0.0077  0.2468  0.0001
24562W        W40696  12.702   3.782   4.180 -0.2628  0.3107 -0.0934
24563W        W40697   2.297  12.965   4.952 -0.0323 -0.1750 -0.1654
24564W        W40698   4.862   3.859  10.627  0.0009  0.0141 -0.1923
24565W        W40699   5.901   0.565  14.577  0.1547 -0.3341 -0.3404
24566W        W40700   5.665  16.462  10.891  0.3482  0.3401 -0.4069
24567W        W40701   1.018   8.478   1.913 -0.1784  0.0077 -0.0348
24568W        W40702  13.121  17.263  13.130  0.1709  0.0249 -0.0175
24569W        W40703  19.009  18.492   3.353 -0.0737  0.0569  0.4172
24570W        W40704  18.482   7.779   3.897  0.1908 -0.1163  0.0835
24571W        W40705  10.920  15.340   2.428  0.3445 -0.3001  0.2033
24572W        W40706  17.373   2.451  14.867 -0.3100 -0.3363 -0.4220
24573W        W40707   8.499  17.836   2.327  0.2084 -0.2003 -0.2188
24574W        W40708   4.575  11.427  10.462  0.0812 -0.0449  0.2663
24575W        W40709   1.276  12.042   2.137  0.0692  0.1882 -0.1073
24576W        W40710   4.311   4.910   4.778 -0.1038  0.4974 -0.2814
24577W        W40711   0.133  17.139   1.625 -0.1060  0.0881  0.0294
24578W        W40712  11.125  13.237   3.868  0.2872  0.0219  0.0683
24579W        W40713  13.088   5.918  13.823  0.0418  0.0095  0.3911
24580W        W40714  18.371  14.513  12.413  0.1152 -0.4159 -0.0883
24581W        W40715   7.497  14.366   4.729  0.2192  0.0824 -0.1824
24582W        W40716   0.690  15.438   0.314  0.0220 -0.1296 -0.2163
24583W        W40717   3.379   9.243  13.926 -0.1066  0.0328  0.0922
24584W        W40718   6.922  12.488   2.059  0.0758  0.1445 -0.1430
24585W        W40719  16.114   2.223  14.787 -0.2292  0.0418 -0.1231
24586W        W40720  15.131  12.671  12.337  0.0206 -0.3202  0.1494
24587W        W40721  12.338   4.587  14.877  0.1582 -0.0272 -0.0685
24588W        W40722   1.153  15.978  11.678 -0.0229  0.0954 -0.0542
24589W        W40723   7.765   5.943  13.265  0.0568  0.0213 -0.2073
24590W        W40724  19.009   4.767  11.228 -0.0409 -0.0951 -0.0093
24591W        W40725  10.587  10.792  14.413 -0.1191  0.3611  0.2582
24592W        W40726  13.372  14.434   1.014 -0.2788 -0.2797 -0.3801
24593W        W40727   0.214   6.833  11.551  0.1332 -0.1622 -0.3760
24594W        W40728   4.596  17.415  11.655 -0.0987  0.0579  0.0819
24595W        W40729   8.511   9.816  13.464 -0.1924  0.1883 -0.1893
24596W        W40730   2.859  10.138  13.688  0.1096 -0.1539  0.1994
24597W        W40731  14.321  18.326   4.141 -0.0529  0.0258  0.2123
24598W        W40732   9.959   2.947   0.381 -0.2353 -0.0335  0.3510
24599W        W40733   6.843  19.145  11.351  0.2587 -0.2304 -0.1023
24600W        W40734  12.331   5.203   3.780  0.3948 -0.0082  0.0012
24601W        W40735  17.706  19.100   3.034 -0.0429  0.3510 -0.1172
24602W        W40736  13.386   2.153   3.376  0.3303  0.2069 -0.1911
24603W        W40737   8.893   9.883   4.529  0.0319  0.1864 -0.1179
24604W        W40738   4.361   1.672   4.419 -0.0915 -0.1206  0.2062
24605W        W40739   1.621   9.411   3.871  0.1289 -0.0866 -0.2245
24606W        W40740   6.175  18.366   2.467  0.1685 -0.0179  0.0016
24607W        W40741  18.409   2.797  14.760  0.1134 -0.3460  0.2215
24608W        W40742   9.580   3.264   0.593 -0.0119  0.0657 -0.1602
24609W        W40743   8.499   1.028  14.089 -0.1205  0.1551  0.1107
24610W        W40744  13.657   6.918  12.764  0.1916 -0.0730 -0.3055
24611W        W40745  10.236  19.279   4.330  0.1574  0.0199 -0.0507
24612W        W40746   6.668  19.094   1.448  0.3154 -0.0013  0.0380
24613W        W40747   5.448  10.900  10.532 -0.1059  0.2138  0.1832
24614W        W40748  18.141  10.114   0.510 -0.0673 -0.0747  0.4658
24615W        W40749   1.725  13.927   1.672  0.0538  0.3348 -0.1963
24616W        W40750  19.286   0.688  11.939 -0.1896  0.0305 -0.1519
24617W        W40751  15.944  17.396  11.757 -0.1520  0.1589  0.1368
24618W        W40752   8.036   1.068  14.297  0.1626 -0.1081 -0.0197
24619W        W40753  19.035  19.198  11.586 -0.2798 -0.3653  0.2187
24620W        W40754  15.697   0.596   0.865 -0.4046 -0.1269 -0.0054
24621W        W40755   7.518  17.749   9.331  0.2311 -0.0121 -0.0973
24622W        W40756  16.786   4.831  10.410 -0.1314  0.3777  0.2320
24623W        W40757   7.877   1.846   5.426  0.0822  0.1500  0.0551
24624W        W40758  15.138  10.317  13.972 -0.1709  0.0101 -0.0156
24625W        W40759   7.476  16.281   0.049 -0.0095 -0.0641  0.1329
24626W        W40760   4.932  15.818   3.903 -0.6170  0.0171 -0.0603
24627W        W40761   3.296   4.860   3.658 -0.1910 -0.2177 -0.1532
24628W        W40762  15.681   1.194  13.806 -0.2296  0.1743  0.0115
24629W        W40763   0.452   9.368   4.852  0.0230  0.1176 -0.2555
24630W        W40764  17.124   8.648   3.402 -0.1709 -0.3145 -0.0336
24631W        W40765  18.947   9.912  14.791 -0.2681 -0.0951 -0.0354
24632W        W40766   7.013  17.455  12.568 -0.0642 -0.3503  0.0041
24633W        W40767   4.382  14.971  14.936  0.1209  0.0902  0.1595
24634W        W40768   6.411  10.771  12.211  0.0031 -0.0701  0.1571
24635W        W40769  17.277   8.199  14.483  0.0470 -0.1972  0.2755
24636W        W40770  15.198  18.294  12.652 -0.0008 -0.0561 -0.0119
24637W        W40771   1.492  19.268   1.585 -0.0566  0.1760 -0.1440
24638W        W40772  17.811   3.778   2.448 -0.3174 -0.0899 -0.0550
24639W        W40773  17.737  15.532   0.231  0.0952  0.1423  0.4867
24640W        W40774  13.921  11.319  14.708  0.0266 -0.0399 -0.1450
24641W        W40775   4.107   9.225  11.094  0.1686  0.4272 -0.0606
24642W        W40776  15.118  18.128   9.993 -0.0239 -0.0894 -0.0445
24643W        W40777  16.084  18.885   1.912 -0.1595  0.0615  0.1433
24644W        W40778  12.467   1.520   1.292 -0.1092 -0.1005 -0.0461
24645W        W40779   0.723   0.399   1.538 -0.0326  0.1232  0.1448
24646W        W40780   5.237   2.417   1.907 -0.4590 -0.2968  0.1345
24647W        W40781   6.030  10.389   3.580  0.0709 -0.0318 -0.0160
24648W        W40782   4.176   9.089  13.033  0.1566  0.0298 -0.0909
24649W        W40783   7.386  11.886  11.920  0.4538 -0.1063  0.1403
24650W        W40784   9.289   2.970   3.043 -0.0069 -0.1195 -0.3180
24651W        W40785  15.843   6.404   1.680 -0.0267  0.0708 -0.2477
24652W        W40786  10.121   6.365  14.309  0.0522  0.0240 -0.1402
24653W        W40787  18.476  18.145   0.255 -0.0566 -0.2560 -0.0649
24654W        W40788  14.141   9.381  10.717 -0.0436 -0.1028  0.1097
24655W        W40789   2.781   7.619   0.114  0.5538  0.2087 -0.0112
24656W        W40790  17.932   7.684  13.099  0.0586 -0.0853  0.1274
24657W        W40791  18.554  10.741  14.575 -0.0446 -0.0875  0.1621
24658W        W40792   6.121   2.963   4.180  0.0686 -0.3075 -0.1447
24659W        W40793  11.120  17.047   1.525  0.2371 -0.2897 -0.0856
24660W        W40794   8.279  17.479  10.938 -0.0700  0.0209 -0.0494
24661W        W40795   9.024   1.501   2.445 -0.3607 -0.0271 -0.1988
24662W        W40796  15.121   6.661  15.002  0.2142 -0.2261  0.4662
24663W        W40797  10.534  18.845   2.416 -0.1333  0.2326 -0.1261
24664W        W40798   9.144  17.062   1.696 -0.0636 -0.1948 -0.1511
24665W        W40799   9.495   4.005   0.255 -0.0858 -0.3867  0.2753
24666W        W40800   9.247  17.804   4.407 -0.0603 -0.0211 -0.2496
24667W        W40801   6.355  14.159   1.711  0.1079  0.0796  0.3118
24668W        W40802  18.504  11.398  10.675  0.3356 -0.2234 -0.0644
24669W        W40803   5.001   2.338  11.958  0.3330 -0.0415 -0.2787
24670W        W40804   7.367   3.134   1.927 -0.2720 -0.2059  0.0243
24671W        W40805   6.764  11.190  12.038 -0.1532  0.1644  0.2084
24672W        W40806   4.579   9.744   3.590  0.0852 -0.0551 -0.0778
24673W        W40807   0.417   6.584   2.212  0.0285 -0.5029 -0.1634
24674W        W40808   9.623   9.738   1.631  0.2963 -0.0169  0.1891
24675W        W40809   7.044   8.853  14.344  0.0296  0.1614 -0.3985
24676W        W40810  17.175   6.504   2.566 -0.0312  0.0108  0.0294
24677W        W40811  14.387   4.474  13.892 -0.0572  0.1197  0.0291
24678W        W40812  16.021  18.290  13.206 -0.0370 -0.0312 -0.0687
24679W        W40813  10.084   5.880  14.290 -0.2635 -0.3274 -0.0687
24680W        W40814   4.068  11.271  10.318  0.0452 -0.1760 -0.2711
24681W        W40815   7.099   8.293  10.246  0.1565  0.1565  0.4761
24682W        W40816   2.655   4.008   0.044 -0.0609 -0.3142 -0.0361
24683W        W40817  17.670   9.831   1.337  0.1127 -0.0524 -0.3140
24684W        W40818   4.838  11.113  13.914  0.3804 -0.0314 -0.2626
24685W        W40819  10.399  11.918   0.909 -0.0136 -0.1207  0.1313
24686W        W40820  15.951  14.102   0.227 -0.1597 -0.0326  0.2539
24687W        W40821  16.345  12.292   2.630 -0.3463 -0.1774 -0.2656
24688W        W40822   7.502   2.364   3.458 -0.1164  0.4914  0.2056
24689W        W40823  10.992   7.113  11.807  0.3766 -0.1356 -0.0502
24690W        W40824  12.140   1.744  14.442 -0.2482  0.0494  0.2711
24691W        W40825   8.189   1.973   0.615  0.0321  0.2806 -0.0500
24692W        W40826  19.212   7.982   3.172  0.0730 -0.1841 -0.2222
24693W        W40827   9.839   2.647   3.525 -0.1484 -0.0602 -0.1023
24694W        W40828  12.690   1.661  10.780  0.1293  0.0560 -0.1251
24695W        W40829  17.402   7.070   1.859  0.1658 -0.1053  0.0286
24696W        W40830   3.319   8.084  11.913  0.3697  0.0900 -0.0324
24697W        W40831  12.611   5.349  11.995 -0.3387 -0.0131  0.4595
24698W        W40832  10.366   5.337  13.103  0.0575 -0.2019 -0.1218
24699W        W40833  16.494   4.083  14.948 -0.1231 -0.0224 -0.0921
24700W        W40834  16.243  12.233   4.321  0.2572 -0.1399  0.1130
24701W        W40835  18.797  12.582  11.965 -0.3051  0.1285  0.1150
24702W        W40836   7.129   4.790  14.279 -0.0592  0.0301 -0.1398
24703W        W40837   1.671   0.270  10.376  0.1136 -0.0474  0.0153
24704W        W40838   7.802   4.331  14.725  0.0948 -0.0011 -0.0145
24705W        W40839  19.145   0.881  11.282  0.1431  0.2759 -0.0962
24706W        W40840  18.115  15.407  12.116 -0.1858  0.1682 -0.1446
24707W        W40841   2.922  16.429   0.851 -0.0246 -0.1680 -0.1657
24708W        W40842  15.374   9.127  13.954  0.0654  0.3528 -0.3616
24709W        W40843   1.799  16.823  13.962 -0.0295  0.2001  0.1304
24710W        W40844   1.186   5.283   4.519 -0.0854 -0.2676  0.0837
24711W        W40845  18.628   5.440  12.850 -0.0657  0.1738  0.2458
24712W        W40846  11.441  13.889   3.177  0.1017 -0.0043  0.2973
24713W        W40847  15.766   2.761   9.644 -0.0102 -0.1588  0.0462
24714W        W40848  19.238   0.755  14.221  0.0052 -0.5004 -0.0958
24715W        W40849   9.379   8.024   9.461  0.1013 -0.4216  0.0880
24716W        W40850   5.028   7.119   3.028 -0.0050  0.1845  0.4335
24717W        W40851   7.530   6.177  11.865 -0.0203  0.1002  0.1411
24718W        W40852  10.938  15.052  14.729  0.2926 -0.0843 -0.2156
24719W        W40853   5.599  10.141  13.391  0.0192  0.1461  0.1302
24720W        W40854   3.985   2.843   1.910 -0.1968  0.1462 -0.0825
24721W        W40855  15.311  16.513   0.543 -0.0307 -0.0259  0.1158
24722W        W40856   1.300  18.579   1.012  0.0246  0.3403 -0.0968
24723W        W40857  13.554  11.428   1.021 -0.1026 -0.2210 -0.0601
24724W        W40858  10.574  13.197   2.935 -0.0259 -0.1751 -0.3330
24725W        W40859  10.246  12.338  10.742  0.3411 -0.1495 -0.2657
24726W        W40860   2.253   3.814   5.058  0.2169 -0.2049 -0.0908
24727W        W40861   2.617  14.234   2.263 -0.0612  0.0900 -0.3160
24728W        W40862   2.254  18.272  10.528 -0.0711  0.2889 -0.1410
24729W        W40863  11.742   4.260   3.718  0.3112 -0.0323  0.1597
24730W        W40864  12.809  10.467   3.661  0.0138  0.0637  0.1919
24731W        W40865   8.396   5.261   9.813  0.1199 -0.0859 -0.1171
24732W        W40866   5.424   5.653  11.402  0.3481  0.0229  0.0087
24733W        W40867   3.218   2.412   4.285 -0.0011 -0.0551 -0.2487
24734W        W40868   6.663  14.830  13.368  0.0847 -0.2953  0.0115
24735W        W40869  18.361  16.624  12.741 -0.2373 -0.2976 -0.0843
24736W        W40870   3.042  13.747  13.809  0.2706 -0.0978 -0.0002
24737W        W40871  11.742   5.783  12.201  0.1142  0.0784  0.5081
24738W        W40872   0.127  18.841  10.483 -0.1003 -0.0746 -0.0035
24739W        W40873   5.351  16.970   2.805 -0.0243 -0.0551 -0.0026
24740W        W40874  11.594   8.157   0.591 -0.0008 -0.1257 -0.0946
24741W        W40875  17.704  16.662  12.803  0.4611  0.3499  0.1073
24742W        W40876  14.832   6.338  12.518  0.1387 -0.1506 -0.2333
24743W        W40877   6.463  13.073   0.600  0.2209  0.1055 -0.3610
24744W        W40878   7.670  18.904  12.063 -0.0794 -0.1004 -0.3007
24745W        W40879   3.610   3.051  10.061 -0.3435  0.0558  0.0993
24746W        W40880  12.102   5.857   5.691  0.4379 -0.0462 -0.0578
24747W        W40881   8.192  10.425  14.799 -0.1816  0.2027  0.0747
24748W        W40882   0.041   0.200  14.388  0.0888  0.1466 -0.0290
24749W        W40883   2.851   5.372   0.226  0.0089  0.2202 -0.1640
24750W        W40884  11.569   2.801   4.667  0.1533  0.0062 -0.4927
24751W        W40885  13.045  15.977   1.659  0.4612  0.1540 -0.2282
24752W        W40886   9.530  12.263   1.342 -0.0246  0.4836 -0.0418
24753W        W40887  17.004  13.333   1.302  0.0723  0.0527 -0.2438
24754W        W40888   1.815   7.635  10.670  0.2105  0.0220  0.1735
24755W        W40889  10.966   5.005   2.364  0.0314  0.1596 -0.1851
24756W        W40890   9.279   4.085  10.905 -0.0024  0.0177  0.3949
24757W        W40891   3.664  10.793   2.617  0.4867  0.0151  0.2413
24758W        W40892   0.678   4.435  12.142  0.3348 -0.0168 -0.0568
24759W        W40893  14.250  16.717  11.216  0.0271  0.0161 -0.0807
24760W        W40894   9.738   0.516   3.942  0.1455  0.2439 -0.0961
24761W        W40895  12.036   6.130   1.036 -0.3336  0.0086  0.1473
24762W        W40896  15.737   5.785  14.753 -0.1328 -0.2326  0.0198
24763W        W40897   0.445  15.380   4.361 -0.2042 -0.0221  0.0570
24764W        W40898   2.074   2.945   0.939  0.1342  0.0761  0.1483
24765W        W40899  11.841   5.536  12.705  0.3104  0.0584 -0.1582
24766W        W40900  16.806   5.067  12.223  0.0423  0.0427 -0.0499
24767W        W40901  12.992  18.361  11.848 -0.0043 -0.0783 -0.0244
24768W        W40902   5.288   0.063   4.194 -0.0672  0.2865 -0.2091
24769W        W40903   7.917  11.290   2.476 -0.0999  0.0297 -0.0228
24770W        W40904  10.412   3.802   4.159  0.1550 -0.2752 -0.1432
24771W        W40905  12.728   2.720   2.599 -0.0375 -0.2680  0.1637
24772W        W40906   9.220   2.546  13.693 -0.1059  0.0354  0.0438
24773W        W40907   6.618   3.563   4.511  0.1143 -0.2584  0.3973
24774W        W40908   8.915   2.546   0.435  0.0197  0.3945  0.2239
24775W        W40909   7.688   0.989  13.597 -0.1110  0.0879 -0.2755
24776W        W40910   1.759   7.943   3.116  0.0287 -0.1645  0.1876
24777W        W40911  10.990  15.982   4.330  0.0230 -0.0355 -0.0427
24778W        W40912   7.817   1.529   1.347  0.1343  0.1250 -0.0922
24779W        W40913  10.805  18.960  13.180 -0.1404 -0.1647 -0.2557
24780W        W40914  13.347  13.717   2.856  0.3676  0.1768 -0.2619
24781W        W40915  17.974   6.527   3.884  0.1808 -0.1737 -0.0271
24782W        W40916   0.193  14.793  12.891  0.0038  0.3309 -0.0158
24783W        W40917   9.448   8.604   4.832  0.0199  0.0757 -0.0467
24784W        W40918   1.596   1.636  14.731 -0.0181  0.0183  0.1722
24785W        W40919   3.003   4.043  11.206 -0.1768 -0.0097  0.0515
24786W        W40920   9.231   6.077   2.187 -0.1110  0.1682  0.0536
24787W        W40921   3.480   5.738  13.500  0.0297  0.1398 -0.0934
24788W        W40922  18.286   0.340  13.360 -0.0040 -0.0999 -0.2488
24789W        W40923  10.115   4.979   4.168  0.0063 -0.0389 -0.1187
24790W        W40924  12.057   5.749   4.550  0.3011 -0.0144  0.0967
24791W        W40925  14.176  12.238   3.578 -0.2598  0.1955 -0.1821
24792W        W40926   6.235   8.547  10.456  0.2491 -0.2019 -0.0003
24793W        W40927   8.162  15.420  12.944  0.0412 -0.0926  0.0274
24794W        W40928  10.713  14.072   3.640  0.3126  0.2722 -0.1444
24795W        W40929   4.065   3.665   9.908 -0.1926 -0.1980  0.1051
24796W        W40930  10.390  14.450   1.812  0.3244  0.3114 -0.1158
24797W        W40931  17.614  13.656   1.998 -0.1868  0.1206  0.1488
24798W        W40932  14.061   3.091   0.477  0.0232 -0.1360 -0.2532
24799W        W40933   7.533  12.610   9.678 -0.2585 -0.5245  0.0980
24800W        W40934   4.957   3.996   3.578  0.1830  0.1179  0.0855
24801W        W40935  19.210  13.396  14.905  0.1735  0.0010  0.0845
24802W        W40936  14.775   2.012   1.472  0.1392  0.1285 -0.3613
24803W        W40937  10.290  16.231  13.515 -0.0322  0.0920  0.1785
24804W        W40938  16.573  14.050  12.577  0.0804  0.1993 -0.2641
24805W        W40939   8.820  14.950  14.311 -0.0248 -0.0767  0.4448
24806W        W40940  11.010  13.804   1.279 -0.1075 -0.1386  0.1376
24807W        W40941   4.897  18.152   0.427  0.1458  0.0857  0.2172
24808W        W40942  16.930  13.858   2.520 -0.1869  0.2418 -0.0398
24809W        W40943   5.947   7.136  12.965 -0.0257 -0.1687 -0.2963
24810W        W40944  18.891   9.889  11.547  0.2074 -0.2011 -0.0831
24811W        W40945  17.270  15.107   2.024 -0.1337  0.1693  0.1959
24812W        W40946   3.180   7.867  13.091  0.1666  0.1920 -0.1006
24813W        W40947  14.548  17.716   0.578  0.1195  0.0758 -0.2348
24814W        W40948   2.185   6.105   3.125  0.2015  0.0663  0.0283
24815W        W40949  12.061   2.698  14.714 -0.0394  0.2533  0.2051
24816W        W40950  16.401  13.181  14.459  0.0568 -0.2043 -0.1270
24817W        W40951  11.499  14.986   4.556 -0.1913 -0.1466  0.1055
24818W        W40952  13.171   8.091   5.057  0.1466 -0.1572  0.1376
24819W        W40953   5.045  14.624  13.845  0.1690 -0.0654  0.2048
24820W        W40954  14.432  13.561  10.371 -0.0493 -0.0720  0.2973
24821W        W40955   1.353   9.170  10.263 -0.2180 -0.1276  0.0994
24822W        W40956   4.872   9.857   4.578 -0.1359  0.0020 -0.0594
24823W        W40957   5.188   4.286  11.003  0.0055 -0.1958  0.1256
24824W        W40958  17.060   0.042   1.598  0.0481  0.2333 -0.0522
24825W        W40959   8.082  11.948   4.337  0.4731 -0.3539 -0.4875
24826W        W40960  12.106  15.457  10.183 -0.0543  0.0855 -0.1503
24827W        W40961  15.551  13.584   3.846 -0.2484 -0.2902  0.2396
24828W        W40962  10.502   5.110  13.531  0.1388  0.0816 -0.0070
24829W        W40963  13.616   6.389  10.223  0.1348  0.1447 -0.2043
24830W        W40964  18.325   4.669   4.515  0.1094 -0.0885 -0.4862
24831W        W40965  12.442   5.001   4.514  0.1040  0.2285 -0.2864
24832W        W40966   1.002   8.185  11.142 -0.0123 -0.1326  0.1307
24833W        W40967   2.122   6.090   4.079 -0.1353  0.0055  0.1463
24834W        W40968   4.628   8.555  12.481 -0.0396 -0.0924 -0.1748
24835W        W40969  11.142  16.566   4.266 -0.3218 -0.0058  0.2668
24836W        W40970  10.606  14.310  12.778  0.0008  0.0353 -0.0549
24837W        W40971  18.269  14.925   1.858 -0.2105 -0.0696  0.0696
24838W        W40972   0.909  18.489  14.943 -0.3589 -0.2679 -0.1103
24839W        W40973  10.987   9.485   5.203 -0.1599 -0.3664 -0.2880
24840W        W40974  10.720  15.258  12.787 -0.1521  0.2013 -0.0804
24841W        W40975   7.161   6.262   2.801 -0.2427  0.1542 -0.1069
24842W        W40976   1.810  18.865   4.144  0.2266 -0.2786 -0.0443
24843W        W40977   3.185  12.826  13.488 -0.1756 -0.0382 -0.0340
24844W        W40978  11.827  16.783   3.117  0.0437  0.0937 -0.3565
24845W        W40979  11.822   5.374   2.167  0.2783 -0.2059 -0.2586
24846W        W40980  13.462   8.129   2.061  0.0528  0.1060  0.0238
24847W        W40981   9.083   3.790   1.311  0.0970 -0.2454 -0.1393
24848W        W40982   9.825   4.652  14.252  0.0913  0.2021 -0.2773
24849W        W40983  17.068   8.820  11.247 -0.4266  0.1847  0.1430
24850W        W40984   4.757  18.778  13.103 -0.0190 -0.2313 -0.1498
24851W        W40985  11.041  12.722   1.864  0.0128 -0.0504  0.1583
24852W        W40986   3.494   1.192   3.024  0.3326  0.2049  0.2989
24853W        W40987   8.209   2.726  13.424 -0.2749  0.1910  0.3186
24854W        W40988  13.989  18.580   2.628  0.0578  0.0655  0.1930
24855W        W40989   4.960  13.810   5.192 -0.0442  0.2684 -0.1459
24856W        W40990  17.998   3.527  11.850  0.0656  0.2530 -0.0093
24857W        W40991   4.310   8.428   0.279 -0.2914  0.1137 -0.1398
24858W        W40992   2.790   2.841  10.761 -0.1161  0.1899 -0.4063
24859W        W40993  18.208  13.688   5.458  0.0283 -0.0937  0.2410
24860W        W40994  13.818   1.901  13.701  0.2893  0.0773  0.0553
24861W        W40995  18.023   1.244   1.536 -0.1236  0.4950 -0.1683
24862W        W40996   8.593   2.888   0.364  0.3179 -0.0370  0.1204
24863W        W40997   3.229  16.397   4.416 -0.0987  0.1612  0.0825
24864W        W40998  18.274   2.513   3.845 -0.1023  0.1928 -0.1209
24865W        W40999  18.428   0.711   5.687 -0.0614 -0.0699  0.0892
24866W        W41000  11.680   5.938   0.245 -0.0866 -0.1444  0.1230
24867W        W41001   3.320  10.115   3.303  0.2751  0.0112 -0.0116
24868W        W41002   1.280   4.955  14.568 -0.2739 -0.3733  0.1088
24869W        W41003  18.192  16.990   4.994  0.0674  0.2586 -0.1874
24870W        W41004  10.892  18.790   0.719  0.1865 -0.1970 -0.2080
24871W        W41005  16.961  11.604   0.708 -0.1543  0.1012 -0.0613
24872W        W41006  15.238   1.875  13.139 -0.0144 -0.1363 -0.0209
24873W        W41007   9.838  17.105   5.424 -0.0594  0.1502 -0.1641
24874W        W41008  18.326  13.578   4.819 -0.0579 -0.2724  0.0516
24875W        W41009  12.805   8.177   5.352  0.0588 -0.0517  0.4022
24876W        W41010   5.904  15.770   4.548 -0.2062 -0.0877  0.0595
24877W        W41011  10.042   4.514   1.393 -0.0567 -0.2395  0.0591
24878W        W41012   0.204   5.160  12.058 -0.2548 -0.2865 -0.4647
24879W        W41013  15.061   2.522   5.173  0.1386 -0.0588 -0.0923
24880W        W41014  16.708  13.595  12.238 -0.0931  0.0784  0.0181
24881W        W41015   7.938  14.262   5.025 -0.3292 -0.3927  0.1158
24882W        W41016   8.329   0.946  11.987 -0.1489  0.0891  0.0139
24883W        W41017   0.388   7.240  13.101  0.0054 -0.0814  0.0455
24884W        W41018   6.204  13.987  12.438 -0.1025  0.1571 -0.1689
24885W        W41019   7.612  15.878   5.272 -0.2892  0.2611 -0.1455
24886W        W41020  15.501  11.694  14.797 -0.0977 -0.2674 -0.1573
24887W        W41021   1.858   7.800   9.558  0.1002  0.0186  0.0532
24888W        W41022  15.045  11.702  14.045 -0.0254 -0.0348 -0.2306
24889W        W41023  15.299   7.478   1.408 -0.2793  0.2525  0.0346
24890W        W41024  10.116  15.924   2.386 -0.2005 -0.2175 -0.0063
24891W        W41025   5.995   2.537  13.197 -0.0897  0.0708  0.0316
24892W        W41026   6.211  14.345  14.913 -0.0179  0.1286  0.0480
24893W        W41027   1.472  18.111  12.679 -0.2101  0.3536 -0.1302
24894W        W41028   2.247  13.551  12.875  0.0269  0.0660 -0.0947
24895W        W41029   4.695  15.714   0.833  0.0067  0.2079 -0.0047
24896W        W41030   5.416   8.920  13.070  0.0509  0.0267  0.3315
24897W        W41031  18.414   6.190  10.429 -0.0306 -0.1863  0.1279
24898W        W41032   4.909   2.706   4.983 -0.3828  0.5508  0.2003
24899W        W41033  10.607  15.340  11.269  0.1075 -0.2521  0.1169
24900W        W41034  11.550  10.186  12.897 -0.1202  0.2551 -0.2895
24901W        W41035   0.453   4.821   1.041  0.0216 -0.0511  0.1148
24902W        W41036   3.648   9.436  11.034  0.1545  0.2002 -0.2073
24903W        W41037  16.484  12.721  14.139  0.1971  0.0594 -0.1659
24904W        W41038  12.833  14.693  14.843 -0.0826 -0.0973 -0.1309
24905W        W41039   9.421   1.219  11.855 -0.0151  0.0295  0.3012
24906W        W41040   7.024  13.714   4.190  0.0341  0.0571  0.0384
24907W        W41041  10.397   7.257   2.885 -0.2584  0.1399 -0.0557
24908W        W41042   7.367  14.209  13.157 -0.0156  0.1745  0.3448
24909W        W41043   5.076   2.407  13.205 -0.0179 -0.1347  0.1229
24910W        W41044  16.285  10.539   2.574  0.1841 -0.2136  0.0394
24911W        W41045   0.214   6.859  13.863  0.1948 -0.1687  0.2215
24912W        W41046   4.722   4.847   1.980  0.1876  0.1375  0.1425
24913W        W41047   5.999  12.341   2.671 -0.1378  0.3104  0.0487
24914W        W41048   6.694   8.188  10.008  0.0219 -0.0364  0.1320
24915W        W41049  16.515  18.770   2.516  0.0842  0.0456  0.1096
24916W        W41050  19.165   4.986  10.784  0.1868 -0.0062  0.2054
24917W        W41051  15.718  13.281   5.815 -0.2570  0.2577 -0.0159
24918W        W41052  14.981   8.434   3.820 -0.2053 -0.1254  0.1385
24919W        W41053  11.967   1.566   1.136 -0.1837 -0.0677  0.2548
24920W        W41054  16.850  12.882   2.042  0.1807 -0.0144  0.1319
24921W        W41055  12.913   7.097   0.234  0.0012 -0.0840 -0.2441
24922W        W41056  11.141   0.575   1.298 -0.2371  0.0417  0.2198
24923W        W41057   0.390  13.041   9.970 -0.1880 -0.2721 -0.1568
24924W        W41058   3.678  12.795  14.735  0.0663  0.0491  0.1200
24925W        W41059   1.102  17.081  13.162  0.2930  0.0508  0.0085
24926W        W41060   0.278  19.204  12.561  0.1475  0.0346  0.0774
24927W        W41061  13.958  17.273  11.867  0.0584  0.5229 -0.0150
24928W        W41062  16.881  15.092   3.381  0.0761  0.0042  0.2457
24929W        W41063  13.101  18.762  14.027 -0.1237 -0.0306 -0.0431
24930W        W41064   4.356   3.490  12.944  0.1553  0.0005  0.3490
24931W        W41065  13.320   0.553  12.089 -0.1012  0.0975  0.1300
24932W        W41066  14.707  10.871   3.596  0.0498 -0.2111 -0.0010
24933W        W41067  11.875  13.215  14.641  0.2822 -0.0405 -0.1962
24934W        W41068   6.190   6.221  11.286  0.4083  0.1546 -0.1993
24935W        W41069   4.928   6.671   1.258 -0.1026  0.0395  0.3202
24936W        W41070   3.667   9.756   5.276 -0.1991  0.0642 -0.0284
24937W        W41071  18.267   2.642   0.926  0.0155  0.1447  0.2290
24938W        W41072  12.444   2.433   0.975  0.1097  0.1540  0.0349
24939W        W41073  19.100   4.676  13.311 -0.1834 -0.0067 -0.1917
24940W        W41074   2.396  14.012   3.283  0.0216 -0.0018 -0.2722
24941W        W41075   1.038  15.256  13.714  0.0437 -0.0256 -0.1698
24942W        W41076   2.433  15.047   0.392 -0.0250  0.0356 -0.3812
24943W        W41077   4.983   7.964   5.095  0.0742  0.0493  0.0029
24944W        W41078   2.000   0.189   3.369 -0.0598  0.1177 -0.4814
24945W        W41079  13.785  18.302  14.580 -0.2171 -0.0896  0.0993
24946W        W41080   9.418   5.869   0.123 -0.4146 -0.2048 -0.0532
24947W        W41081   4.976   5.879  14.622 -0.1607 -0.0529  0.1245
24948W        W41082   8.467  12.449   2.402  0.0189 -0.0749 -0.1522
24949W        W41083  17.046  17.030  11.020 -0.1517 -0.2574  0.1082
24950W        W41084   7.099   5.881   3.577 -0.1499 -0.1331 -0.1176
24951W        W41085   7.436   0.688   3.269  0.3157  0.2743  0.2211
24952W        W41086   5.783   9.348  10.205  0.0500 -0.2756 -0.1251
24953W        W41087   1.152   8.471  12.013  0.2076 -0.1196 -0.2301
24954W        W41088  17.124  11.668   4.707  0.2665  0.3668  0.0212
24955W        W41089   6.117   5.822  12.010  0.0155 -0.3877  0.0989
24956W        W41090   0.200  12.851  13.189  0.2085  0.0798 -0.0105
24957W        W41091  14.329   9.321  14.963 -0.0960  0.1534 -0.3782
24958W        W41092  12.834   9.408   1.826 -0.0162 -0.0830  0.3596
24959W        W41093   3.320  17.654  10.460 -0.0767 -0.2805  0.1225
24960W        W41094  17.671   3.544   0.862  0.2782 -0.0656  0.1641
24961W        W41095  12.951   8.095  13.424  0.1852 -0.1953  0.2811
24962W        W41096  19.315   5.088  10.337 -0.3157 -0.2047 -0.1886
24963W        W41097  12.920  17.919   4.952  0.0657  0.2681  0.0953
24964W        W41098   8.923  14.866   4.698 -0.2054 -0.1672 -0.0570
24965W        W41099  15.034  16.262  11.382 -0.1784 -0.1582  0.2102
24966W        W41100  15.436   5.174   2.160 -0.1450  0.0238 -0.2200
24967W        W41101   7.480   1.065   1.273  0.0863 -0.4217 -0.1877
24968W        W41102  16.304  15.437  11.585  0.0609  0.3326 -0.1979
24969W        W41103   8.532   3.544   4.971  0.3347  0.0033  0.2336
24970W        W41104   3.820  16.641  10.987  0.0863  0.0764  0.1108
24971W        W41105   6.849  15.508   5.728 -0.1407 -0.0425  0.1619
24972W        W41106  17.618   0.688   4.315 -0.2413 -0.2104  0.1526
24973W        W41107  11.490   6.458   3.684 -0.1808  0.4067 -0.2731
24974W        W41108   1.906   2.610  10.463 -0.0436  0.3950 -0.1708
24975W        W41109  18.807   3.132  10.869  0.0325  0.3557 -0.0081
24976W        W41110   3.782   5.854  13.028 -0.0463  0.2522  0.1196
24977W        W41111   2.151  10.684   5.106 -0.0924  0.0823  0.0502
24978W        W41112   1.049  14.870  13.301  0.3739  0.1068  0.1577
24979W        W41113   0.393   6.783  12.853  0.1355  0.1695  0.1123
24980W        W41114  10.144   1.749  11.021  0.1179 -0.2213  0.0379
24981W        W41115   5.908  19.247  12.052 -0.0705 -0.1187  0.0866
24982W        W41116   1.383   1.459  11.103  0.3425 -0.0606  0.0467
24983W        W41117  16.494  14.245  13.538 -0.0722  0.4050 -0.1936
24984W        W41118   9.706   1.953  14.859 -0.1729  0.0744  0.4324
24985W        W41119  19.126   8.997  14.138 -0.0326 -0.1005  0.1702
24986W        W41120  12.241  17.862  14.210 -0.1317 -0.2102 -0.0936
24987W        W41121  15.214  12.619   5.293  0.0251  0.0928  0.0076
24988W        W41122   8.007   5.583  14.501 -0.0297  0.0186 -0.1164
24989W        W41123   3.741  18.200   3.247  0.2220 -0.1483  0.0282
24990W        W41124   3.321   2.006   1.269 -0.0487  0.0669 -0.0996
24991W        W41125   6.887  12.561   4.282 -0.1215 -0.0988  0.1892
24992W        W41126  15.816   1.373  10.419  0.1189  0.0575 -0.0818
24993W        W41127  17.874   2.832   3.904 -0.0452  0.1622  0.3423
24994W        W41128   6.315   5.570   1.138  0.1793 -0.1515  0.0876
24995W        W41129   8.684  13.878   3.110  0.0563 -0.4796  0.0603
24996W        W41130   5.341   5.525   4.770 -0.3157 -0.1320  0.1614
24997W        W41131   6.643  10.635   1.905  0.1847  0.1381  0.0070
24998W        W41132  18.448   1.388   2.175 -0.1707 -0.1197  0.1943
24999W        W41133   6.015  11.276   3.259 -0.0883  0.2279  0.1215
25000W        W41134  13.219   9.369  13.014  0.2113 -0.3015  0.4071
25001W        W41135  16.290  15.336  13.224  0.0664  0.1457 -0.0427
25002W        W41136   4.210  16.490   9.830 -0.0074  0.8648 -0.1482
25003W        W41137  16.664  14.465  11.293  0.2815 -0.3052  0.1544
25004W        W41138  12.928  16.413  13.698  0.3427  0.1653 -0.4105
25005W        W41139   7.121  17.704   2.877  0.0838  0.0646  0.1947
25006W        W41140   0.991  13.363   2.048 -0.2773  0.3032 -0.3777
25007W        W41141   0.448   3.391  13.624  0.3384 -0.1940  0.1873
25008W        W41142   6.034   8.801   0.929 -0.1624  0.3225  0.0216
25009W        W41143  12.753   1.990   9.977 -0.0712 -0.3514  0.1728
25010W        W41144  14.228  14.641   3.364  0.0062  0.3434 -0.0537
25011W        W41145   9.021   3.131  11.969  0.1284  0.3350 -0.1918
25012W        W41146  18.019   2.453  11.709 -0.0566  0.0204  0.3231
25013W        W41147  18.677  16.428  12.339 -0.0677  0.2079 -0.0436
25014W        W41148  13.371   9.721   1.835  0.3010  0.0548  0.1025
25015W        W41149  19.263   2.551  10.237 -0.0404 -0.0146  0.0423
25016W        W41150  12.883   3.504  11.235 -0.2335  0.3193 -0.4100
25017W        W41151  12.445  13.897  12.810 -0.0396  0.1397 -0.3108
25018W        W41152   2.261  11.721  11.493 -0.3414  0.3189  0.1103
25019W        W41153   1.837   3.467  14.562 -0.1106  0.1437 -0.6968
25020W        W41154   9.755  11.692  10.914  0.2315 -0.1995  0.0738
25021W        W41155   5.139  16.470   0.094 -0.1134 -0.0455 -0.2995
25022W        W41156  14.452   8.365   1.792  0.1660 -0.0616  0.2882
25023W        W41157   7.524   3.464   2.319  0.1255  0.1338 -0.1154
25024W        W41158  18.788  12.628   3.759 -0.1895  0.0155 -0.2321
25025W        W41159  17.639   9.644   5.637  0.1663  0.1137  0.1338
25026W        W41160   1.616   1.014  11.518 -0.0280 -0.2644  0.1205
25027W        W41161  11.416  12.583  11.944 -0.1414  0.0913  0.0757
25028W        W41162  14.648  12.041   1.593 -0.3860  0.2076  0.1790
25029W        W41163  13.890   3.069  11.459  0.2886  0.0107 -0.0265
25030W        W41164   5.274   5.212   3.266  0.0025  0.0538  0.1641
25031W        W41165   1.698  15.566  14.636 -0.2135 -0.2688  0.2582
25032W        W41166  18.087   7.522   4.048 -0.1109 -0.0679  0.1648
25033W        W41167  14.284  12.767   3.718  0.1980  0.0436 -0.0782
25034W        W41168  11.726   3.559  12.820 -0.1228 -0.2676 -0.2372
25035W        W41169  17.926   0.399  13.851 -0.2424 -0.1586 -0.2352
25036W        W41170   7.498  11.101   0.873 -0.1654 -0.0635  0.0684
25037W        W41171  18.725   8.063  13.330 -0.3657  0.1612  0.3930
25038W        W41172   9.336  15.835   3.517 -0.0843 -0.0554 -0.0200
25039W        W41173   4.735  10.253  13.995  0.1248 -0.0238  0.1591
25040W        W41174  10.007   2.099   1.734 -0.0404 -0.1187  0.1723
25041W        W41175   2.415   4.755   5.455 -0.2831 -0.0781 -0.0946
25042W        W41176  10.898   8.551  12.365  0.2788  0.2725  0.0676
25043W        W41177  17.270   1.754  12.048  0.0375  0.2271  0.1926
25044W        W41178   1.227   6.596  13.027 -0.2050 -0.1575 -0.2325
25045W        W41179  16.728  16.657  14.007 -0.3310 -0.0665  0.2147
25046W        W41180  14.373   4.225  12.992  0.0922  0.0517  0.2704
25047W        W41181  18.748   4.170  11.657 -0.5374  0.3136 -0.0143
25048W        W41182  17.339  18.353  14.844  0.1927  0.0807  0.1560
25049W        W41183   0.957  15.040   0.174  0.0876 -0.0766  0.1454
25050W        W41184   4.144  13.093  14.066 -0.1839  0.2816  0.0106
25051W        W41185  15.859   8.786  11.667  0.1185  0.2109 -0.2030
25052W        W41186   6.238   6.255   4.252 -0.1891  0.0814  0.0734
25053W        W41187  10.815   2.501   5.175 -0.0398  0.1134  0.0809
25054W        W41188   0.792   6.491   3.783 -0.1865 -0.0549  0.1521
25055W        W41189  15.747  10.540   0.673 -0.1751 -0.1610 -0.0204
25056W        W41190  19.131   4.078  10.660 -0.5010  0.0605  0.3003
25057W        W41191   6.803  13.229   1.983 -0.1224 -0.0090 -0.0078
25058W        W41192  17.971   6.459   5.168  0.1946 -0.0828  0.2541
25059W        W41193   7.990  18.125   5.629  0.1862 -0.2599 -0.0522
25060W        W41194  13.940   4.087   2.234 -0.1522  0.0642 -0.0422
25061W        W41195  12.492   9.630  10.858  0.1126 -0.2115 -0.0715
25062W        W41196  17.034   4.257   2.217 -0.0129  0.2009 -0.1286
25063W        W41197   7.475  12.564  14.673  0.0989  0.1816 -0.0333
25064W        W41198  17.831   8.184   4.575  0.1420  0.0719  0.0859
25065W        W41199   7.750   8.105  13.759  0.0671  0.0475 -0.1071
25066W        W41200   6.038   7.211  11.888 -0.0588  0.1276  0.2294
25067W        W41201  16.953   3.141   0.392  0.1612 -0.0087 -0.1512
25068W        W41202  18.399   8.434   1.555 -0.2628 -0.0471 -0.1509
25069W        W41203  12.598   9.056  12.502 -0.1507 -0.0829  0.4460
25070W        W41204   9.299  18.923   4.136 -0.0695  0.0022 -0.0661
25071W        W41205   5.509  12.096   3.986  0.1580  0.0698 -0.1486
25072W        W41206  15.482  16.668   4.404 -0.2495 -0.0141 -0.1822
25073W        W41207   7.355   9.495  12.648  0.3651 -0.2951  0.1746
25074W        W41208  19.213   1.294   0.077 -0.1475 -0.0804 -0.0785
25075W        W41209  17.082   8.655  14.303  0.0755 -0.0395 -0.1325
25076W        W41210  13.968  14.657  13.381 -0.3665  0.2202 -0.1317
25077W        W41211   6.124   4.152   3.688  0.2880  0.0367  0.3740
25078W        W41212  17.051   1.250  14.179 -0.0856  0.0288  0.1787
25079W        W41213   5.311  16.778  11.144  0.1831 -0.1130  0.2863
25080W        W41214  18.273  16.862   0.104  0.4058  0.1398  0.1322
25081W        W41215   2.868  17.949  11.117 -0.0979 -0.2040 -0.2022
25082W        W41216  17.987   4.292  13.780 -0.0542 -0.3785 -0.0949
25083W        W41217  15.727   5.378   2.932 -0.4435 -0.0802 -0.1554
25084W        W41218   0.049   5.397  14.276  0.0859  0.1487 -0.1131
25085W        W41219   9.344  18.763   3.679  0.1561 -0.0275  0.2563
25086W        W41220  10.833   3.583  12.484  0.0176  0.3637 -0.4369
25087W        W41221   1.455   8.693   0.283  0.4717  0.0368  0.2950
25088W        W41222   8.760   8.502  11.590 -0.4004  0.1830  0.0013
25089W        W41223   5.546  11.113   1.941  0.0542 -0.2767 -0.1819
25090W        W41224   9.594   2.949  14.151 -0.1382  0.0659  0.2022
25091W        W41225   3.255   2.147   0.046  0.1776 -0.3463 -0.1040
25092W        W41226   0.171  13.614   4.058  0.0422 -0.3005 -0.1643
25093W        W41227   1.616  16.025   2.899 -0.1552  0.0096  0.1006
25094W        W41228   1.957   2.225   3.223  0.1675 -0.4722  0.1249
25095W        W41229   0.977  13.070  12.296 -0.0255  0.0506 -0.2065
25096W        W41230   0.815   7.239   2.453  0.0784  0.0556  0.3671
25097W        W41231  12.967   9.948  12.466 -0.1330 -0.1379 -0.0320
25098W        W41232   9.031  10.649   3.840  0.1453 -0.2075  0.1602
25099W        W41233   5.346  16.121   2.500 -0.1766  0.0815 -0.2489
25100W        W41234  14.703  11.294   2.446  0.1300 -0.0124  0.0508
25101W        W41235   4.690  17.089   0.493 -0.0325  0.1225 -0.2409
25102W        W41236  14.874  10.994   0.416 -0.0527  0.0652  0.1876
25103W        W41237   3.904  11.339  14.034  0.1092 -0.2375  0.2987
25104W        W41238  10.990   4.040  12.316  0.0471 -0.0791  0.1471
25105W        W41239   2.396  11.045  12.785 -0.4155  0.0037  0.1117
25106W        W41240   6.234  11.500  13.371 -0.2430 -0.1221  0.2444
25107W        W41241   0.648   0.861   2.639  0.4558  0.1637  0.2322
25108W        W41242   8.339   5.074  14.425 -0.1127 -0.0745  0.2584
25109W        W41243   2.479   6.691   3.533  0.1195 -0.2418 -0.0842
25110W        W41244  16.287  10.860   0.367  0.1651  0.2033  0.0619
25111W        W41245  12.079  18.828  14.321 -0.1584  0.2955  0.1549
25112W        W41246   6.936   6.843  13.879 -0.0465 -0.0704 -0.3848
25113W        W41247   4.740  13.771  10.398 -0.0103  0.1013  0.0369
25114W        W41248   6.561   3.107   4.367  0.1315 -0.2946 -0.0986
25115W        W41249  12.622   1.347   3.896  0.4237  0.1071 -0.3122
25116W        W41250   1.661  14.068  13.721 -0.2132  0.1876 -0.0848
25117W        W41251   2.683  10.806  13.864 -0.4519  0.0681 -0.3076
25118W        W41252   5.105   3.232   0.448  0.1419  0.0974 -0.0687
25119W        W41253  13.896  16.510   1.588  0.0824 -0.2234  0.2786
25120W        W41254   8.124   7.278  13.419  0.2547 -0.0317  0.1416
25121W        W41255  16.618   9.476  11.822  0.1289 -0.0452  0.0861
25122W        W41256  18.245  10.670   3.311 -0.3168 -0.1120  0.0859
25123W        W41257   7.037   5.648   1.934  0.0502  0.1263 -0.2288
25124W        W41258  17.015   7.822   9.278 -0.1108 -0.2335 -0.0707
25125W        W41259   4.289  11.593  13.097 -0.0534  0.4400 -0.0142
25126W        W41260   9.082   3.836  12.085 -0.1183  0.0854  0.1049
25127W        W41261   7.515  11.846   4.584  0.2891 -0.1172  0.1968
25128W        W41262   8.192   2.101  11.445  0.1524 -0.1413 -0.0610
25129W        W41263  11.910  17.539   1.512  0.2543 -0.1098 -0.0277
25130W        W41264  10.252  11.858  11.228 -0.0943  0.1160 -0.0838
25131W        W41265   2.711  15.314  13.237 -0.1249 -0.2276 -0.3932
25132W        W41266   3.205   1.096  10.542  0.3174 -0.1635  0.1068
25133W        W41267  12.868   3.453  12.978  0.2210 -0.2722  0.1055
25134W        W41268   0.865   7.892   9.228 -0.3324 -0.1583 -0.0541
25135W        W41269   9.146   3.283  12.484  0.1784  0.0943  0.0292
25136W        W41270   8.993  12.460   4.993 -0.1979 -0.0809  0.4053
25137W        W41271   0.887  10.217  12.650  0.2961  0.2257  0.1526
25138W        W41272   4.671  10.165   3.792 -0.0909 -0.0704 -0.1670
25139W        W41273   6.796  15.040  14.031 -0.3341  0.0378  0.1843
25140W        W41274  11.306   5.170   4.545  0.0328  0.1127 -0.2482
25141W        W41275   0.067   3.197  13.320 -0.1206 -0.1441 -0.1155
25142W        W41276   7.843   6.268  14.971 -0.0199  0.2177 -0.1081
25143W        W41277  16.570  18.629   1.950  0.2623  0.4490  0.0365
25144W        W41278  15.972  15.426  11.121  0.1426 -0.2477  0.1471
25145W        W41279   5.973   9.600  12.539  0.0196  0.1669 -0.0293
25146W        W41280   0.852   5.113  11.388 -0.0426 -0.1458  0.1752
25147W        W41281  12.665  10.609   0.741  0.1160 -0.4647 -0.0435
25148W        W41282  13.653  11.294   9.984 -0.0092 -0.2548 -0.2957
25149W        W41283  17.767   9.481  12.717 -0.2473 -0.0184 -0.1969
25150W        W41284  12.002   7.944   3.298  0.3134  0.1191 -0.0427
25151W        W41285   7.555  13.690  10.690  0.1233 -0.2697  0.1961
25152W        W41286   2.338  15.362   3.257  0.1823  0.1846 -0.1615
25153W        W41287   0.783   5.104   2.706 -0.4535  0.2317  0.1159
25154W        W41288   7.900  11.905  13.014 -0.1537 -0.4110 -0.0900
25155W        W41289   4.723  15.686  12.766 -0.2469 -0.1718  0.1437
25156W        W41290  16.807   2.576   4.178 -0.3205  0.0984  0.0162
25157W        W41291   9.298   4.951   1.709 -0.1535  0.1029  0.3229
25158W        W41292   0.710   8.974  12.422  0.2679 -0.0334  0.2606
25159W        W41293   4.706   2.209  14.106 -0.1336 -0.1671 -0.1373
25160W        W41294   9.472   3.473  12.851  0.0845 -0.0980 -0.2301
25161W        W41295   7.540  12.532   1.190 -0.1112 -0.0469  0.1781
25162W        W41296   2.939   8.361  11.691 -0.1758  0.0215  0.1484
25163W        W41297   0.075   8.987   5.129  0.0483  0.0166  0.1645
25164W        W41298   5.899   9.278   5.010  0.0864  0.1622 -0.4344
25165W        W41299  13.398   7.437   2.889 -0.2436  0.0239  0.4130
25166W        W41300  18.152  15.515  10.969  0.0118  0.3841 -0.1680
25167W        W41301  12.034   7.321   4.095 -0.0279  0.1784 -0.1670
25168W        W41302   5.308  18.335   2.957 -0.0082  0.0266 -0.0975
25169W        W41303   7.738  16.861   3.321 -0.2801  0.1147  0.1358
25170W        W41304   1.476   3.668   0.116 -0.2495 -0.0641  0.1681
25171W        W41305  10.133  13.270  14.761  0.0475 -0.0754 -0.1131
25172W        W41306   8.589  10.962  14.774  0.1061  0.1685 -0.1505
25173W        W41307   9.903  16.822   2.965  0.0841 -0.1091  0.4018
25174W        W41308  13.961  14.891  12.989 -0.2236  0.0864 -0.2489
25175W        W41309  15.944   8.799   4.012  0.2058  0.1066  0.0746
25176W        W41310  14.112   6.442   2.176  0.1200  0.2458 -0.3162
25177W        W41311   7.459  13.105   2.574 -0.3474  0.3588  0.0611
25178W        W41312  17.956   9.414   0.656  0.2434 -0.0579 -0.0660
25179W        W41313  11.239   9.967  13.621  0.0962  0.1300  0.0673
25180W        W41314   0.386  14.123   1.111  0.0045  0.1926 -0.0481
25181W        W41315  16.794  15.531  14.607 -0.1763 -0.0698 -0.3978
25182W        W41316   4.913  11.885   0.702 -0.2643 -0.0205  0.0838
25183W        W41317  17.923  16.017   1.960 -0.2639  0.1156 -0.2663
25184W        W41318   1.367  19.222   2.139  0.0519  0.2680 -0.1563
25185W        W41319   7.774   9.378   0.370 -0.0193  0.0431 -0.1235
25186W        W41320   2.136  18.106   3.777 -0.0845  0.3187  0.0755
25187W        W41321   7.272  18.997   4.102 -0.0960  0.0406  0.2738
25188W        W41322  10.660   2.816   2.833  0.0155 -0.0458 -0.0213
25189W        W41323   6.378  10.836   3.478  0.0435 -0.1436 -0.1369
25190W        W41324  18.696  17.536   1.098  0.1346 -0.2786  0.2711
25191W        W41325   8.251  16.968   4.959 -0.2633 -0.1824 -0.0752
25192W        W41326  13.207   3.115   3.736  0.0494 -0.0971  0.1725
25193W        W41327   9.177  16.476  11.752 -0.3387  0.2480  0.1468
25194W        W41328   8.195  16.382   4.711 -0.1485  0.0105  0.0941
25195W        W41329   8.019   5.214   1.353 -0.2072  0.1606 -0.2111
25196W        W41330   2.057  12.514   4.383  0.1108 -0.1286  0.0548
25197W        W41331   2.621  13.955   1.818 -0.1239 -0.3096  0.0200
25198W        W41332   5.436   7.918   3.789 -0.0437 -0.0891 -0.1462
25199W        W41333  12.405   9.465   9.857 -0.1455 -0.1348 -0.0480
25200W        W41334  11.173  13.410  11.817  0.0323  0.3198 -0.3932
25201W        W41335   6.419   4.956  13.959 -0.5230 -0.0275  0.0906
25202W        W41336   7.096   4.713   4.742 -0.0073 -0.0605  0.1207
25203W        W41337   8.441   3.688   2.902  0.0930  0.4623 -0.2479
25204W        W41338  17.443   7.463   4.779  0.0318  0.0809 -0.0070
25205W        W41339   8.643   1.741  11.452 -0.3032  0.1795 -0.1293
25206W        W41340  16.950   5.237   5.475 -0.0236  0.0358  0.0110
25207W        W41341  11.094  13.891  12.207 -0.1110 -0.0056 -0.2081
25208W        W41342  12.036  14.219  13.207  0.2856  0.1650  0.0568
25209W        W41343  17.554  14.044  12.429  0.1570 -0.1966 -0.1391
25210W        W41344  14.433   7.357   3.800  0.2185  0.0621  0.2801
25211W        W41345  17.505   2.970   2.193 -0.3542  0.1376  0.0282
25212W        W41346   3.332   7.345   3.151  0.1986 -0.0299  0.1575
25213W        W41347   3.483   8.140   0.084 -0.3658  0.3437  0.0338
25214W        W41348  16.064   0.015   4.251 -0.2868  0.1519 -0.0895
25215W        W41349  14.166   8.890  10.894 -0.0279 -0.3158 -0.1156
25216W        W41350   2.076   7.156  11.950 -0.0291  0.0623 -0.0633
25217W        W41351  15.734  10.148  14.899 -0.0041  0.1008 -0.0441
25218W        W41352  17.284   6.344  10.640 -0.4114  0.0039  0.0786
25219W        W41353   5.074  16.232  14.678 -0.0111  0.0158  0.1908
25220W        W41354   8.509  13.908  11.317  0.0473 -0.0006  0.0114
25221W        W41355  12.730  14.275   0.259  0.3041 -0.2760  0.0420
25222W        W41356  18.518   6.748   4.112  0.0794  0.0171 -0.4312
25223W        W41357  10.089  18.785   0.169  0.0613 -0.0641 -0.0125
25224W        W41358   5.500  16.505  14.812  0.0143 -0.2616  0.0017
25225W        W41359  18.095  12.967   1.872 -0.1618  0.0305  0.0025
25226W        W41360   1.239  15.816  11.131  0.1404  0.3931  0.0302
25227W        W41361   1.877  15.856  13.082 -0.0128  0.0812 -0.0018
25228W        W41362   5.694   1.608   4.636 -0.5435 -0.0353  0.0461
25229W        W41363   3.345   5.320  13.281 -0.0903 -0.0670  0.3498
25230W        W41364  17.276   1.098  12.076 -0.0134 -0.0102  0.0391
25231W        W41365   4.034  15.395  14.199 -0.2533  0.1760  0.0460
25232W        W41366   3.008   4.225   3.875 -0.0209  0.0238  0.2556
25233W        W41367  11.516   0.119   0.541  0.3682 -0.1876  0.2470
25234W        W41368   1.031  12.486   1.981 -0.0472 -0.0867  0.2249
25235W        W41369  15.914  12.429   3.169  0.3129  0.3977  0.1334
25236W        W41370  16.389  13.826   4.346 -0.2204  0.1094  0.2523
25237W        W41371  11.285  14.916   1.440 -0.0415  0.0940 -0.1755
25238W        W41372  11.942   6.303   5.381  0.0022 -0.0230  0.3927
25239W        W41373  16.970   9.131  10.387  0.1597  0.3180  0.1794
25240W        W41374   5.323   0.385   1.894 -0.1062  0.1118  0.5433
25241W        W41375   0.084   7.616  14.815  0.0057 -0.0826 -0.0700
25242W        W41376  11.064   1.440   0.246 -0.0632  0.1949  0.4599
25243W        W41377  16.601  11.534   0.370  0.1816 -0.2825 -0.2127
25244W        W41378   1.539   6.089  10.127 -0.0678  0.1958 -0.0003
25245W        W41379   6.749   5.805   0.106 -0.1324  0.3953 -0.0185
25246W        W41380   5.409   7.701   0.629 -0.1714 -0.0433 -0.3234
25247W        W41381   0.570   3.550   2.124  0.0743  0.3434  0.3331
25248W        W41382   8.161   3.165   0.328 -0.2729  0.1949  0.2741
25249W        W41383  15.169   5.186  11.497  0.3988 -0.0536  0.3089
25250W        W41384   2.444   7.747  14.242 -0.0032  0.1462  0.1963
25251W        W41385  16.434  13.993   1.501 -0.0597  0.2105  0.0184
25252W        W41386  16.894   5.152   2.432  0.0914 -0.2367  0.0985
25253W        W41387   3.125   8.548   2.421 -0.3622  0.3173  0.1191
25254W        W41388  18.784   5.218   2.798  0.0481 -0.1513 -0.2151
25255W        W41389   7.293   9.384  13.164  0.2441  0.2217 -0.1040
25256W        W41390  10.451  18.884   9.611 -0.0385  0.1437 -0.2773
25257W        W41391  11.618  16.103  14.445  0.0585  0.2242  0.0856
25258W        W41392   2.244   6.208  13.053  0.0736 -0.2625  0.4074
25259W        W41393  13.305  13.097   4.506 -0.0762  0.1673  0.0846
25260W        W41394   4.984  16.723  14.675 -0.1017  0.0752  0.2795
25261W        W41395  18.838  12.110   2.432  0.2382 -0.1673  0.3370
25262W        W41396   1.718   7.465  12.193 -0.1015 -0.2519 -0.2865
25263W        W41397  19.101   7.463   2.460  0.0274  0.0278 -0.0438
25264W        W41398   5.633   9.679   5.291 -0.0291  0.1833 -0.2066
25265W        W41399   5.853  10.995  13.876 -0.1906 -0.2237  0.1693
25266W        W41400  19.193  19.322   2.082 -0.1057  0.0292  0.0704
25267W        W41401  14.650  10.463   2.881 -0.0155 -0.1465  0.1399
25268W        W41402   1.470  14.322   9.064  0.1116  0.1746  0.1072
25269W        W41403  11.040   0.814   1.822 -0.1198 -0.1157  0.2853
25270W        W41404   9.598   5.406   0.335  0.1879 -0.0859 -0.3143
25271W        W41405   3.259   1.072   1.598 -0.0839 -0.0118 -0.1359
25272W        W41406  14.521   9.292   0.606 -0.0795  0.1544 -0.1059
25273W        W41407  17.590   1.295  14.234 -0.1006 -0.2639  0.0804
25274W        W41408   0.159  11.915   2.918 -0.1947 -0.2277 -0.3455
25275W        W41409  11.457  17.424  13.988  0.0319 -0.0549 -0.1773
25276W        W41410   7.094  14.445  11.972  0.1372  0.2386 -0.2305
25277W        W41411   3.522   0.478   9.364 -0.0089  0.0925  0.1524
25278W        W41412   7.311   4.415   1.204 -0.3026  0.4332  0.4121
25279W        W41413   6.529  16.894   5.265  0.1831  0.1470 -0.2851
25280W        W41414   6.915  11.137   2.307  0.3432 -0.0975 -0.0237
25281W        W41415  14.211  18.658   1.431  0.0802 -0.1714  0.1369
25282W        W41416   0.112  15.186  11.968 -0.1320  0.2538 -0.0965
25283W        W41417  11.463  12.865   1.677 -0.0322  0.2763 -0.0002
25284W        W41418  14.394   5.853   1.451 -0.2220 -0.0492 -0.3363
25285W        W41419   1.862   4.964  14.288 -0.1707 -0.4378  0.0244
25286W        W41420  11.714  15.825   4.671  0.3319 -0.2628 -0.1459
25287W        W41421  12.780   2.315  12.168  0.2920  0.4408 -0.1163
25288W        W41422   4.036  15.376   3.319  0.0036 -0.1009  0.2258
25289W        W41423   2.168  17.663  13.209 -0.0116  0.4026 -0.0506
25290W        W41424   8.565  12.032   4.863  0.2496 -0.0555  0.0097
25291W        W41425  17.685  11.681  11.714 -0.1319  0.1112 -0.0926
25292W        W41426  12.028   9.613   2.049  0.0622 -0.0604  0.0862
25293W        W41427  10.800  18.347   0.909  0.2843 -0.0916 -0.2864
25294W        W41428   9.234  12.052   5.160  0.0207 -0.2387 -0.3096
25295W        W41429  12.303   9.147   0.724  0.0606  0.2778  0.2467
25296W        W41430  15.303  10.089  10.514 -0.1390 -0.3382  0.2261
25297W        W41431  18.241   3.548   4.926  0.5712  0.3560 -0.1184
25298W        W41432   4.225   7.764  12.146  0.2691  0.2006  0.0151
25299W        W41433   6.930  15.934   2.097  0.0663  0.4555  0.1870
25300W        W41434   6.368   1.899  12.635 -0.1310 -0.1729 -0.0263
25301W        W41435   1.885   7.257   4.686 -0.3192 -0.1860  0.0535
25302W        W41436  14.967   5.703   0.200  0.1902  0.2518  0.1278
25303W        W41437   2.487   9.774  15.004 -0.1296 -0.4245 -0.2365
25304W        W41438  17.195   6.108  11.065 -0.1601  0.1013  0.3972
25305W        W41439  16.386  11.081   3.702 -0.0417  0.0796 -0.0031
25306W        W41440   5.539  16.277   5.969  0.0542 -0.1111  0.2283
25307W        W41441   5.692   6.396  13.765  0.1601  0.1869 -0.0549
25308W        W41442  13.120   5.331  11.862  0.2120 -0.1981  0.1403
25309W        W41443   5.608   3.800  13.704 -0.2513 -0.4380  0.4476
25310W        W41444  15.615  19.250   0.205 -0.0343 -0.1684 -0.0944
25311W        W41445   4.067   1.569  14.600 -0.0481  0.1023 -0.1376
25312W        W41446  11.576   9.057  11.990 -0.3140 -0.0010  0.1140
25313W        W41447  11.053  13.625   0.611 -0.2203 -0.3062 -0.1792
25314W        W41448   3.421   6.901  12.406 -0.2190 -0.0064 -0.0179
25315W        W41449   1.726  14.287  11.195 -0.1387 -0.4062 -0.4696
25316W        W41450  19.308   2.336   0.005  0.0445  0.0119  0.0349
25317W        W41451   2.264  13.692   2.966  0.1751  0.1222 -0.3400
25318W        W41452   7.239   0.321  14.056  0.1115 -0.2362 -0.2166
25319W        W41453   6.128  13.554   0.527 -0.5110 -0.0336  0.0764
25320W        W41454   0.364   0.656   4.463  0.0060 -0.3788  0.1276
25321W        W41455  13.175   2.076  11.707  0.4893 -0.1294 -0.2394
25322W        W41456   7.716   8.564  13.498  0.1290  0.0077 -0.0170
25323W        W41457   4.749   1.277   2.418 -0.1418  0.0632  0.0972
25324W        W41458   4.333  15.026   3.602  0.0607  0.3868  0.2667
25325W        W41459  16.170  12.655  14.598  0.0129  0.2876  0.0527
25326W        W41460   8.431  17.342  13.827  0.2366  0.1182 -0.1446
25327W        W41461  14.640   0.637  10.384  0.1715  0.1333 -0.3354
25328W        W41462   3.141  11.704  14.263  0.0432 -0.0372  0.2672
25329W        W41463   1.979  15.983   0.828  0.0399  0.2357 -0.1087
25330W        W41464  13.075   6.614  14.742  0.0565 -0.1978 -0.1138
25331W        W41465  18.325   0.928  10.338 -0.3925  0.1583 -0.0289
25332W        W41466   4.751   9.002  13.932 -0.0015 -0.0820 -0.1252
25333W        W41467   5.800  13.674  13.647 -0.1727  0.2392  0.0701
25334W        W41468  11.358   6.242  12.573  0.1418  0.2711  0.0907
25335W        W41469   0.611  15.258   4.851  0.2134  0.0975 -0.5043
25336W        W41470   9.443  15.923   3.980 -0.2877 -0.2755 -0.0782
25337W        W41471   7.108  18.235   0.666  0.0142  0.0432 -0.1447
25338W        W41472   6.118   3.896   2.300  0.0782  0.1608 -0.1834
25339W        W41473   3.397   0.540  11.608  0.0198 -0.0427 -0.1036
25340W        W41474   5.965  14.586  11.685 -0.2543  0.0408 -0.0631
25341W        W41475   2.091   9.990   0.387  0.2587  0.2666 -0.2073
25342W        W41476   1.666  12.845   1.395  0.0491  0.0747 -0.0386
25343W        W41477   8.725  18.849   5.868  0.2059  0.2510 -0.0868
25344W        W41478   8.867  15.286  10.928 -0.2237  0.0235  0.1827
25345W        W41479  18.410   1.885   2.225  0.1437 -0.1478 -0.1059
25346W        W41480   1.493   7.850  10.309 -0.0330 -0.1227  0.0712
25347W        W41481   8.821   5.789   2.100  0.1937 -0.1629  0.4858
25348W        W41482   5.858   9.111  13.281  0.1574  0.1333  0.2501
25349W        W41483   7.590   3.115  13.622 -0.1204  0.0516 -0.1345
25350W        W41484   2.996  14.575   2.145  0.1204 -0.1062  0.3800
25351W        W41485  17.755  10.655   2.909 -0.0468 -0.2331  0.1443
25352W        W41486   9.772  10.541  13.840 -0.0778  0.1932 -0.1227
25353W        W41487   0.362   2.991  11.252  0.0664  0.3339  0.5444
25354W        W41488  17.614  13.041  12.305  0.4046 -0.0286  0.0820
25355W        W41489   5.142  17.371   3.057 -0.1192 -0.1263  0.1825
25356W        W41490  16.446   9.504   1.961 -0.2846 -0.1159 -0.2326
25357W        W41491  11.603   2.241   4.301  0.0765  0.0196 -0.0610
25358W        W41492   6.517   2.475   2.345  0.1316 -0.1587  0.2894
25359W        W41493  10.546  10.951   1.061 -0.2576 -0.1364 -0.0336
25360W        W41494  11.098   4.194   1.209 -0.0722 -0.0005  0.1187
25361W        W41495  16.719  15.142   1.748  0.1466  0.3184 -0.1513
25362W        W41496  13.643   1.825  12.085  0.1899 -0.0301 -0.0020
25363W        W41497   2.500  10.905   1.601  0.0446 -0.0502 -0.1274
25364W        W41498  15.855  16.863  13.685  0.0863  0.4053 -0.1636
25365W        W41499   7.808   2.762   3.923 -0.0174 -0.1603 -0.1569
25366W        W41500   0.869  10.130  13.476  0.1938 -0.0460 -0.0596
25367W        W41501  12.744  16.485  11.905  0.1916 -0.0012 -0.1757
25368W        W41502   5.149   0.097  13.743  0.2117  0.1546  0.1615
25369W        W41503  18.231  10.374  14.583  0.2057 -0.0588 -0.3101
25370W        W41504  15.835  17.083   3.685 -0.0213  0.3011  0.1370
25371W        W41505  12.540  17.021  13.142  0.2697 -0.2316  0.1019
25372W        W41506  11.047   6.261   3.561 -0.0165  0.1392  0.0472
25373W        W41507   5.208   7.625   5.491 -0.0202  0.1089 -0.1479
25374W        W41508   9.243   6.133  11.427 -0.0256 -0.1179  0.0264
25375W        W41509   7.799  15.676  12.804 -0.0617  0.1393 -0.1771
25376W        W41510   2.347   2.276   3.663 -0.0723 -0.0958 -0.0554
25377W        W41511  14.901  18.568  12.309 -0.0265  0.1581  0.5038
25378W        W41512  17.452  15.361   2.767  0.2927  0.1362  0.1610
25379W        W41513   3.982  10.857   0.059  0.1570 -0.0621  0.0048
25380W        W41514   9.529  15.820   2.679 -0.0994  0.0572 -0.1064
25381W        W41515  14.137  17.482  14.164  0.0320 -0.0712 -0.1318
25382W        W41516  10.156  13.275   3.889 -0.1956  0.0171  0.1845
25383W        W41517  14.236   2.895  13.531  0.0861 -0.1618  0.0411
25384W        W41518   0.239   9.107   0.586 -0.1897  0.1186 -0.1245
25385W        W41519   9.923  14.267   4.143 -0.1496  0.2099  0.0110
25386W        W41520  16.056  16.316   2.581  0.0630 -0.1572 -0.1780
25387W        W41521   9.164   7.055  12.599 -0.0464 -0.0149 -0.0112
25388W        W41522  11.741   5.180   0.367  0.2498  0.1183  0.0037
25389W        W41523   4.405  18.373   1.101 -0.2178  0.2179  0.0774
25390W        W41524   3.872   6.439   3.196 -0.3081  0.0822 -0.0959
25391W        W41525  14.586   4.984   2.897  0.0495  0.3691 -0.0500
25392W        W41526   2.269   1.678   4.166 -0.1368  0.0032 -0.0908
25393W        W41527   2.004   1.287   1.869 -0.0196 -0.2340 -0.2216
25394W        W41528   2.993  14.033  12.882  0.3338 -0.2278 -0.0360
25395W        W41529   6.006  11.764  10.666  0.2466  0.1182  0.1473
25396W        W41530   2.007  13.740   4.011 -0.4827  0.1900 -0.0730
25397W        W41531  10.669  10.709  12.569  0.1399  0.2177  0.0710
25398W        W41532  12.758   9.151  14.907 -0.3047  0.5597  0.1262
25399W        W41533  10.699   3.762   2.507 -0.0093 -0.0549 -0.1822
25400W        W41534  15.731   5.288  12.794  0.1710 -0.1032 -0.2639
25401W        W41535   7.593   7.028   1.894  0.0194 -0.0342 -0.3507
25402W        W41536  17.016  11.959  14.870 -0.0520 -0.2073  0.0568
25403W        W41537  10.742   8.679  14.478 -0.3491  0.1017 -0.2565
25404W        W41538   2.040   1.999   4.595 -0.3195  0.0710  0.0024
25405W        W41539  14.537   6.930   1.532  0.0461  0.1537 -0.0713
25406W        W41540  14.548   8.026   5.494 -0.0378  0.2889 -0.0194
25407W        W41541   9.852  14.154  11.297 -0.2947 -0.2997 -0.1677
25408W        W41542  10.909   8.835  12.832  0.0359 -0.0244 -0.0638
25409W        W41543   2.683   9.352  13.501  0.0029 -0.0285  0.0107
25410W        W41544  13.270   0.532  11.583  0.1828  0.3933  0.1716
25411W        W41545   8.065   0.329   0.230  0.0494  0.0934  0.1852
25412W        W41546   0.013  16.351  11.144 -0.4487  0.1230  0.0222
25413W        W41547  18.898   9.995  13.446 -0.1438  0.0975  0.0645
25414W        W41548  13.627  15.487  11.639  0.0895  0.1854  0.3114
25415W        W41549   3.266  15.765  12.698  0.5589 -0.1716 -0.0437
25416W        W41550  11.856   9.514  14.964 -0.1212  0.0989  0.0346
25417W        W41551   4.158   4.037  13.897  0.0107  0.0975  0.2620
25418W        W41552  10.979  17.538   1.443  0.3926 -0.0406  0.0299
25419W        W41553   4.985   7.476  11.202 -0.1461 -0.2482 -0.1001
25420W        W41554  14.382  11.463   1.403 -0.0594 -0.6524  0.1310
25421W        W41555  12.543  12.816   4.749  0.3151  0.2475 -0.0770
25422W        W41556   1.719  19.212   9.460 -0.0018 -0.0893 -0.1810
25423W        W41557  10.782  13.521  12.087  0.1874  0.2830 -0.4270
25424W        W41558   3.789  16.128   1.215  0.1778  0.1410  0.0485
25425W        W41559  12.184   5.331   0.526 -0.3337  0.3864  0.2382
25426W        W41560   0.461  15.093   3.077  0.3194 -0.4023  0.1743
25427W        W41561  17.026  14.465   2.782 -0.0829  0.4088  0.1155
25428W        W41562   4.113   1.972   2.303 -0.2620 -0.4898 -0.2908
25429W        W41563  12.017  16.883  13.907  0.1034  0.0656 -0.1415
25430W        W41564  10.984   0.826   3.380  0.4391  0.3542  0.0759
25431W        W41565   3.499  18.038   0.756  0.1650  0.0940  0.1760
25432W        W41566   3.994   9.960   4.723  0.0619  0.2151 -0.0787
25433W        W41567   5.892   3.575  12.928  0.2381  0.2633  0.0397
25434W        W41568   0.736   2.056   2.150  0.1697 -0.2078 -0.2713
25435W        W41569  12.191   2.074  11.941  0.0217 -0.3172  0.0086
25436W        W41570  13.172  15.066  14.846  0.1793  0.1418 -0.0232
25437W        W41571   7.829   2.727  12.297  0.1871 -0.1259  0.1280
25438W        W41572  14.088   7.810   4.766  0.0176  0.1847  0.1438
25439W        W41573   1.597   5.118  13.866  0.2687 -0.1490 -0.0858
25440W        W41574   2.671   8.387  10.797  0.4788 -0.0456  0.3012
25441W        W41575  13.861   2.671   1.578  0.1212 -0.1616  0.0195
25442W        W41576   0.084  12.250   3.372 -0.0938 -0.0348  0.0931
25443W        W41577  12.569  18.835   4.816  0.0281  0.1549 -0.2230
25444W        W41578  12.782  12.036  10.898 -0.0028 -0.2934  0.0603
25445W        W41579  10.610   2.041   4.378 -0.0008 -0.1694  0.1045
25446W        W41580   7.755   6.603  12.831 -0.2345 -0.2468  0.0149
25447W        W41581  11.197   0.762  13.214 -0.1979 -0.1825  0.0356
25448W        W41582  16.430   3.614   0.692  0.1171  0.2051 -0.1098
25449W        W41583   1.490  11.424  11.740  0.1852  0.3204  0.2871
25450W        W41584  15.560   4.120  12.175 -0.0197 -0.2344  0.0613
25451W        W41585  15.838  14.861  13.607 -0.3904 -0.1624  0.0511
25452W        W41586   2.918   1.943   4.226  0.0106 -0.1035  0.0670
25453W        W41587  11.057  12.063  13.983 -0.1231 -0.2314  0.5927
25454W        W41588  17.536  13.290  11.222 -0.2394  0.1877 -0.0327
25455W        W41589  12.855  18.783   0.049 -0.0035  0.3738 -0.1711
25456W        W41590   8.248  10.805   5.009  0.2407 -0.0564  0.1674
25457W        W41591   9.077   9.456  13.315 -0.0907 -0.1208 -0.3031
25458W        W41592   8.442  15.978  14.994 -0.0367  0.0484 -0.0833
25459W        W41593  19.050  13.479   1.503 -0.0153  0.5134  0.1436
25460W        W41594   6.676  17.093   3.559 -0.0795  0.0002 -0.1509
25461W        W41595  11.049   4.567   2.624  0.1521 -0.1069 -0.0810
25462W        W41596   0.449   5.656  14.327 -0.0607 -0.0625 -0.2600
25463W        W41597   3.426  11.928   0.975 -0.3585 -0.0529 -0.0467
25464W        W41598  13.857   8.501  12.943 -0.1017  0.2294 -0.0618
25465W        W41599   6.739  13.678   2.889  0.0876  0.1121  0.1197
25466W        W41600   8.857  19.306  14.906  0.2319 -0.0634 -0.2199
25467W        W41601   2.782  14.409  12.304  0.1161  0.0129 -0.0604
25468W        W41602   3.711  14.073  14.581  0.2174  0.0078 -0.1087
25469W        W41603  17.935  14.739   2.281 -0.0008 -0.0239  0.0119
25470W        W41604  18.893   6.117  11.374  0.3639  0.1042 -0.0901
25471W        W41605   7.515  18.090  11.525 -0.3001  0.3931 -0.2719
25472W        W41606  15.533  10.976  12.725 -0.0230 -0.0287 -0.0411
25473W        W41607   6.859   3.421  11.403 -0.4484  0.1907 -0.0570
25474W        W41608   0.163  19.150  13.301 -0.0859 -0.1979  0.0365
25475W        W41609  16.286   6.426  10.337 -0.4562  0.3513  0.2066
25476W        W41610  14.722  17.063  11.133 -0.1217 -0.1613  0.0998
25477W        W41611   3.526  15.312   1.590  0.0742 -0.0322 -0.2133
25478W        W41612   9.953   7.329   2.695  0.1193  0.3878  0.2419
25479W        W41613   9.675  12.057  11.463 -0.0221 -0.0412  0.1438
25480W        W41614   0.310   8.502   1.460  0.0123 -0.3733  0.0278
25481W        W41615   4.470   7.043   2.719 -0.0121  0.2421 -0.1743
25482W        W41616   4.350   6.062  14.139 -0.1318  0.1350  0.1697
25483W        W41617   1.401   9.874  10.749 -0.1769 -0.0974  0.2440
25484W        W41618   6.662   6.723   2.122  0.3261 -0.1481 -0.1708
25485W        W41619   1.801  18.602  14.252  0.3467 -0.0043 -0.0117
25486W        W41620  10.592   1.133   3.533  0.2369 -0.1461  0.1844
25487W        W41621  12.989  15.025  10.509  0.0588 -0.0017 -0.1862
25488W        W41622   3.649  17.710   9.867 -0.0207  0.0762  0.0822
25489W        W41623  11.208   9.121  13.696 -0.0215  0.2908  0.0970
25490W        W41624   5.733  15.229   2.835 -0.2427 -0.0290 -0.1231
25491W        W41625   5.311  12.652  11.682  0.1163  0.0909 -0.1486
25492W        W41626  16.210   2.206  11.828  0.6170 -0.0413 -0.2418
25493W        W41627  17.548  14.868  13.336 -0.1859 -0.0591 -0.1895
25494W        W41628   9.720  11.775   5.279 -0.0250 -0.0128  0.2358
25495W        W41629   4.169   5.379  13.127 -0.1792  0.3056  0.1952
25496W        W41630   2.507   3.732   3.256  0.1195  0.1752 -0.0267
25497W        W41631   9.651  19.160  12.502 -0.3409 -0.0662  0.1263
25498W        W41632   4.932  14.921  13.070  0.4028  0.0698  0.0334
25499W        W41633  14.344   5.054  12.737  0.0671  0.2863  0.0303
25500W        W41634  18.167   9.260  10.541 -0.2913  0.3294 -0.2903
25501W        W41635  14.785  13.412  13.360  0.2340 -0.0523 -0.1827
25502W        W41636   9.464  12.725   3.373  0.0148  0.3489  0.1538
25503W        W41637   2.243  12.905   2.675  0.3010  0.0765  0.4002
25504W        W41638  13.015  12.604   0.557 -0.0269  0.0051  0.1207
25505W        W41639  13.158  11.188   0.184 -0.2943 -0.3251 -0.2260
25506W        W41640  16.936  13.417  10.438 -0.0977 -0.2879  0.0653
25507W        W41641   4.906  18.378   0.909 -0.0680 -0.2318  0.1011
25508W        W41642   3.418   3.626   0.057 -0.2546  0.2348 -0.3445
25509W        W41643   0.965  12.536  12.376 -0.1417 -0.1768 -0.2219
25510W        W41644   3.069  17.122  10.571  0.1552 -0.1513  0.0989
25511W        W41645  14.387   6.447  10.668 -0.0513 -0.1038 -0.0782
25512W        W41646  16.898  17.086  11.510  0.2502  0.2628 -0.1806
25513W        W41647   2.518   3.226   0.909  0.0955 -0.2672  0.1716
25514W        W41648  17.111  17.432   0.817 -0.0807 -0.0859  0.3371
25515W        W41649   0.804   3.444   3.292 -0.0114  0.0465 -0.1678
25516W        W41650   5.082  12.366   3.198  0.4036 -0.0245 -0.1941
25517W        W41651  17.095   3.159  10.569 -0.0725  0.2622 -0.2024
25518W        W41652  15.169  18.426   4.635 -0.1073  0.1828  0.1644
25519W        W41653  15.327  15.326   2.260 -0.1950  0.1146 -0.1089
25520W        W41654   5.592   6.084   0.739 -0.2539  0.0431 -0.3697
25521W        W41655   1.336  18.660  12.904 -0.0089 -0.0013  0.1362
25522W        W41656   5.756   1.250   3.111 -0.3654 -0.0264  0.3116
25523W        W41657  12.180   0.154   1.732 -0.1709 -0.1337 -0.2173
25524W        W41658   7.837  16.651  12.359 -0.0693 -0.4352  0.2657
25525W        W41659   4.068   6.378  10.924  0.0999  0.1304  0.3720
25526W        W41660  10.948  18.113   9.762  0.3635 -0.0937  0.2467
25527W        W41661  19.038   8.692  13.322  0.0508  0.1502  0.0205
25528W        W41662  18.293   9.477  14.053  0.1202  0.2440 -0.0347
25529W        W41663  17.309  14.990   0.752 -0.1637  0.2457  0.2185
25530W        W41664  10.136   2.963  11.979  0.0657  0.1103 -0.0668
25531W        W41665  11.973   3.786   3.581  0.1338 -0.1647 -0.3060
25532W        W41666   3.232  18.750   1.256  0.0213  0.1381 -0.0418
25533W        W41667   6.305   5.727   3.979 -0.3634  0.2866  0.0453
25534W        W41668  13.487   9.890  14.135 -0.0497  0.2119 -0.1552
25535W        W41669   0.006   0.305   1.120 -0.2130 -0.4306  0.2543
25536W        W41670   4.698  19.317   2.567  0.1325  0.0701  0.0396
25537W        W41671   5.023  18.570  14.159  0.3234  0.1001 -0.1902
25538W        W41672   6.660  11.573   2.591 -0.0579 -0.2511 -0.0222
25539W        W41673   6.363  18.874   1.056  0.1513  0.0567  0.2359
25540W        W41674   7.833   9.260   2.971 -0.0914  0.1229  0.0040
25541W        W41675  15.539  14.353  13.425 -0.0032 -0.3450 -0.0980
25542W        W41676   3.653  14.920  13.558 -0.4607  0.1226 -0.0772
25543W        W41677  16.304  16.235   0.992 -0.0314 -0.1642 -0.1846
25544W        W41678   0.103   5.420  13.434 -0.4300  0.1636  0.0825
25545W        W41679   6.040   8.925  10.161 -0.0263 -0.2270  0.1414
25546W        W41680   9.570   7.165   9.630  0.1881  0.1539 -0.2132
25547W        W41681  11.367  16.269  13.420 -0.1475 -0.1519  0.2152
25548W        W41682   4.402  19.240   2.211 -0.1367 -0.3160  0.1195
25549W        W41683   1.123   9.342   4.261  0.0319 -0.1940 -0.0024
25550W        W41684   5.622  15.316   0.915 -0.1874 -0.1961  0.3288
25551W        W41685  13.660   2.675   4.521  0.0893  0.1643  0.1414
25552W        W41686  12.878   1.175  14.375 -0.0529 -0.1735  0.2141
25553W        W41687  18.168   1.801   0.622 -0.0500  0.2224 -0.2836
25554W        W41688  14.187  10.623  14.095 -0.0845  0.0537 -0.1184
25555W        W41689  16.617   8.216   2.611  0.0183 -0.2198 -0.0825
25556W        W41690   4.687  12.326  13.233 -0.4538  0.4235 -0.2419
25557W        W41691   6.192  11.642   2.405  0.4870 -0.1827  0.2087
25558W        W41692   5.040  18.069   2.202  0.0058 -0.0554 -0.0944
25559W        W41693  11.262  12.058  14.757  0.1496 -0.0555  0.3069
25560W        W41694   0.179  14.181   2.947  0.3209  0.4635 -0.1255
25561W        W41695  13.215   9.049  12.592 -0.0540 -0.1086  0.3624
25562W        W41696   3.640   0.984  12.363 -0.1724 -0.1291 -0.0431
25563W        W41697  16.223   4.263  11.166  0.0556 -0.0643 -0.1326
25564W        W41698   9.818   2.545   2.786 -0.1380 -0.0065  0.1928
25565W        W41699  18.496  16.201  11.782  0.0960 -0.0448  0.0637
25566W        W41700   6.679  16.848   3.168  0.0532  0.0486 -0.0337
25567W        W41701   3.001   6.992   1.294  0.0798 -0.4302 -0.0785
25568W        W41702  12.941   5.142  13.966  0.1728 -0.2570  0.2073
25569W        W41703   3.913  12.931   0.224  0.1946  0.0208 -0.0625
25570W        W41704  18.878   7.942  12.829  0.2977  0.1786 -0.0517
25571W        W41705  13.727  14.042  10.569 -0.3194  0.0760  0.0302
25572W        W41706  18.220   1.033  10.870  0.0966  0.1813  0.2295
25573W        W41707  15.464  15.878   0.994 -0.0575  0.3189  0.2498
25574W        W41708   8.514  13.402  12.335  0.0172 -0.4473 -0.2558
25575W        W41709  17.661  12.805  13.476 -0.2653  0.1950 -0.0717
25576W        W41710  15.419  14.825   4.248  0.0407  0.1455  0.0533
25577W        W41711   7.662  17.589  11.466  0.1432 -0.1574  0.0560
25578W        W41712   3.704  14.035  11.236  0.1120  0.2340 -0.3995
25579W        W41713   4.746   8.010  12.494  0.2709  0.1420  0.0659
25580W        W41714  13.656  11.353  13.587  0.0965  0.0804 -0.1383
25581W        W41715   9.265  10.922   1.281  0.1461 -0.1952 -0.2474
25582W        W41716   0.890  11.587   1.359 -0.0756 -0.3134  0.2560
25583W        W41717   3.114  11.921   2.756 -0.1047 -0.0125 -0.1646
25584W        W41718  10.597  11.933   4.465  0.0314 -0.0401 -0.1184
25585W        W41719  18.592   5.738  10.427  0.2027 -0.1342  0.1713
25586W        W41720   7.091   4.967   3.715 -0.0786 -0.2244 -0.1619
25587W        W41721   6.410   1.954   3.579 -0.0997 -0.0872 -0.1492
25588W        W41722   1.958  11.652   2.531  0.0014 -0.0138 -0.0955
25589W        W41723   3.957  11.656  10.861  0.2437 -0.3362  0.2683
25590W        W41724   5.640  17.596   3.386 -0.0616  0.1149  0.3203
25591W        W41725   1.343   6.248   5.726  0.1968  0.0447 -0.3864
25592W        W41726   7.324  19.327  10.437  0.3959 -0.1424  0.1349
25593W        W41727  12.537  10.280   2.153  0.1684  0.1011  0.0393
25594W        W41728   6.048  18.409  13.566  0.0137  0.1860  0.1989
25595W        W41729   7.172   0.492  10.727 -0.0811  0.1785 -0.1319
25596W        W41730   8.832   3.944   0.870 -0.3949 -0.3782  0.0894
25597W        W41731   7.521  17.379  14.734 -0.0389 -0.0800 -0.0236
25598W        W41732   0.586   3.799  12.504  0.0779 -0.3016  0.1806
25599W        W41733   9.343   6.505  13.910 -0.2777 -0.1288  0.1729
25600W        W41734  18.721   2.627   2.165  0.0345  0.2934 -0.0723
25601W        W41735  17.408   4.762  13.032  0.0136  0.1559  0.2485
25602W        W41736   0.778  15.726   1.971 -0.0051  0.0432  0.2735
25603W        W41737  11.222   4.537   3.687 -0.0134 -0.2078  0.2217
25604W        W41738   6.363  13.272   2.196  0.2455  0.2834  0.3984
25605W        W41739   8.558  13.385  11.331  0.3270  0.0973  0.3306
25606W        W41740  13.834  13.393   0.974  0.2064  0.1488  0.6299
25607W        W41741   0.548   0.307  12.660 -0.3960 -0.2221 -0.1035
25608W        W41742  13.902  10.381  14.668 -0.1981 -0.1966  0.0501
25609W        W41743   6.649  11.063   2.791  0.0670  0.0412  0.1466
25610W        W41744  13.306  11.629   0.611  0.1649  0.1731  0.4860
25611W        W41745   6.950  12.485  14.916 -0.0224  0.3073 -0.0925
25612W        W41746  16.434  15.814   2.517 -0.0952  0.0472  0.2882
25613W        W41747  16.839   7.889   4.211 -0.0985  0.0140 -0.2189
25614W        W41748  17.366  15.475   0.608  0.0123  0.0387 -0.1392
25615W        W41749  15.357  13.604   4.923 -0.2255  0.2003 -0.2737
25616W        W41750  16.175   1.411  14.802  0.0324  0.0469 -0.0355
25617W        W41751  13.385   1.500   2.305 -0.2532  0.0244  0.0459
25618W        W41752   7.828   8.566   5.825  0.1935  0.0890  0.2260
25619W        W41753   4.134   2.146   4.634  0.2101  0.1059 -0.0751
25620W        W41754  15.861   0.066   2.739  0.0506  0.0667  0.1410
25621W        W41755   1.128  18.068  11.263  0.1403 -0.0360  0.1898
25622W        W41756   7.466  12.268  12.975  0.2874 -0.1327  0.1576
25623W        W41757  17.872   5.895   0.109 -0.3000 -0.2779  0.0058
25624W        W41758  11.080  17.169   3.624  0.0100 -0.2010  0.1384
25625W        W41759  11.899   5.413  13.180  0.2394  0.2250 -0.0061
25626W        W41760  18.496   6.832   2.249 -0.1084 -0.1833 -0.0063
25627W        W41761   0.509  11.660  13.564  0.1828  0.1789 -0.0643
25628W        W41762  11.504  16.499   2.354  0.0849 -0.2233  0.3053
25629W        W41763   7.200   4.873   0.985 -0.1217 -0.1433  0.0777
25630W        W41764   2.330   8.649  12.907 -0.2050  0.5222  0.1789
25631W        W41765   3.627   3.987  12.393 -0.1580 -0.0578 -0.1956
25632W        W41766   5.518  10.485  12.033 -0.2088 -0.2924 -0.1701
25633W        W41767   9.288  18.125   2.555  0.1688 -0.0191 -0.0708
25634W        W41768   8.766  11.871   5.670 -0.5019 -0.0863  0.3203
25635W        W41769  13.075  14.039   1.552  0.2130 -0.3587  0.0649
25636W        W41770  10.692  14.287   9.453  0.0107 -0.0718  0.0402
25637W        W41771  18.060   1.214   9.124 -0.0918  0.0578 -0.1730
25638W        W41772  13.110  12.995   0.249 -0.0533 -0.3046 -0.0701
25639W        W41773  18.995  16.972  11.380  0.0208 -0.2792  0.3052
25640W        W41774   6.896   8.949  10.690  0.2486  0.1649 -0.2296
25641W        W41775  18.833   5.408   9.566  0.1213 -0.1453  0.0774
25642W        W41776   5.100  13.736   0.896  0.1134  0.1977 -0.0537
25643W        W41777  15.925  11.443   2.806  0.2445 -0.1237 -0.0536
25644W        W41778   7.009  11.879  14.214  0.0844  0.0800  0.3124
25645W        W41779   1.941  12.236  14.383 -0.1383  0.2756 -0.0012
25646W        W41780  17.834  10.852   4.890 -0.3517 -0.2341  0.1610
25647W        W41781   3.345   5.618  11.836  0.1634  0.1590 -0.1400
25648W        W41782   6.439   4.277   2.242  0.2530 -0.2707  0.0285
25649W        W41783   8.291   4.292   1.057 -0.0603  0.2151  0.0825
25650W        W41784  13.117   3.599  11.713 -0.3138  0.3161  0.1654
25651W        W41785  10.190   4.839   0.665 -0.0155 -0.0735 -0.3946
25652W        W41786   1.350   5.589   0.101 -0.2378  0.0119  0.0842
25653W        W41787  18.996  10.827  11.629  0.1101  0.1268 -0.1722
25654W        W41788   3.098  14.081   1.863  0.0381 -0.0313  0.2082
25655W        W41789  18.745   5.771   1.558  0.3325  0.0010  0.1837
25656W        W41790  14.989   9.773   4.311  0.2112  0.1192  0.2223
25657W        W41791  14.229   6.852   3.920 -0.1222 -0.0021 -0.0240
25658W        W41792   1.884   9.634  11.970  0.1476 -0.5230 -0.0228
25659W        W41793   0.964   9.094  14.668  0.0121  0.1870  0.2472
25660W        W41794   3.426  12.580  14.359 -0.3582 -0.1873 -0.2664
25661W        W41795   7.722  11.921  13.687 -0.0824 -0.0395 -0.1797
25662W        W41796   8.358   7.959  10.959  0.2737  0.3906 -0.0497
25663W        W41797  12.134   0.551   5.100  0.2265  0.1022 -0.0086
25664W        W41798  17.497   9.049  14.130  0.1208  0.0668 -0.4170
25665W        W41799   1.112   4.117   9.525  0.0053 -0.0602  0.0570
25666W        W41800   8.073   6.839   4.661  0.0119 -0.1028  0.2786
25667W        W41801   5.080   3.701  11.793 -0.2949 -0.2767 -0.1567
25668W        W41802  13.499  16.048   2.239  0.0466 -0.1105  0.1065
25669W        W41803   9.026  18.699   4.500  0.2417 -0.0656  0.0811
25670W        W41804  15.708  11.553   0.176 -0.1424  0.2142  0.2307
25671W        W41805   5.361   8.159  14.781 -0.0174 -0.2147  0.0047
25672W        W41806   1.265   5.690  10.054  0.0405  0.1564  0.0369
25673W        W41807   1.405   0.270   3.467  0.0963 -0.2335 -0.1811
25674W        W41808   3.781   1.273  11.483  0.1338  0.0293  0.2340
25675W        W41809   3.520  15.513   3.983 -0.1912  0.2893  0.1514
25676W        W41810  17.873   3.651   0.342  0.0815  0.0992 -0.4251
25677W        W41811  14.362   2.852  13.006 -0.0409 -0.0372 -0.0427
25678W        W41812   6.440   2.774   1.562 -0.0255 -0.0659  0.1027
25679W        W41813  13.362   7.425   1.095 -0.2902 -0.3479  0.0590
25680W        W41814   8.276   7.717  12.271 -0.0751 -0.0289  0.2966
25681W        W41815   6.539  12.336   1.727 -0.0538 -0.1297 -0.1016
25682W        W41816   2.613  11.694  12.085  0.2080  0.0994 -0.4450
25683W        W41817  15.475  12.994   1.929  0.0428 -0.0939 -0.0151
25684W        W41818  16.050  10.700  10.407 -0.0035  0.2946  0.1002
25685W        W41819   5.256   6.336   1.555  0.0980 -0.2244 -0.1210
25686W        W41820   7.567  14.254  12.237 -0.1618  0.0162  0.2413
25687W        W41821  18.959  12.827  12.422  0.0153  0.1592  0.5725
25688W        W41822  15.564  19.207  13.272  0.2161  0.1630 -0.1289
25689W        W41823  17.622   0.229   3.444  0.0747  0.0592  0.1031
25690W        W41824  10.420   9.655   9.308  0.1088  0.1396 -0.0298
25691W        W41825  18.160  17.164   1.885  0.1150  0.3579 -0.0537
25692W        W41826   7.700  16.085  10.565  0.2165  0.1205 -0.1053
25693W        W41827   8.718  15.576   0.985  0.1588 -0.0125  0.1976
25694W        W41828   8.376  10.254   2.980 -0.0587  0.0318 -0.2006
25695W        W41829   9.010  11.951   4.723 -0.1295 -0.0833 -0.0329
25696W        W41830   7.461   6.233  13.503  0.1034  0.2613 -0.1226
25697W        W41831   1.252  11.731  14.394 -0.0715  0.0717  0.2517
25698W        W41832   3.336  12.196   1.979  0.0975  0.0309 -0.0950
25699W        W41833   9.023   3.418   4.012  0.0104 -0.3343 -0.0344
25700W        W41834   7.365   1.356   3.904  0.0597  0.2249  0.1377
25701W        W41835   1.738  18.985  12.967 -0.0497  0.1716 -0.0192
25702W        W41836   2.899   3.434   1.261 -0.0153  0.1107  0.0952
25703W        W41837  13.529   2.197   1.563  0.1621  0.1040 -0.6707
25704W        W41838  11.672  10.626   2.939 -0.1446 -0.2881  0.0481
25705W        W41839   8.528   6.456  12.686 -0.0514  0.1133 -0.0789
25706W        W41840   6.837   9.817   4.256  0.0032  0.0905  0.2566
25707W        W41841  14.364  10.888   0.549 -0.0891  0.0779  0.2413
25708W        W41842   3.533   2.770   4.232 -0.0939  0.1097 -0.2334
25709W        W41843   4.882  11.590   4.306  0.2509  0.1457  0.0849
25710W        W41844   9.450  12.659   1.057  0.3417  0.6055  0.2973
25711W        W41845   1.250  10.615   5.935  0.1830  0.3973  0.1705
25712W        W41846   8.642  18.576   0.678 -0.1522 -0.0311 -0.0050
25713W        W41847  12.676  13.516  11.146  0.5183 -0.0147 -0.0034
25714W        W41848   3.012   1.913  14.493 -0.3615 -0.0951 -0.0981
25715W        W41849  17.471   6.733  11.937 -0.0517  0.1830  0.3518
25716W        W41850   3.223  19.335   1.827  0.1074  0.0354 -0.1408
25717W        W41851  17.531   9.186   5.451  0.0104 -0.1323 -0.3240
25718W        W41852   8.601   4.838  14.089 -0.0390  0.2391  0.0206
25719W        W41853   1.892   4.288  11.271 -0.1280  0.3188  0.2394
25720W        W41854   9.621  17.234   2.976  0.1280  0.1115 -0.0521
25721W        W41855  15.764  12.003   2.012 -0.0922  0.1939  0.0245
25722W        W41856   0.497   1.116   4.550  0.0558  0.1433 -0.0152
25723W        W41857   6.363   5.373   4.687 -0.1760  0.3080  0.0051
25724W        W41858   5.003  16.153   5.660 -0.1549  0.0468 -0.0701
25725W        W41859   2.681   9.911   1.984 -0.0365  0.1775  0.1152
25726W        W41860   1.799   2.128   9.561  0.0543  0.2493 -0.0743
25727W        W41861  13.788   8.135  13.572 -0.0037  0.0693  0.0756
25728W        W41862   9.248  16.305   2.755 -0.0844  0.3777 -0.0579
25729W        W41863   8.329  14.217  11.736  0.0041 -0.0149  0.1956
25730W        W41864  15.225  16.680   9.958  0.0795  0.0320 -0.3795
25731W        W41865   9.287  14.258   3.568  0.1178  0.1300  0.0667
25732W        W41866   9.855  14.075  12.919 -0.0989 -0.1833  0.2904
25733W        W41867  14.736   9.936  11.994 -0.4380  0.0340  0.1095
25734W        W41868   0.990  14.222   1.607 -0.1524  0.0187 -0.1381
25735W        W41869  18.791   6.226  12.214 -0.1363  0.0031 -0.0762
25736W        W41870   6.236  14.378  14.299  0.0325  0.0195  0.2162
25737W        W41871  17.402  16.716  14.961 -0.1004  0.1498  0.0673
25738W        W41872   4.913  19.182   0.351  0.2423 -0.1790 -0.0214
25739W        W41873   6.082   5.618   0.259  0.4086  0.1042  0.0418
25740W        W41874  17.082  11.672   3.731 -0.3272  0.0832  0.1447
25741W        W41875   9.582  11.595   4.052  0.0146  0.1118  0.0502
25742W        W41876  10.240  19.149   2.791 -0.1157 -0.0197  0.0169
25743W        W41877   8.366   6.923  13.155 -0.0459  0.1020  0.1451
25744W        W41878  11.256  14.432   5.292  0.1888  0.0771 -0.0899
25745W        W41879  10.307  11.441  10.100 -0.1523  0.1642 -0.0622
25746W        W41880  15.237   9.627  11.388 -0.1352 -0.2723  0.0907
25747W        W41881   2.950   3.624   0.185  0.2610 -0.2057  0.2718
25748W        W41882  13.098   2.104   1.232  0.1243 -0.1108  0.0100
25749W        W41883  10.618   2.463   0.104  0.0023 -0.0973 -0.0104
25750W        W41884   1.857   8.463   0.042  0.1018 -0.0894 -0.2241
25751W        W41885  18.879   2.650  10.655  0.0745 -0.1163  0.0251
25752W        W41886  11.700  11.743  13.935 -0.0132  0.4047 -0.1285
25753W        W41887   0.939  14.326  13.180  0.2215 -0.1655  0.0472
25754W        W41888   9.322  14.500   4.939 -0.1386  0.2503  0.1967
25755W        W41889   7.476   2.077   5.116  0.1875  0.1954 -0.2165
25756W        W41890   7.931   6.934   4.020 -0.1247  0.1127 -0.2078
25757W        W41891  10.191   5.098   3.247  0.0494 -0.0965 -0.3030
25758W        W41892   9.511  12.153   3.943  0.0617  0.0614  0.4512
25759W        W41893   2.475  10.216  10.330 -0.0638 -0.0372  0.0151
25760W        W41894  15.880  18.025  10.052  0.1871 -0.2313  0.0645
25761W        W41895   7.869   4.451  11.256  0.1550 -0.2052 -0.3124
25762W        W41896   5.074   6.357   4.419  0.1193 -0.1828 -0.2479
25763W        W41897  13.629   7.171  13.223 -0.1391  0.1807 -0.1583
25764W        W41898   8.275   6.958  11.850 -0.1503 -0.2341  0.0961
25765W        W41899   8.557   2.175   1.148 -0.3305  0.0612 -0.3681
25766W        W41900   1.723  16.770  10.206 -0.1691  0.0653 -0.1493
25767W        W41901  13.943  11.031  11.142  0.1149 -0.2448  0.2125
25768W        W41902   2.824  11.463  14.589  0.5603  0.1917  0.0355
25769W        W41903   7.990  11.504   0.348 -0.2898  0.1627 -0.1374
25770W        W41904  11.440  16.289  12.534 -0.1543 -0.2350 -0.3629
25771W        W41905  13.148  18.388   0.149 -0.0972 -0.0254 -0.4930
25772W        W41906   2.335   4.709   2.910  0.0557 -0.3640 -0.1566
25773W        W41907   7.387   5.320  10.752  0.2434  0.2060 -0.2896
25774W        W41908   4.023   4.910   5.559 -0.0134  0.3021  0.1031
25775W        W41909  10.982  11.095   0.685  0.4846 -0.1259 -0.1859
25776W        W41910   0.027   9.341  11.665 -0.0321 -0.0217  0.1375
25777W        W41911   5.086  12.293   4.777  0.1310  0.0366 -0.1762
25778W        W41912   0.947  12.582   9.244 -0.1478 -0.0615 -0.2280
25779W        W41913   3.942   4.425   3.312  0.4625 -0.0683 -0.0549
25780W        W41914   1.511   7.511  13.191  0.1844 -0.3138  0.1583
25781W        W41915  13.725   8.954  10.628  0.2413  0.1103 -0.2496
25782W        W41916  16.428  13.528   1.340 -0.2527  0.1156 -0.1212
25783W        W41917  17.135  15.392  12.269 -0.1437 -0.1101  0.1831
25784W        W41918  11.368   0.387   3.390 -0.0849  0.1723  0.2603
25785W        W41919  14.547   2.663   5.007 -0.4139  0.4602 -0.0081
25786W        W41920   7.823   8.649  12.651 -0.0578  0.1954  0.2277
25787W        W41921  10.701  17.533   0.502  0.0446  0.0815  0.1038
25788W        W41922   2.175  14.205  10.891  0.0802 -0.3217 -0.3323
25789W        W41923   5.971  11.658  14.204  0.2451 -0.0160 -0.2547
25790W        W41924  17.544  12.665  11.942 -0.3699  0.0709  0.2103
25791W        W41925   1.330  10.485   4.463  0.2274 -0.0543 -0.1199
25792W        W41926   0.301   4.815   3.062  0.0450 -0.3373 -0.0672
25793W        W41927   4.924   9.742  14.014 -0.0125 -0.1771 -0.1123
25794W        W41928   4.814  14.741   0.066  0.2077  0.4795  0.1229
25795W        W41929   7.769  18.344   5.068 -0.2421  0.0323 -0.2561
25796W        W41930   9.696  18.643  10.059  0.0554  0.1221 -0.0698
25797W        W41931  12.472   0.292  14.238 -0.1702 -0.0473  0.0737
25798W        W41932   2.766  16.697  14.167 -0.3380  0.0241  0.1099
25799W        W41933  17.840   4.669  12.096 -0.1072  0.0043  0.1637
25800W        W41934   5.105  15.437  13.190 -0.1335  0.0137  0.0107
25801W        W41935   6.422   0.544  14.516  0.0118 -0.0161  0.1998
25802W        W41936   4.403   9.558   4.113  0.0849  0.0807  0.4215
25803W        W41937   3.521   6.133   1.727 -0.3120 -0.3068 -0.1317
25804W        W41938   6.856   7.270  14.182 -0.1688 -0.0682 -0.2166
25805W        W41939   2.702   1.627  14.091 -0.2377 -0.0870  0.0358
25806W        W41940  13.113  15.482   3.376  0.2634 -0.2065 -0.1010
25807W        W41941   8.015  18.018   1.201 -0.1345  0.0057  0.0998
25808W        W41942   3.030   0.193  11.469  0.0663  0.0339 -0.0391
25809W        W41943   8.684   7.005  12.788 -0.2014 -0.2378  0.1733
25810W        W41944   9.278   4.640   0.905  0.1735 -0.4685 -0.0476
25811W        W41945   7.640  14.892  14.011  0.0124  0.1353 -0.3193
25812W        W41946  12.345  14.919  11.296  0.3074 -0.0270  0.0873
25813W        W41947  11.407  16.700   2.785 -0.0680  0.0422  0.1546
25814W        W41948  14.979   2.345  11.508  0.3387  0.1212  0.1744
25815W        W41949   5.416  13.290   1.059  0.2239  0.1047  0.0871
25816W        W41950  17.737  13.775   1.021  0.2256  0.1823  0.0156
25817W        W41951  11.358  16.577   0.098  0.3555  0.1113  0.1380
25818W        W41952   4.632  16.166  14.572 -0.2942  0.3298  0.3459
25819W        W41953   1.935   2.992   2.249  0.2043 -0.0938 -0.1634
25820W        W41954  18.983   9.144   5.630  0.1328 -0.3225 -0.2541
25821W        W41955   7.024   0.346  14.534 -0.0917 -0.1054 -0.2708
25822W        W41956   2.978  14.433  11.359 -0.2193  0.2146  0.1367
25823W        W41957   4.294  17.525  14.290  0.1034  0.1920  0.0205
25824W        W41958   6.699  13.610  11.513  0.1379  0.1262 -0.0608
25825W        W41959  13.590   8.167  10.339  0.0366 -0.0536 -0.0514
25826W        W41960  17.246  10.209  11.906 -0.1269  0.0722 -0.2888
25827W        W41961  14.489   7.439   2.383  0.1708 -0.0374  0.2578
25828W        W41962   4.868  12.493  11.550  0.0108  0.1461 -0.2584
25829W        W41963   0.061   5.560  14.754 -0.0394  0.0962 -0.0381
25830W        W41964  12.809  17.452  10.975  0.2179  0.4943 -0.2743
25831W        W41965   5.697   4.585  14.028 -0.2470 -0.0834 -0.1386
25832W        W41966  12.506  14.051  10.382 -0.2086 -0.0544 -0.1439
25833W        W41967   8.978   3.926  11.455  0.0662  0.0588 -0.3450
25834W        W41968  14.935   2.832   3.336 -0.3358  0.1069  0.0685
25835W        W41969  12.379   4.107  14.636 -0.1822 -0.2170  0.2160
25836W        W41970  16.752   8.374  12.239  0.1327 -0.2629  0.2366
25837W        W41971  16.871  11.440  14.902  0.1158  0.2124  0.2279
25838W        W41972   5.309   7.169   2.203 -0.0922  0.1926 -0.0084
25839W        W41973  13.798   8.643   0.423  0.0396  0.0510 -0.3021
25840W        W41974  12.250  14.761   3.114  0.0631  0.1223  0.2050
25841W        W41975  10.430   8.117  14.419  0.0280  0.0450 -0.1232
25842W        W41976  13.359   5.467  10.711  0.1257 -0.0006  0.2680
25843W        W41977  19.186   2.824   3.390 -0.0441  0.1608 -0.1695
25844W        W41978  12.814   3.378   3.484 -0.1320  0.1597 -0.1752
25845W        W41979   0.546   8.010  13.685  0.0665  0.1389 -0.2722
25846W        W41980  13.563  10.777   1.717  0.0015  0.0001 -0.3612
25847W        W41981   7.937  17.007  11.848 -0.0375 -0.2296  0.0179
25848W        W41982  11.999   6.792  13.210 -0.0080 -0.2621  0.1939
25849W        W41983   1.887   5.034  13.463  0.0687  0.2021  0.1144
25850W        W41984   9.233  14.331  13.701 -0.3064 -0.0530 -0.0343
25851W        W41985   1.764   4.630  13.077  0.5022  0.1722 -0.0811
25852W        W41986   3.103   5.279   1.530  0.0255 -0.0595  0.2374
25853W        W41987   2.974  10.171   2.849  0.0847  0.0771 -0.2449
25854W        W41988   6.677  11.491   4.334 -0.2154 -0.0055  0.1282
25855W        W41989  11.955   4.337  12.489  0.1999 -0.1912 -0.0154
25856W        W41990  10.394  12.916   3.663  0.1366 -0.0385 -0.1875
25857W        W41991   8.156  12.342   4.617  0.3038 -0.0449 -0.0592
25858W        W41992  12.144  14.924  10.429  0.2233 -0.1202  0.1328
25859W        W41993   2.216  18.772  13.056  0.1051  0.1924  0.3904
25860W        W41994   0.425  12.278   3.895  0.4604 -0.0061  0.0949
25861W        W41995  17.775   0.224  11.123  0.0887  0.0962 -0.0358
25862W        W41996  18.998  16.744   2.218  0.0700 -0.0875 -0.0899
25863W        W41997   7.922  14.674   0.390  0.1258 -0.0734 -0.0891
25864W        W41998  10.854   0.204  14.374 -0.0987 -0.2009 -0.0632
25865W        W41999  17.521  10.418  13.254 -0.0938 -0.3202 -0.1520
25866W        W42000  10.897   0.191  13.734 -0.3141 -0.1960 -0.3155
25867W        W42001  18.438   7.846  14.794 -0.0782  0.3624 -0.1560
25868W        W42002   3.516   8.383   4.174  0.0979 -0.2189 -0.1092
25869W        W42003   3.977  12.732  12.577 -0.2566  0.1360 -0.2862
25870W        W42004  18.034   1.107  13.176  0.1621  0.0119 -0.2389
25871W        W42005  15.238  15.514  10.707  0.0765  0.1752  0.0349
25872W        W42006  11.065  15.035   3.822 -0.1538  0.0222  0.0610
25873W        W42007   0.894   4.181   2.829  0.0352 -0.2551  0.1293
25874W        W42008  18.072  15.546  13.467 -0.2922  0.0336 -0.0536
25875W        W42009   3.291  18.934  11.806 -0.3741  0.0650 -0.1685
25876W        W42010  17.507   0.563  13.655  0.2323 -0.0350 -0.3381
25877W        W42011   2.814   8.383   2.012 -0.2935 -0.2740 -0.0135
25878W        W42012  18.358  14.132  12.134 -0.2382 -0.0599 -0.0904
25879W        W42013  15.343   9.308   3.956  0.0381  0.0828  0.1208
25880W        W42014  11.384   0.168  13.108  0.0228 -0.3676  0.2126
25881W        W42015   8.769  10.357   1.765 -0.0030  0.1229  0.0328
25882W        W42016  11.291   6.165   4.126 -0.2237  0.0076 -0.0934
25883W        W42017  17.458  11.425  14.839 -0.1632 -0.0612  0.0064
25884W        W42018   4.067  16.479   4.492 -0.3404 -0.1700 -0.0245
25885W        W42019  12.976  17.273   3.629  0.0567  0.3138 -0.0080
25886W        W42020  13.520  10.709  10.682  0.2866 -0.1168  0.1891
25887W        W42021   1.582   5.232  13.066 -0.0686  0.0898 -0.2372
25888W        W42022   1.899  14.351  14.104  0.1604  0.1257  0.2279
25889W        W42023  13.031  18.201   3.333 -0.1758  0.3160 -0.0361
25890W        W42024   6.768   3.973   4.296  0.0573  0.3881  0.1887
25891W        W42025   3.394   4.127  10.176 -0.0890 -0.1072 -0.0211
25892W        W42026   8.485  10.974   4.579 -0.0350 -0.0695  0.2381
25893W        W42027   1.457  16.457  13.514 -0.0925 -0.1028  0.0692
25894W        W42028  17.194  12.989   3.647 -0.1503 -0.2786  0.0829
25895W        W42029  15.922  13.343  10.499 -0.0073 -0.0019  0.0036
25896W        W42030   8.319   2.936   0.786  0.3351 -0.0029  0.1568
25897W        W42031  18.119   6.858  12.516 -0.0602  0.2665 -0.1319
25898W        W42032  14.651  15.709  10.167 -0.1624  0.1382 -0.0754
25899W        W42033  15.032  17.990   0.436  0.1885  0.4294 -0.1857
25900W        W42034  15.371   7.646   4.254  0.2149  0.1797  0.1067
25901W        W42035   9.164  10.585  14.761 -0.2815 -0.2591 -0.2595
25902W        W42036  10.561  15.334   3.618 -0.0437  0.1508 -0.1033
25903W        W42037   8.547  11.501   2.482  0.4432 -0.2383  0.0339
25904W        W42038  16.869   8.581   1.777 -0.0193 -0.1058 -0.0801
25905W        W42039  17.733  10.054  11.715  0.1408  0.2823  0.0700
25906W        W42040   5.858   8.985  14.085  0.0388 -0.0514 -0.0119
25907W        W42041   6.956  15.407   2.196 -0.3433  0.1710 -0.1332
25908W        W42042   8.626   8.927  10.506  0.3908 -0.1288  0.0966
25909W        W42043   8.781  17.858  11.089 -0.2628  0.2308 -0.0073
25910W        W42044   7.746  16.660   2.432 -0.3852 -0.0806 -0.1206
25911W        W42045  12.542  16.728   3.413  0.0702  0.1422  0.0375
25912W        W42046   5.551   8.328   1.194  0.1631  0.0530 -0.2496
25913W        W42047   6.078  13.998   0.788  0.2070  0.0547 -0.0574
25914W        W42048   4.381   9.872  12.621  0.2081  0.1487  0.1676
25915W        W42049  16.441  18.278   0.818 -0.0618  0.2386  0.0023
25916W        W42050   7.583   7.497   1.615  0.0410 -0.3388 -0.0431
25917W        W42051   3.533  10.649  14.277  0.2478 -0.1050 -0.0589
25918W        W42052  15.367  16.928   3.787 -0.0613 -0.2181 -0.0449
25919W        W42053  17.355   6.308   0.003 -0.1760 -0.1664  0.1713
25920W        W42054   6.115   4.759  14.928  0.2712  0.3431  0.0781
25921W        W42055   4.034   9.272  14.655  0.0781 -0.1088 -0.1612
25922W        W42056   9.761   5.780   4.658  0.4162  0.0345  0.2764
25923W        W42057   8.405   0.819  10.591  0.0022  0.1619 -0.0506
25924W        W42058   5.185   3.517  14.162 -0.0257 -0.0565 -0.0478
25925W        W42059  10.345  18.249  14.608 -0.1516  0.2731 -0.2000
25926W        W42060   5.709  19.309   2.842 -0.0157  0.1618 -0.1232
25927W        W42061   9.289  17.155  12.283  0.0055  0.3292 -0.2294
25928W        W42062   8.665  17.368   2.413  0.3981  0.0090 -0.1560
25929W        W42063   3.977  10.188  11.129  0.2233  0.2894  0.1186
25930W        W42064   7.929   0.234   3.990 -0.1074  0.1020 -0.0036
25931W        W42065  16.145  11.668   3.493  0.1521  0.0531 -0.2771
25932W        W42066   0.466  12.632  13.621 -0.1604 -0.2818  0.1302
25933W        W42067   4.127  11.508  13.617 -0.2653 -0.3254 -0.0406
25934W        W42068   2.069  13.282  13.355 -0.3895  0.0812 -0.1187
25935W        W42069  10.799   0.604  14.631  0.1595 -0.0692 -0.2243
25936W        W42070  12.776  13.866   3.354  0.1127  0.2018  0.2698
25937W        W42071  18.048  15.598   1.734 -0.2489  0.0585 -0.0028
25938W        W42072   7.760  10.588  10.756 -0.1529 -0.1249 -0.2077
25939W        W42073  15.083   3.822  14.049 -0.0447 -0.1718 -0.0096
25940W        W42074  10.403   9.136   0.299 -0.1368 -0.0277 -0.1067
25941W        W42075   5.473  11.449   2.959 -0.0554 -0.3875  0.0888
25942W        W42076  10.698  19.063   3.000 -0.1200 -0.2837  0.0446
25943W        W42077  11.840  18.427  14.674  0.3342 -0.0194  0.0851
25944W        W42078   1.758  16.153   0.073 -0.1966  0.0076  0.0236
25945W        W42079   9.467   6.380   3.894 -0.1081 -0.3829  0.1424
25946W        W42080  12.065   7.819  14.547 -0.0865 -0.1337 -0.0747
25947W        W42081   3.510  18.348   5.864 -0.0200 -0.1755  0.0090
25948W        W42082  16.739   6.826  10.754 -0.2208 -0.2323  0.0044
25949W        W42083  11.583  10.826  13.991  0.1007 -0.6036 -0.1505
25950W        W42084   7.877   7.514  10.512 -0.2003 -0.3009 -0.0726
25951W        W42085  17.930   1.807   9.938 -0.1344 -0.2120  0.1293
25952W        W42086   2.202  12.131  13.937 -0.1349 -0.0644 -0.0739
25953W        W42087  10.263   1.914   5.391  0.3270 -0.0899 -0.0293
25954W        W42088  18.432  17.343  13.135  0.0564 -0.0832 -0.1249
25955W        W42089   3.900  16.855  12.060  0.1270  0.3501 -0.1668
25956W        W42090  11.722  11.195   4.888 -0.0215  0.0064  0.0855
25957W        W42091   9.804  11.104  10.886  0.1318  0.1071  0.1705
25958W        W42092   4.142   0.203   4.169 -0.2514  0.0569  0.0837
25959W        W42093  18.766  16.006  11.241 -0.0894 -0.1853  0.2591
25960W        W42094  16.810  18.722  12.847  0.0446 -0.0705  0.1437
25961W        W42095   5.818   9.849  10.368 -0.0189 -0.1017 -0.0127
25962W        W42096   4.912   1.035  14.856  0.1808 -0.0675 -0.0753
25963W        W42097  14.300   2.071   0.661 -0.1079 -0.0509 -0.0390
25964W        W42098  14.056  16.627  13.056 -0.1631 -0.4850  0.0316
25965W        W42099  17.842  15.137   0.523 -0.1946  0.0670 -0.0290
25966W        W42100  15.908   0.829   2.687 -0.0243 -0.3402  0.0089
25967W        W42101   7.867   7.413  11.099 -0.1436  0.1403 -0.0128
25968W        W42102   9.045  17.452   0.163  0.0769 -0.0676 -0.1231
25969W        W42103   2.381   9.751  11.948 -0.1591 -0.1146  0.1019
25970W        W42104  14.311   4.820  11.411 -0.2714 -0.2879  0.3960
25971W        W42105   3.156   6.447  12.342  0.0514  0.1327 -0.0057
25972W        W42106  15.657  11.081  14.306  0.0605 -0.0267  0.0556
25973W        W42107  17.103  12.304   0.660 -0.3780 -0.0371 -0.1842
25974W        W42108   1.365   6.873  14.538 -0.0648  0.0153  0.0691
25975W        W42109   4.672   1.794   2.532 -0.1383 -0.4208 -0.2079
25976W        W42110  14.324   6.952   2.965  0.0143 -0.0565  0.1979
25977W        W42111  18.997  11.317   9.342  0.1596  0.0234  0.0438
25978W        W42112  15.073  18.324  14.284  0.0258  0.0205 -0.0546
25979W        W42113   6.048   0.612   3.139 -0.0415  0.0626  0.2324
25980W        W42114  17.583  10.348  14.840 -0.3342  0.1949  0.0124
25981W        W42115   8.417  14.700  14.524 -0.0673 -0.0667 -0.0554
25982W        W42116  16.656  11.478  11.611 -0.1412  0.1777  0.0421
25983W        W42117   7.104  13.555  10.477 -0.0371  0.1870 -0.0353
25984W        W42118   7.042  14.209   1.748 -0.1222  0.1012  0.1551
25985W        W42119   2.689   3.890   2.813 -0.3131  0.0753  0.2272
25986W        W42120  12.618  17.489  13.238 -0.0429  0.2191 -0.2607
25987W        W42121  17.986  14.450   1.780 -0.1137 -0.2733  0.0099
25988W        W42122   4.530  11.983   1.501  0.1837 -0.3030 -0.2784
25989W        W42123  11.013  19.169   0.152  0.6511 -0.3342 -0.0969
25990W        W42124   9.498   7.928  14.323 -0.0997 -0.2684 -0.1203
25991W        W42125  10.416   0.869  14.443 -0.1047  0.1874  0.1363
25992W        W42126  18.259   2.222   1.850 -0.2247 -0.0660  0.1514
25993W        W42127  12.464  19.107  13.422 -0.1853  0.0387 -0.3668
25994W        W42128  17.983  12.650   2.212 -0.1187  0.1241 -0.2095
25995W        W42129   3.882   5.028   0.580 -0.1233 -0.0148  0.2924
25996W        W42130  13.237   0.212   1.123 -0.3140 -0.1125  0.1638
25997W        W42131   1.503  14.097  14.716  0.4295  0.0172  0.3229
25998W        W42132   5.668   7.681   3.365  0.0737 -0.2064 -0.2413
25999W        W42133   1.012   1.410   3.861  0.1458 -0.2015 -0.2005
26000W        W42134   3.536  15.203  12.482  0.0644  0.1232  0.0669
26001W        W42135  17.550  17.099  11.145  0.3303 -0.1737  0.1216
26002W        W42136   4.030  14.010  12.592  0.0173 -0.0588  0.0411
26003W        W42137  16.111  16.921  12.100 -0.0257  0.4062 -0.1123
26004W        W42138   6.893   1.588   1.865 -0.0948  0.0285 -0.0323
26005W        W42139  10.656  12.083   2.394  0.2800  0.1739 -0.2005
26006W        W42140   4.254   4.882  12.198  0.0128  0.1495 -0.1917
26007W        W42141  15.105  17.766  14.406 -0.0898 -0.4294 -0.2558
26008W        W42142  18.984  13.812   2.207 -0.5480  0.2098 -0.0682
26009W        W42143  10.633   8.947   3.278 -0.1480  0.3385 -0.1117
26010W        W42144  14.028  15.231  11.924 -0.0693 -0.1070 -0.1477
26011W        W42145  11.980  18.670  12.524 -0.0053 -0.2458 -0.3359
26012W        W42146  12.159  12.446   3.894 -0.1776 -0.3462  0.2900
26013W        W42147   8.748   9.995  11.866  0.1017  0.3352  0.0152
26014W        W42148  16.581  12.760   6.071 -0.1954 -0.3281  0.1123
26015W        W42149   9.273  16.312  12.671  0.2462  0.1600  0.1213
26016W        W42150   8.990  16.727   5.599 -0.1748 -0.1410 -0.0086
26017W        W42151   2.202  18.727   5.731 -0.0555 -0.0146  0.2061
26018W        W42152  10.913   5.474   4.523  0.3580 -0.0733  0.2320
26019W        W42153  15.803   7.494   1.803 -0.1326 -0.2042 -0.0877
26020W        W42154  11.153   6.056  13.043  0.0974  0.1745 -0.3427
26021W        W42155   3.970   8.346  14.907 -0.0468 -0.0783 -0.4880
26022W        W42156   7.276  16.686   2.398  0.0644 -0.1461  0.0877
26023W        W42157  19.222  10.326   0.213 -0.1662 -0.2739 -0.2934
26024W        W42158  15.458  17.689  14.695  0.3258 -0.2311 -0.0052
26025W        W42159   6.505   4.780  13.069 -0.0279  0.3194 -0.0217
26026W        W42160   6.530   8.750   4.439  0.1093 -0.0579 -0.0930
26027W        W42161   6.579   5.085   4.114 -0.1011 -0.0130 -0.2549
26028W        W42162  18.945  14.272  11.732 -0.1296 -0.1252  0.0996
26029W        W42163   9.627   6.113  14.210 -0.2317  0.3427 -0.1780
26030W        W42164  17.565  17.377   2.547 -0.3006 -0.0639  0.1987
26031W        W42165  11.600  12.924   4.297 -0.0248 -0.2825  0.2387
26032W        W42166  12.492   5.666   4.827 -0.1659  0.2054  0.0575
26033W        W42167   7.797   5.562   2.880  0.0455  0.0586  0.4427
26034W        W42168   5.133  15.557   0.627 -0.2268  0.3350 -0.2426
26035W        W42169   7.452  16.810  11.998 -0.1337  0.2125 -0.0215
26036W        W42170   5.988  14.149  13.447  0.2027 -0.0553  0.0345
26037W        W42171   8.833  18.398  11.282  0.0298 -0.0650  0.0463
26038W        W42172   8.712  16.488  11.428 -0.1491 -0.2011 -0.1840
26039W        W42173  10.604  16.411  12.906  0.2792 -0.0750 -0.3247
26040W        W42174  15.743   9.228  12.213  0.0523 -0.0123  0.0527
26041W        W42175   2.210   8.056   3.159 -0.1082 -0.2421  0.6069
26042W        W42176  10.882   3.899   3.748 -0.0764 -0.0672  0.1652
26043W        W42177  10.211  14.412  14.500  0.1021 -0.0848  0.2675
26044W        W42178  15.165  15.433   4.866 -0.3870  0.0582  0.1911
26045W        W42179  10.294  13.287   3.354 -0.0592 -0.1902 -0.1738
26046W        W42180  16.428  11.674  10.343  0.1595  0.0792  0.0282
26047W        W42181   8.281   7.306   0.954  0.0011 -0.0649  0.2211
26048W        W42182   7.604  11.944   5.667  0.0284  0.0006  0.0313
26049W        W42183   7.997  14.350  11.407  0.0040 -0.2676 -0.1948
26050W        W42184   9.948   1.140   2.402 -0.2245 -0.1404  0.1591
26051W        W42185   2.707   4.347   3.033 -0.3230  0.0487 -0.2378
26052W        W42186   1.851   2.695   4.111  0.0109 -0.1100  0.4048
26053W        W42187  14.862  11.196   4.109  0.1820  0.0324  0.1497
26054W        W42188  11.294   2.344  12.382  0.1641  0.0280 -0.0672
26055W        W42189   8.256  13.624  11.658  0.1933 -0.1012  0.0558
26056W        W42190  14.884   5.694   3.562  0.1405 -0.3242 -0.1655
26057W        W42191  19.138  10.157   4.949  0.1821  0.0937  0.3295
26058W        W42192  14.484   7.886  14.522  0.0947 -0.4669  0.0604
26059W        W42193   5.866   6.190   4.615 -0.0762  0.2393  0.0423
26060W        W42194  16.632  12.768  14.733 -0.0305 -0.1380 -0.2089
26061W        W42195   3.328   4.609   0.515  0.0943 -0.1940  0.0455
26062W        W42196  16.985  18.549  11.695  0.2013  0.1336 -0.2363
26063W        W42197  12.464  17.744   3.992  0.1547 -0.0300  0.2251
26064W        W42198  10.767   6.820   1.079  0.0537 -0.0295 -0.1311
26065W        W42199   0.887   7.952   1.905 -0.0342  0.3951 -0.0179
26066W        W42200   4.884  12.188  10.597  0.1550 -0.0774 -0.2732
26067W        W42201   5.783   8.538  10.286  0.1218 -0.0354  0.1766
26068W        W42202  12.159  14.471   2.114  0.3941 -0.2211 -0.1091
26069W        W42203  10.121  16.622  13.182 -0.1111  0.2645 -0.1656
26070W        W42204   1.788  14.472  10.733 -0.0505  0.3442  0.0428
26071W        W42205  11.484  14.266  10.348 -0.0102 -0.0183  0.1219
26072W        W42206  15.458  14.594  12.274 -0.2170 -0.0381  0.0860
26073W        W42207   7.500   8.964   1.506 -0.0088 -0.1984  0.0269
26074W        W42208   6.415  17.667  10.589  0.1707  0.2028  0.2072
26075W        W42209   1.568   2.167   0.677  0.1033 -0.1487 -0.0703
26076W        W42210   9.020   4.391  11.963 -0.0581  0.2965 -0.0536
26077W        W42211   4.288   1.138  14.069  0.1287  0.3126  0.1892
26078W        W42212  18.913  15.334   3.623 -0.1395  0.1126  0.3778
26079W        W42213   4.819  15.729  14.735  0.2061 -0.1488 -0.2612
26080W        W42214  18.715  18.152   9.904 -0.3832 -0.0750 -0.0444
26081W        W42215  12.654  10.236   0.324  0.1837 -0.2698  0.0387
26082W        W42216  16.856   3.359   2.151 -0.2628  0.0939 -0.3930
26083W        W42217   6.996  10.838   1.545 -0.1356 -0.1524 -0.1505
26084W        W42218  10.088   4.704  10.699 -0.1756 -0.5068  0.0269
26085W        W42219  12.316   8.602   2.951  0.0936  0.4704  0.1707
26086W        W42220   2.644   6.385  12.020 -0.1165 -0.0491 -0.3435
26087W        W42221   5.771   9.079   9.766  0.1757  0.3954 -0.3084
26088W        W42222  19.205   6.927  12.398 -0.1358 -0.0430 -0.0039
26089W        W42223  17.500  17.090  13.027  0.1472 -0.2902 -0.1814
26090W        W42224   0.726   8.699   2.315 -0.1414 -0.1449 -0.2353
26091W        W42225  13.629  13.820   4.243  0.2278  0.3912 -0.3272
26092W        W42226  17.250   6.954   2.702  0.2394 -0.0338 -0.2376
26093W        W42227   1.844   6.196   2.260  0.0281 -0.0953  0.0428
26094W        W42228   7.162   3.205  12.830  0.0179 -0.0691 -0.0523
26095W        W42229  17.480  17.814   3.423 -0.0921 -0.0489  0.0039
26096W        W42230  14.757  16.185  14.742  0.1696 -0.1109  0.1715
26097W        W42231  17.363   7.940   4.793 -0.0375 -0.1303 -0.0644
26098W        W42232  15.342  10.806  10.895  0.0983 -0.1462 -0.0880
26099W        W42233  18.927   9.589   2.658  0.0613 -0.1854  0.2093
26100W        W42234  13.638  19.323   1.950  0.0116  0.1094 -0.3829
26101W        W42235   4.885  14.517  14.330  0.2809  0.1078 -0.2454
26102W        W42236  10.976  12.557  13.083  0.1854 -0.0794  0.1428
26103W        W42237   2.331  14.901   0.954  0.2188 -0.1094  0.0592
26104W        W42238   1.449  10.285  12.603  0.0096  0.1074 -0.0056
26105W        W42239  17.840   5.317   1.610  0.2908 -0.1393 -0.2049
26106W        W42240  12.599   3.828   1.838  0.0302 -0.1698  0.1274
26107W        W42241  17.769  15.454   3.263  0.0422 -0.2835 -0.0616
26108W        W42242  17.103  12.569   1.808 -0.3101  0.1401  0.2592
26109W        W42243  10.953  17.857   4.258 -0.1593  0.4856  0.0173
26110W        W42244   4.807  11.057   4.284 -0.1665  0.1811 -0.0128
26111W        W42245   5.566   2.415  11.938 -0.1140  0.3104  0.2192
26112W        W42246  15.809   2.703   4.062  0.0323 -0.1867 -0.0440
26113W        W42247  14.987   8.799   3.083 -0.2795 -0.0039  0.3404
26114W        W42248  12.704  10.106  11.700  0.0118  0.1423  0.0169
26115W        W42249   7.482   7.662   3.562  0.2860 -0.1307  0.0138
26116W        W42250   8.825   5.773   4.159  0.1958 -0.1799  0.0096
26117W        W42251   8.878   6.589  14.873 -0.0866 -0.0444 -0.0547
26118W        W42252   7.432   4.773   2.993 -0.3292 -0.2494  0.3140
26119W        W42253  13.940  18.062   1.244  0.1377 -0.0270  0.1049
26120W        W42254   4.173  14.460   2.717 -0.2417 -0.0669  0.1559
26121W        W42255   3.203  14.769  12.239 -0.0000 -0.0390  0.0568
26122W        W42256  10.376  12.332   5.333 -0.0582  0.1879  0.1497
26123W        W42257   5.415  11.735  14.171  0.0582  0.0536  0.1946
26124W        W42258  13.922   3.828   5.296 -0.0007 -0.0333 -0.1614
26125W        W42259   4.056   1.537  10.729 -0.0975  0.0568  0.1014
26126W        W42260   9.964   9.781   4.787  0.0070 -0.2373 -0.1800
26127W        W42261   5.979   6.052  13.529  0.0803  0.1405  0.1362
26128W        W42262   4.855   7.178   5.474 -0.0751 -0.4288  0.1080
26129W        W42263   5.014   0.257  10.421  0.2422 -0.0660 -0.3812
26130W        W42264  13.877   8.632   2.515 -0.2380 -0.1169  0.4668
26131W        W42265  15.765   3.647   4.135 -0.0191  0.1272 -0.2081
26132W        W42266  15.326   1.079   1.122  0.1367  0.1763 -0.0126
26133W        W42267  10.086   8.162   0.872  0.0875  0.0999  0.0360
26134W        W42268  14.645  11.267  11.650 -0.0429 -0.2619  0.2686
26135W        W42269  13.292  11.234  11.767 -0.1592  0.2005  0.0093
26136W        W42270   7.846   1.409   3.755 -0.3505  0.1893  0.1484
26137W        W42271   2.739   1.111  14.014  0.1252  0.0623 -0.0021
26138W        W42272   0.005   9.205   4.673 -0.3168 -0.1979  0.0323
26139W        W42273   6.300   8.232  12.751  0.0919  0.0088 -0.2827
26140W        W42274   8.357  17.265   0.945  0.0539  0.0197  0.2115
26141W        W42275  11.405  10.849   0.368 -0.1619 -0.1786  0.1235
26142W        W42276  12.291   8.354  11.330 -0.0062  0.0441 -0.1134
26143W        W42277  15.297   9.811  14.856 -0.0577 -0.1627  0.1431
26144W        W42278  10.132   3.169   3.574  0.0168 -0.1051 -0.3896
26145W        W42279   9.465   6.790  12.266  0.2034 -0.1049 -0.0613
26146W        W42280  12.133   0.962   5.401  0.1455 -0.2135  0.3847
26147W        W42281  13.334   5.314  14.232  0.2132 -0.2400  0.2230
26148W        W42282   5.850  13.637   3.367  0.1930 -0.0235 -0.0609
26149W        W42283   5.470  16.820  13.410 -0.0666 -0.4874  0.0558
26150W        W42284   1.701   9.571   0.087 -0.0573 -0.1251  0.0104
26151W        W42285   2.494   0.602   1.231 -0.1003 -0.3380  0.2719
26152W        W42286  10.195  14.893  12.934 -0.0315  0.0385  0.2248
26153W        W42287  14.043   2.686   4.892  0.0562  0.1266 -0.3354
26154W        W42288  12.923  16.609   3.715  0.2108  0.1253 -0.0113
26155W        W42289  18.599  13.126  13.706 -0.0916 -0.3378 -0.4669
26156W        W42290  10.173  15.060  11.165 -0.0031 -0.1507  0.0322
26157W        W42291   8.263  13.140   5.635  0.0491  0.4050  0.0658
26158W        W42292  12.960   4.251   3.089 -0.1096 -0.0532  0.0369
26159W        W42293  16.103  12.422   0.052 -0.4111 -0.0433  0.1991
26160W        W42294  13.665   5.709  14.045 -0.0215 -0.1756  0.1733
26161W        W42295   3.479   4.705  12.761  0.1113  0.2112  0.3778
26162W        W42296   3.584  17.344   1.398 -0.4325  0.1313  0.2388
26163W        W42297  16.835  10.793   3.333  0.4583 -0.1611  0.1326
26164W        W42298   1.197  11.435  13.773  0.0171 -0.1255  0.0252
26165W        W42299  14.485  15.514  11.927  0.1170 -0.1936  0.4457
26166W        W42300  12.670   0.126   4.155 -0.3441 -0.1566  0.2267
26167W        W42301   0.853  16.233   2.834  0.0504  0.0164 -0.1985
26168W        W42302   2.990  10.098  11.316 -0.1093 -0.4643  0.1418
26169W        W42303   9.636  18.343   3.085 -0.1677  0.1517 -0.0801
26170W        W42304  10.176  19.219   5.025  0.0218  0.2750 -0.6004
26171W        W42305   6.682  10.321  12.287 -0.0202  0.2225 -0.0780
26172W        W42306  19.171  15.656  12.709 -0.0065 -0.1362  0.0279
26173W        W42307  15.730  15.425  10.647 -0.1601  0.0212 -0.0719
26174W        W42308  10.885   9.972  10.172 -0.1109  0.1784 -0.0434
26175W        W42309  10.517   7.276   0.952  0.0302 -0.0321 -0.1175
26176W        W42310  14.809   3.807  12.115 -0.5867  0.1820 -0.0312
26177W        W42311   4.271   4.910  12.841  0.2326 -0.2355 -0.1110
26178W        W42312   8.920   7.080  14.465 -0.2046 -0.1512  0.0953
26179W        W42313  16.612   3.053   3.335 -0.0040  0.0115 -0.1560
26180W        W42314   6.604   3.636  13.635  0.1146 -0.1380  0.2967
26181W        W42315   4.111   2.601   0.194 -0.0336  0.3834  0.0479
26182W        W42316   0.784  11.300   0.883 -0.1168  0.1558  0.3429
26183W        W42317   5.063   5.405  13.144  0.0981 -0.0693  0.1944
26184W        W42318   5.962   5.040  12.973  0.1203 -0.1275  0.1771
26185W        W42319  13.435   6.710   2.978 -0.2729  0.0622  0.1248
26186W        W42320   5.588   0.123  12.938 -0.0283 -0.2162 -0.2811
26187W        W42321  14.288  14.891  13.796  0.0331  0.1716  0.1336
26188W        W42322  12.660   8.504  11.659  0.0038  0.0609  0.1417
26189W        W42323   0.330   5.733   2.874 -0.2021  0.2776  0.2547
26190W        W42324   9.983   7.297  13.588  0.0251  0.1085 -0.0764
26191W        W42325  10.599  10.726  11.446 -0.4737  0.1227  0.1265
26192W        W42326   0.733   6.093  12.005  0.0183 -0.2425  0.2573
26193W        W42327   2.082   4.366   3.704 -0.2610 -0.1863  0.1544
26194W        W42328  16.391  17.523   4.404  0.0803 -0.1113  0.1475
26195W        W42329   1.070  18.889  14.372 -0.3869 -0.2211 -0.0385
26196W        W42330   6.477  13.686   5.493  0.3933  0.0071  0.1880
26197W        W42331  13.498   5.670   5.028  0.0364 -0.2479  0.1027
26198W        W42332   7.865   4.299  13.329 -0.0071  0.0499 -0.1302
26199W        W42333  17.979  17.820   0.409 -0.3210 -0.1822 -0.0900
26200W        W42334  17.859  12.224   2.519 -0.2968 -0.3511 -0.2574
26201W        W42335   1.305  10.635   2.536 -0.2352  0.0177 -0.2794
26202W        W42336   2.549   1.144   4.586 -0.0283  0.1251  0.0007
26203W        W42337  17.451  11.844  13.961  0.1549  0.0458 -0.0311
26204W        W42338   7.649   6.676  10.827 -0.0363 -0.1306  0.1028
26205W        W42339  16.712  11.965  14.193  0.0907  0.0516 -0.1765
26206W        W42340  13.361  12.265   1.860 -0.0433 -0.0677  0.2011
26207W        W42341   6.418  14.289   2.959  0.0764  0.1197 -0.0676
26208W        W42342   8.875  13.158   5.599 -0.3138 -0.3651 -0.0497
26209W        W42343  11.544  15.773   0.592 -0.1164  0.0099  0.2768
26210W        W42344  13.408   3.300  14.896  0.0446  0.1082 -0.1044
26211W        W42345   4.475  11.845  12.270 -0.2630  0.1151 -0.2366
26212W        W42346  13.201   4.425   4.536 -0.0134  0.0850 -0.1350
26213W        W42347  14.873   4.058  11.058 -0.2312  0.2596 -0.0085
26214W        W42348   8.614  13.533   5.404 -0.1479  0.1844 -0.1069
26215W        W42349   1.105   8.360  13.170  0.5195  0.1020 -0.2174
26216W        W42350   2.494  13.968  13.051  0.0137 -0.2750 -0.2833
26217W        W42351  13.411   9.072   2.448  0.0506  0.1092 -0.2676
26218W        W42352   2.523  12.510   4.615 -0.0752  0.0162 -0.2606
26219W        W42353   5.373   0.928  13.242  0.0763 -0.0448 -0.0858
26220W        W42354   9.643   7.531  11.631  0.1424 -0.1194 -0.0378
26221W        W42355  14.525  12.740  10.412  0.1346  0.0063  0.3548
26222W        W42356  13.743   1.342  13.604 -0.1252 -0.3109  0.1928
26223W        W42357  17.610  18.647  13.316 -0.0587  0.7156  0.0300
26224W        W42358   2.243   1.761   1.973  0.1066  0.0225  0.1289
26225W        W42359   4.353  16.879   1.733 -0.1768  0.0873  0.0643
26226W        W42360   3.803   1.049   0.469  0.2124 -0.4892  0.1201
26227W        W42361  10.372   6.357  11.503 -0.5657  0.0937 -0.0543
26228W        W42362  11.707   2.905   1.537 -0.0292 -0.3203  0.3154
26229W        W42363   1.867  19.008  12.459  0.1344  0.0533  0.3210
26230W        W42364  18.731  13.204  12.716  0.1422 -0.2028  0.0542
26231W        W42365   3.331   1.432   4.393 -0.1613  0.1459 -0.1330
26232W        W42366  10.051  16.719   1.240 -0.2042  0.2230 -0.1621
26233W        W42367  13.281  12.080   3.721 -0.0213  0.0031  0.3103
26234W        W42368  19.090   5.980   3.806 -0.2060  0.5021 -0.1219
26235W        W42369  16.149   8.596   2.085  0.3756  0.0659  0.2581
26236W        W42370   9.114   4.280  12.846  0.1893 -0.0449  0.2257
26237W        W42371   4.406  17.411   5.426  0.2034  0.0155  0.4784
26238W        W42372   8.728  12.927  11.188 -0.0992 -0.0216 -0.2158
26239W        W42373  12.335  15.516   1.800  0.1263 -0.2263 -0.0756
26240W        W42374   9.856   1.308  11.108 -0.2974  0.0765  0.0140
26241W        W42375   2.505  16.987  11.488  0.2273 -0.1010  0.1578
26242W        W42376  12.883   3.500  10.536  0.2386 -0.0351 -0.1511
26243W        W42377  12.406   0.605   4.369  0.3144  0.0415 -0.1192
26244W        W42378  19.191  10.512   1.688  0.1423  0.2966 -0.0819
26245W        W42379   8.057  16.031   6.286 -0.4917  0.0443  0.1718
26246W        W42380   3.788  13.109   1.899  0.0467 -0.0258 -0.2248
26247W        W42381   0.679  18.209  12.125 -0.0829 -0.1278 -0.0769
26248W        W42382  13.193  17.572   0.963  0.1270 -0.3490  0.2914
26249W        W42383   9.496  11.905  11.957 -0.1011  0.0899 -0.1006
26250W        W42384  10.538   3.558  11.410 -0.1967  0.2374  0.0299
26251W        W42385  10.416   7.685   2.608 -0.2035  0.3814  0.5594
26252W        W42386   9.417   3.520   3.067 -0.2434 -0.1303  0.1206
26253W        W42387  15.858  15.397  14.293  0.0286 -0.1306 -0.2196
26254W        W42388  14.844   4.507  10.098  0.0298  0.1590 -0.1531
26255W        W42389  10.421   8.074  11.706  0.2738  0.2196  0.2369
26256W        W42390   5.922  18.798   3.718  0.0094 -0.1412  0.2656
26257W        W42391  17.963  10.795  13.256  0.2298  0.1859 -0.0264
26258W        W42392   3.585  10.046  12.206 -0.0309  0.0082  0.2099
26259W        W42393   8.171  11.804  12.636  0.1480 -0.0040  0.2048
26260W        W42394  16.186   5.897  14.419  0.0699 -0.0311 -0.3594
26261W        W42395   1.134  13.245  14.796 -0.0964 -0.0168  0.5682
26262W        W42396   2.801  13.255   1.099 -0.1862  0.1480 -0.1598
26263W        W42397  10.745  15.399  14.367  0.2052  0.1323 -0.2499
26264W        W42398   0.165  17.181  11.455  0.1671 -0.3098 -0.1546
26265W        W42399  10.389  17.175   1.937  0.0540  0.5020  0.2303
26266W        W42400  12.247   0.737   2.110  0.1103  0.0782  0.1758
26267W        W42401  13.277   0.895  11.130 -0.3153  0.0626  0.0464
26268W        W42402   6.698   2.457   1.820 -0.2579 -0.1108 -0.0378
26269W        W42403   9.113  14.415   0.077 -0.0078 -0.2883  0.1523
26270W        W42404   5.216   9.449  12.959  0.0078 -0.2195  0.0233
26271W        W42405   1.312  13.703   2.344  0.4178  0.0227  0.4515
26272W        W42406   3.854   3.954   3.765  0.1703 -0.0150  0.3147
26273W        W42407   0.090   0.343   9.997  0.0690 -0.0224  0.0248
26274W        W42408   9.098   8.917  10.835  0.3053  0.1679 -0.2884
26275W        W42409   4.279  10.130   0.334  0.1544  0.1933  0.1378
26276W        W42410   3.070  15.139  11.261  0.1335  0.3288 -0.2822
26277W        W42411   4.597   3.471   2.942  0.3615  0.1154  0.1926
26278W        W42412   9.470   7.317   4.159 -0.3619  0.1206  0.0784
26279W        W42413   5.314  14.946   4.279  0.0006  0.2876  0.0685
26280W        W42414   3.131   6.993   4.426  0.0707  0.1867  0.0602
26281W        W42415  18.413  14.983  14.796 -0.0773  0.1834 -0.0954
26282W        W42416   7.212   7.898  12.002  0.3191 -0.4039 -0.0762
26283W        W42417  12.903   9.048  13.880 -0.2102 -0.5046  0.1520
26284W        W42418   9.174   9.897   0.184 -0.1967  0.0035 -0.2637
26285W        W42419   5.758  17.371   0.746 -0.1094  0.2988  0.1094
26286W        W42420  16.822   9.403   4.012 -0.0468  0.2493 -0.1360
26287W        W42421   0.541  10.913  14.987  0.1453  0.2349  0.1089
26288W        W42422  11.703  15.427   3.770  0.0729  0.0067 -0.5089
26289W        W42423  14.790  13.737  12.543 -0.1090 -0.0674 -0.0463
26290W        W42424  16.179   2.721   5.316  0.1656  0.3318  0.2501
26291W        W42425   9.834   6.332   4.441  0.0208 -0.0956  0.0761
26292W        W42426  11.535  17.622  11.557 -0.1467  0.0674  0.0017
26293W        W42427  16.343   5.020   3.790 -0.0482  0.1130 -0.3209
26294W        W42428  11.719  18.175   4.703 -0.2331 -0.1572 -0.2091
26295W        W42429  16.251   1.756  11.363  0.2333  0.0499  0.0687
26296W        W42430   8.091  19.298  13.370 -0.1148  0.2469  0.0978
26297W        W42431   9.654   4.163   4.227  0.0372  0.3299 -0.1876
26298W        W42432   1.505  19.164  10.495  0.1402  0.0622 -0.0271
26299W        W42433  16.970   6.033  12.114 -0.0619  0.2644 -0.0148
26300W        W42434   6.536  15.950  11.465 -0.0190 -0.0644  0.5159
26301W        W42435   9.626  11.850   2.466 -0.0203  0.0538  0.3420
26302W        W42436  13.045   7.477   4.885  0.3294  0.1647 -0.0687
26303W        W42437  18.265   0.496   3.603  0.1195  0.0115  0.0766
26304W        W42438   3.883   3.450  12.599  0.0903  0.0171  0.1240
26305W        W42439  14.599  17.540  14.181 -0.0129  0.2292 -0.1944
26306W        W42440  14.182   1.666   0.207 -0.0599  0.2804  0.0724
26307W        W42441   5.272  18.158  12.027  0.1569  0.2976  0.1318
26308W        W42442   9.193  13.668   2.463 -0.1228 -0.0399  0.1336
26309W        W42443  14.790   4.252   4.044 -0.0303 -0.1705 -0.1980
26310W        W42444   3.060  13.020  11.031 -0.2536  0.1930  0.3049
26311W        W42445  10.420   0.194  10.343 -0.2629 -0.3836 -0.0650
26312W        W42446  12.044   0.429   1.131  0.0511  0.2331  0.0330
26313W        W42447  13.765  18.073   2.587 -0.1064  0.2385 -0.3501
26314W        W42448   1.414   9.071   2.551  0.0197  0.0432  0.3243
26315W        W42449  10.558   4.307  14.116 -0.3461 -0.3167  0.0852
26316W        W42450  11.194   3.219   5.654 -0.1956  0.1651 -0.0449
26317W        W42451  16.821  13.326  14.754 -0.4366  0.0676 -0.1962
26318W        W42452   7.796   8.252   4.744 -0.0813 -0.0452 -0.0190
26319W        W42453  14.146   1.293  12.763  0.0691 -0.2836 -0.0784
26320W        W42454   5.448  11.329  12.923 -0.0827  0.0368 -0.1556
26321W        W42455  11.936  10.281   3.216 -0.3725 -0.1447 -0.2034
26322W        W42456  12.739  12.850  14.279  0.2641 -0.0790  0.0039
26323W        W42457  17.383  15.172   1.525  0.1586  0.5429 -0.5018
26324W        W42458  12.669   6.916  12.397  0.2026 -0.2264  0.0508
26325W        W42459   4.187  14.825   3.122 -0.0457  0.0173  0.0515
26326W        W42460  14.037  15.774  13.011  0.3470 -0.1299 -0.0423
26327W        W42461   8.134  18.154   4.084 -0.1571 -0.0829  0.2111
26328W        W42462   3.826   5.589   3.075  0.0224  0.2103  0.1115
26329W        W42463   0.850   2.850   2.498  0.0020  0.1873 -0.0414
26330W        W42464   5.996   2.400   0.731  0.1150  0.2089 -0.3270
26331W        W42465   2.492   4.669  12.488  0.1051  0.1222 -0.0305
26332W        W42466   6.218   0.251   5.187  0.1164  0.2821 -0.0086
26333W        W42467   9.129   5.548   0.357  0.1792  0.0013  0.1590
26334W        W42468   0.496  13.553   1.067 -0.0627 -0.0304 -0.2749
26335W        W42469   3.087   2.368  11.566 -0.1879 -0.3249 -0.0523
26336W        W42470  14.261   0.499  14.657  0.2827 -0.0329 -0.3310
26337W        W42471  12.346   1.174  11.989 -0.0175 -0.3437  0.2979
26338W        W42472  13.883   1.085   2.485  0.0793  0.0300 -0.2674
26339W        W42473   2.137  18.738  11.076  0.1570  0.0611 -0.0883
26340W        W42474   7.921  15.912   3.126 -0.0485 -0.3264  0.0116
26341W        W42475  10.666   9.247  14.333  0.0352  0.0322 -0.0707
26342W        W42476  15.285   7.684   1.894  0.0141  0.1085 -0.0463
26343W        W42477   8.155   6.779  12.722 -0.2001 -0.0254 -0.0221
26344W        W42478   3.636  13.208   4.073  0.2237 -0.2135 -0.6353
26345W        W42479   4.294  10.873  10.533  0.0021  0.1371  0.3733
26346W        W42480  18.867   6.755  12.091  0.0501  0.2947 -0.1235
26347W        W42481  17.357   6.434   4.297  0.3449  0.0136  0.2413
26348W        W42482  10.519   7.406   0.491  0.1059 -0.2659 -0.0478
26349W        W42483   6.980   4.015  13.558  0.1181 -0.1791 -0.2718
26350W        W42484   3.149  16.636   3.983 -0.2578  0.0687 -0.1065
26351W        W42485   4.425  15.220  14.447 -0.0984  0.4093 -0.1998
26352W        W42486   8.921   4.037   0.374  0.1068  0.1212  0.0620
26353W        W42487  18.765   6.208   4.132 -0.0189  0.0903 -0.2006
26354W        W42488   3.659  16.174  13.363 -0.3097  0.0519 -0.3350
26355W        W42489   6.693   4.337   4.743  0.0388 -0.1314 -0.0969
26356W        W42490  13.916  13.982   1.070 -0.1737 -0.0800  0.1126
26357W        W42491  14.552  13.262   2.166 -0.0633 -0.1456 -0.0112
26358W        W42492  17.983  14.594   2.771 -0.1818  0.0775 -0.1452
26359W        W42493   0.962  12.443   0.334 -0.0368 -0.2148 -0.2142
26360W        W42494  13.538  10.852   9.744 -0.0483  0.2163 -0.0161
26361W        W42495   9.916   0.831  10.696  0.0217  0.0136  0.0940
26362W        W42496  18.269  18.883  14.584 -0.2084 -0.1983 -0.0975
26363W        W42497   4.475  10.502   2.552  0.0229 -0.2672 -0.1259
26364W        W42498  12.748   7.704   5.454  0.5766  0.1136 -0.1915
26365W        W42499   1.893  12.338   3.863  0.1553 -0.0367  0.0631
26366W        W42500  13.881   0.329  12.783 -0.0868 -0.0055 -0.0288
26367W        W42501  16.296  16.149  13.496  0.0461  0.0438 -0.1015
26368W        W42502  16.592  12.010  11.679  0.1017  0.1928 -0.0631
26369W        W42503   9.768  14.191  14.373  0.1773  0.1607 -0.2401
26370W        W42504   2.541   0.853  14.890 -0.2149 -0.1959  0.0506
26371W        W42505   6.713   6.912   3.993 -0.1445 -0.0572 -0.2062
26372W        W42506   6.523  15.656   2.222 -0.0882 -0.1905  0.3234
26373W        W42507   1.061  10.825   0.064  0.1846  0.1222 -0.0993
26374W        W42508  13.920  13.271  12.361  0.0261 -0.2970 -0.3250
26375W        W42509  13.303   6.497  12.610 -0.0358 -0.1071  0.0709
26376W        W42510  16.005  12.280  13.524  0.0521 -0.1010 -0.0917
26377W        W42511   9.866   1.077   0.922 -0.2615  0.1900  0.0742
26378W        W42512  11.287   6.976   2.815  0.0933  0.0813 -0.2208
26379W        W42513   7.619   9.808  12.932  0.3020 -0.2519 -0.0857
26380W        W42514   2.107   5.146  11.534 -0.3232 -0.1294  0.2609
26381W        W42515  12.028  18.114   4.328  0.1441 -0.0230 -0.1008
26382W        W42516   5.206  16.418   3.215  0.5409  0.2526 -0.0916
26383W        W42517  14.379  11.957   9.412  0.1895  0.2218  0.0142
26384W        W42518   9.290  11.425  12.011  0.0195 -0.0053 -0.0840
26385W        W42519  11.563   4.702  13.469 -0.1352  0.1238  0.1414
26386W        W42520  17.009   5.908  10.403 -0.2775 -0.2858 -0.0479
26387W        W42521  11.934   5.538  14.557 -0.0853 -0.1277 -0.1143
26388W        W42522  15.866   8.342  14.270  0.0262  0.2276  0.0174
26389W        W42523   4.780  14.972  14.122  0.0946 -0.2681  0.2419
26390W        W42524  14.628  10.083   1.775  0.1861  0.0927 -0.1953
26391W        W42525  12.692  16.935   4.453  0.0844  0.2224 -0.1381
26392W        W42526  14.180   9.629  11.566  0.3289 -0.0641  0.0626
26393W        W42527   2.734   6.774   0.803  0.2639  0.0785 -0.0937
26394W        W42528   8.400  15.629   5.957 -0.0570  0.0585  0.3215
26395W        W42529   7.875  17.196  12.576  0.0425  0.0939 -0.1213
26396W        W42530  11.889   7.306  14.456 -0.1886 -0.1394  0.0353
26397W        W42531   6.626   2.112  11.128  0.1401 -0.2471 -0.0852
26398W        W42532  13.158  19.120   0.780 -0.0374  0.2083 -0.1104
26399W        W42533   3.342  11.431   3.452 -0.0581 -0.0594  0.0030
26400W        W42534   5.944   3.297   5.539  0.1665  0.2396  0.1147
26401W        W42535  13.268  15.378   0.859 -0.0162 -0.0354 -0.2073
26402W        W42536  17.989  10.204  13.082  0.0351 -0.1137  0.0545
26403W        W42537   8.444   7.727  11.398 -0.1338  0.0425 -0.0225
26404W        W42538  18.022   5.156  12.291  0.1714 -0.0724  0.0807
26405W        W42539   4.423  15.725  14.402 -0.1903  0.1893 -0.2067
26406W        W42540  14.797  11.850   0.022  0.0827 -0.0456 -0.0561
26407W        W42541  18.480   1.136   4.864  0.0269  0.2305 -0.0436
26408W        W42542  14.514   3.712   4.244 -0.0732 -0.0282 -0.1901
26409W        W42543   2.981  17.820   2.610 -0.5849  0.1716 -0.0876
26410W        W42544   1.175   0.779  13.042  0.0488 -0.0101  0.0491
26411W        W42545  18.189  13.089  10.504  0.0317  0.4328  0.1088
26412W        W42546  18.150  15.879   1.255 -0.4791  0.0805 -0.2374
26413W        W42547   7.586   3.281  12.038  0.0828 -0.1381 -0.0103
26414W        W42548  17.760   0.779   3.646 -0.4231 -0.3369  0.0058
26415W        W42549   5.489  16.574  10.302  0.3512 -0.4258  0.0389
26416W        W42550   6.316   4.725   2.069 -0.1344 -0.0920 -0.2071
26417W        W42551  18.558  13.081   3.098  0.1443  0.0662  0.2475
26418W        W42552  10.223   4.319  14.467  0.2660 -0.0345 -0.1857
26419W        W42553  11.010  11.277   1.774  0.2892 -0.0372 -0.2410
26420W        W42554  10.907   6.968  14.662 -0.0506  0.2901  0.1232
26421W        W42555  14.326   1.862  12.881  0.2089  0.1283 -0.2989
26422W        W42556  10.096   0.447  12.129 -0.2645  0.1583 -0.0854
26423W        W42557   1.550   7.005   0.298 -0.0046 -0.0285 -0.1111
26424W        W42558   7.884  15.966   1.772 -0.0385 -0.1525 -0.1161
26425W        W42559   1.227   4.736   4.523 -0.2113  0.0247  0.2384
26426W        W42560   0.732  10.299   3.322 -0.1203 -0.1308 -0.2302
26427W        W42561   2.090   5.129   3.979 -0.0499 -0.1412 -0.3703
26428W        W42562  13.191   1.690   3.114 -0.0424  0.0325  0.3019
26429W        W42563  14.788  19.194  10.716  0.0187 -0.1890 -0.1940
26430W        W42564   1.001   4.354  13.013 -0.0334  0.0340 -0.0183
26431W        W42565   5.962  14.907   2.387 -0.2879 -0.3561  0.1297
26432W        W42566   0.989   5.221   0.537 -0.1330  0.1312  0.3575
26433W        W42567   6.310   9.689   4.202  0.1323 -0.0838 -0.0648
26434W        W42568   9.820   5.146   0.779  0.1557 -0.2073  0.0920
26435W        W42569   7.168   0.887  12.776  0.2488 -0.0072 -0.1397
26436W        W42570   9.181   0.779  12.933 -0.1616 -0.1288 -0.0009
26437W        W42571  15.976   3.677  10.632  0.1790 -0.1735  0.0467
26438W        W42572  14.387  14.925  13.216  0.1776  0.0477  0.0520
26439W        W42573   8.681   5.287  11.798 -0.5420 -0.1965  0.3084
26440W        W42574  11.035   0.831  12.542  0.0661 -0.0516 -0.1560
26441W        W42575   5.796   7.770   4.409 -0.2947 -0.3750 -0.2591
26442W        W42576   6.440   4.301  11.324 -0.2519 -0.0638  0.1603
26443W        W42577   3.782   2.067   2.742  0.1606  0.1254  0.0214
26444W        W42578  12.617   5.532   3.436 -0.1998 -0.1040  0.3475
26445W        W42579  10.066   5.718  13.255 -0.0897 -0.0799  0.0919
26446W        W42580   8.357  19.208  14.719 -0.1176 -0.0102 -0.0179
26447W        W42581  14.415  14.462   1.633 -0.0368 -0.0993 -0.2741
26448W        W42582  12.403  16.508  14.148 -0.1571 -0.0075 -0.0454
26449W        W42583  19.161   8.545  13.918  0.2709  0.0711  0.1665
26450W        W42584  13.094  11.524  10.770 -0.0313 -0.0809 -0.2421
26451W        W42585   1.700   8.704   0.856 -0.0527 -0.0510 -0.2126
26452W        W42586   3.259  16.977  13.378  0.0836 -0.2075 -0.3222
26453W        W42587   4.888  16.013   4.415  0.1225  0.1194  0.1041
26454W        W42588   8.219   5.996  10.127 -0.4247 -0.2566 -0.5860
26455W        W42589   0.790  10.500  11.793  0.2493  0.1684  0.1680
26456W        W42590   4.470   8.692   2.278  0.1234  0.2041 -0.0194
26457W        W42591  13.102  18.833   4.671 -0.3528  0.1849 -0.2387
26458W        W42592  15.166  16.706  14.261  0.0456  0.1352  0.0584
26459W        W42593  18.080  15.828  12.449  0.2519  0.0363 -0.2978
26460W        W42594  11.940  12.893  11.088  0.0246  0.1588  0.1315
26461W        W42595   6.926   4.089   5.803  0.1631  0.4810 -0.0325
26462W        W42596   9.788  16.833   5.052  0.2580 -0.1095  0.4304
26463W        W42597   4.362   6.878  14.354 -0.1884 -0.0817  0.0987
26464W        W42598   7.711  13.739   4.749  0.0520 -0.0295 -0.2236
26465W        W42599  15.759   7.208  13.861  0.2316 -0.0093 -0.0446
26466W        W42600  11.871  10.743   2.366 -0.0385 -0.1620  0.0495
26467W        W42601   6.978   2.849   1.602 -0.0016 -0.3144  0.1343
26468W        W42602   5.411   6.776   1.337 -0.0220 -0.1162  0.3113
26469W        W42603   3.824  14.104   2.798  0.1138 -0.0815  0.0526
26470W        W42604   3.206  14.747  11.680 -0.1843  0.0008  0.0827
26471W        W42605   9.653   1.497   2.200 -0.1375 -0.1084 -0.1135
26472W        W42606  16.824   1.592   3.644 -0.0077 -0.1115 -0.0573
26473W        W42607  12.313   1.575  11.671 -0.1041  0.3198  0.5161
26474W        W42608   3.800   1.780  13.248 -0.1657  0.3360  0.2780
26475W        W42609   4.902  16.041  13.704  0.0385 -0.1296  0.0025
26476W        W42610   0.956   0.151   0.343 -0.0573 -0.0894 -0.0721
26477W        W42611   9.185   7.013   0.128  0.0668  0.1217 -0.0878
26478W        W42612   6.462  15.891  14.383 -0.0936  0.1798  0.1463
26479W        W42613   7.516   7.069   5.273  0.0934  0.1875  0.1361
26480W        W42614  13.712   6.824  14.037  0.1435  0.2531  0.1325
26481W        W42615   5.930   0.377   1.248 -0.3855  0.3097 -0.2349
26482W        W42616  19.167   5.640   0.802 -0.4124 -0.1583 -0.0537
26483W        W42617   5.643  10.181  12.508 -0.1130 -0.0953  0.0724
26484W        W42618   1.578  11.739   3.277 -0.3255 -0.0788  0.1087
26485W        W42619   1.959   1.703  12.305  0.1377  0.0437 -0.0825
26486W        W42620  12.458  18.135   2.886 -0.0768  0.2314  0.4629
26487W        W42621   4.918   4.005   4.842  0.1091 -0.1773 -0.1753
26488W        W42622  12.245  18.742   2.207  0.1789  0.1173  0.2433
26489W        W42623  18.555   0.749   2.954 -0.1624  0.3009  0.0773
26490W        W42624  12.533   4.897  13.064 -0.0885  0.2821 -0.0910
26491W        W42625   0.741  12.414  14.721  0.1028 -0.3442 -0.2266
26492W        W42626   5.110  16.675  11.567 -0.0247 -0.1618 -0.0960
26493W        W42627  15.785  17.024  12.989 -0.3691  0.0172  0.1229
26494W        W42628  11.492   2.157   5.743 -0.1343 -0.2687 -0.1753
26495W        W42629   6.016  11.458  11.620 -0.1567 -0.0492  0.1562
26496W        W42630   3.957  15.385   0.662  0.2061  0.0739  0.1161
26497W        W42631  17.065   2.145  11.565  0.2267 -0.1990  0.2003
26498W        W42632  10.607  15.891  14.271 -0.2979  0.0144  0.0903
26499W        W42633  16.518   5.451  13.190  0.3737 -0.1815  0.0485
26500W        W42634   5.794   6.025   8.879 -0.0301 -0.0750  0.2212
26501W        W42635   6.633  11.477  12.447 -0.0688 -0.0444  0.2425
26502W        W42636  16.773  18.293  10.354  0.0168  0.0598 -0.0556
26503W        W42637   9.078  13.699   4.699 -0.2193  0.2754  0.0589
26504W        W42638   8.930   6.392   3.736 -0.2291  0.3249  0.1599
26505W        W42639  10.530   7.804   4.500  0.0552  0.2738  0.2260
26506W        W42640   6.740   8.610  10.354  0.2587 -0.0337  0.0703
26507W        W42641   3.185  10.681   4.090  0.0060 -0.1564  0.0049
26508W        W42642  19.338   8.821  11.732  0.0304  0.0495 -0.0688
26509W        W42643   5.272   7.255  10.307 -0.1446 -0.2576 -0.2737
26510W        W42644  12.405   2.245   2.562  0.0143  0.6135  0.0931
26511W        W42645  18.707  11.757   0.224 -0.2501  0.1436 -0.2083
26512W        W42646   2.745   5.367   0.988  0.0512 -0.3027  0.0400
26513W        W42647   2.438   1.719  12.562 -0.1068  0.0110  0.1291
26514W        W42648   9.500   2.545  12.624 -0.1391 -0.1709  0.1831
26515W        W42649  10.035  17.447   3.150 -0.0068 -0.3381  0.0868
26516W        W42650  16.704  16.254   3.788 -0.3265  0.3004 -0.2077
26517W        W42651   7.980   5.322  12.072  0.3305 -0.2483  0.1852
26518W        W42652  12.597   1.702   3.400  0.0203  0.2834 -0.1487
26519W        W42653   6.331   2.711  13.641  0.0061  0.0270 -0.0666
26520W        W42654   6.658   8.015   0.967 -0.5260 -0.2224  0.1955
26521W        W42655   5.060  16.349   4.705  0.0216 -0.0990  0.0103
26522W        W42656  18.142   1.793  10.393  0.0665  0.3244 -0.1155
26523W        W42657  13.382  17.753   4.400  0.0265 -0.0424  0.1652
26524W        W42658   0.030  13.519   1.987 -0.0034 -0.1209 -0.3021
26525W        W42659   5.143   1.968   3.186 -0.0785 -0.2765  0.0637
26526W        W42660  17.498   3.798  12.762  0.0416  0.1215  0.0122
26527W        W42661  17.316  12.301   0.220  0.1698  0.0370  0.1709
26528W        W42662  10.438  19.239   0.913 -0.1176 -0.4147  0.0366
26529W        W42663  14.244  18.482   0.964 -0.2030  0.1351 -0.1555
26530W        W42664   9.789  18.002  13.715  0.0040 -0.0183  0.0354
26531W        W42665   4.853   9.488   2.361  0.0337  0.0187 -0.1787
26532W        W42666  18.555  19.173  12.626 -0.2721  0.2017  0.1408
26533W        W42667  19.027   4.104   4.226  0.2067  0.0914  0.0505
26534W        W42668   7.515  11.396  11.980  0.1785 -0.0285  0.1409
26535W        W42669   8.487   4.862   4.479  0.2766  0.0756  0.0194
26536W        W42670   6.048  17.759   3.667 -0.0160 -0.0775 -0.0710
26537W        W42671   7.320  11.215  12.811 -0.3600 -0.0934  0.2691
26538W        W42672  19.242  10.749   4.263 -0.0040 -0.1868 -0.4634
26539W        W42673   3.730   5.952  10.806  0.1312 -0.0939 -0.4755
26540W        W42674  13.055   6.251   4.355 -0.1302  0.2844  0.0215
26541W        W42675   2.490   3.548  11.956 -0.0064  0.1924  0.0313
26542W        W42676  10.245   3.148  11.244 -0.0926 -0.3567 -0.2624
26543W        W42677   6.410   6.668   5.256 -0.3843 -0.1090 -0.0805
26544W        W42678  12.565  17.044   0.318  0.0137 -0.0994  0.0351
26545W        W42679  19.279   6.987  11.952 -0.0476 -0.2488  0.0650
26546W        W42680   2.757   5.386  11.089  0.0700 -0.1385  0.4196
26547W        W42681   1.054   9.847  11.081  0.2917  0.0034 -0.0195
26548W        W42682   8.379   1.917  12.242  0.2501 -0.0902  0.1356
26549W        W42683   0.210  15.014  11.239  0.0700 -0.0045  0.1163
26550W        W42684   7.677  12.020  11.507  0.1599  0.1625 -0.0467
26551W        W42685   7.547   4.772  13.416 -0.1683  0.4423 -0.1131
26552W        W42686   3.596   7.661  13.957  0.3719  0.1419 -0.0201
26553W        W42687   5.169  10.618   4.902  0.1997 -0.0817 -0.2819
26554W        W42688   6.841   9.361  14.984 -0.0173 -0.2752 -0.1300
26555W        W42689  19.135   5.360  12.173  0.4635  0.1115  0.1887
26556W        W42690  10.749   3.102  10.384  0.1126 -0.2958  0.2232
26557W        W42691   3.698  14.479  13.186  0.0162 -0.3205  0.0359
26558W        W42692  10.591  15.939  11.231 -0.2639 -0.1795  0.4766
26559W        W42693  11.345  17.423   1.775 -0.0765 -0.2121 -0.0658
26560W        W42694   5.691   8.533   2.204 -0.2947 -0.2412  0.0006
26561W        W42695  15.653  16.705   1.666  0.2337  0.2633 -0.0014
26562W        W42696  15.790  16.971  12.482 -0.0167  0.1484 -0.0075
26563W        W42697  17.170  16.689  14.388  0.1142 -0.0747  0.0446
26564W        W42698   2.573  13.960  11.567 -0.0757  0.0485 -0.1785
26565W        W42699   1.660  11.139  10.650  0.0604 -0.4047  0.0091
26566W        W42700  15.140   1.929  14.565 -0.2846 -0.1965  0.1805
26567W        W42701  13.345   6.187  12.126 -0.1930 -0.1553 -0.3778
26568W        W42702   2.470  18.437   9.620 -0.0645 -0.1139  0.3454
26569W        W42703  14.170  16.441   3.369  0.0207  0.1491  0.2842
26570W        W42704  18.017   5.559   5.476 -0.0404  0.0512 -0.2849
26571W        W42705   7.977   5.451  13.165 -0.1797 -0.0361 -0.0329
26572W        W42706  10.485   5.368  12.196  0.0807 -0.1784 -0.1165
26573W        W42707   7.317  13.978  14.121  0.2717  0.3884  0.1409
26574W        W42708  19.001  13.778   2.822  0.1415 -0.2816 -0.2309
26575W        W42709   4.042   7.101  14.673  0.0611 -0.5257  0.1992
26576W        W42710  12.378  15.568  13.594  0.1623  0.0551 -0.0512
26577W        W42711   4.120   7.639  14.756 -0.2195  0.2858  0.0094
26578W        W42712  11.310   9.638   1.672 -0.0045 -0.1460  0.0444
26579W        W42713  14.512   1.678   1.063 -0.0012  0.0480 -0.0004
26580W        W42714  17.337   3.478   2.324 -0.0499 -0.3296 -0.1991
26581W        W42715   2.872   1.624   2.479 -0.1866 -0.0392 -0.0623
26582W        W42716  15.877   5.860   2.963 -0.1320  0.0718 -0.1751
26583W        W42717   9.355  14.383  14.609 -0.2306 -0.1407  0.3634
26584W        W42718  19.197  11.769   2.399 -0.0995 -0.2075 -0.1623
26585W        W42719   3.333   6.600   3.799  0.0490 -0.3045 -0.2832
26586W        W42720  11.362  17.287   2.911 -0.0528  0.0868 -0.0606
26587W        W42721   0.119   3.466  11.320  0.1063  0.0700 -0.1424
26588W        W42722  11.840   5.898   1.640 -0.0771 -0.0644  0.0590
26589W        W42723   6.618   7.031  10.812  0.1863  0.0264 -0.0379
26590W        W42724  11.406   3.117   2.332  0.2054 -0.1633 -0.0910
26591W        W42725   9.166   2.086  10.958  0.2245 -0.0528 -0.2763
26592W        W42726   0.326   3.439   3.525  0.1114  0.0601 -0.1452
26593W        W42727   4.559  14.253   2.883  0.2870 -0.0753  0.1025
26594W        W42728   0.223  14.486  11.305 -0.1959  0.1168  0.1403
26595W        W42729   0.646   2.995  12.254  0.1206  0.2361 -0.3762
26596W        W42730  10.428   6.122  13.919 -0.0315 -0.0412 -0.5624
26597W        W42731   0.994  10.907   2.910 -0.1148  0.1398 -0.1064
26598W        W42732   7.927   1.928  10.584 -0.2209 -0.0819  0.1810
26599W        W42733   1.238  19.304   3.896  0.1050  0.1451  0.0816
26600W        W42734  10.132   0.523  14.206  0.0744 -0.2403 -0.1952
26601W        W42735   9.329  16.351   0.718 -0.2110 -0.1824 -0.3933
26602W        W42736   5.042  16.246  10.291  0.1011 -0.1388 -0.4063
26603W        W42737   7.020  14.394   2.992 -0.1616 -0.1487  0.4867
26604W        W42738   1.350  16.006  13.122 -0.1401  0.0646  0.1517
26605W        W42739  11.776  12.808   3.072  0.3612 -0.2124 -0.0456
26606W        W42740  14.679   4.262  14.477 -0.0959  0.0360 -0.0468
26607W        W42741   8.895   0.436  11.067 -0.2783 -0.1033 -0.4436
26608W        W42742  10.412   5.642  14.588  0.0993  0.0321  0.1773
26609W        W42743   4.742   8.757  11.898 -0.1301 -0.0688  0.2585
26610W        W42744  13.605  11.636  10.324 -0.0097 -0.2017 -0.0792
26611W        W42745   3.043   9.654  13.890  0.1445 -0.1477 -0.0432
26612W        W42746  18.591   0.300  10.772  0.2006 -0.0141  0.1084
26613W        W42747   2.194  11.018   3.838  0.0226 -0.2729  0.0246
26614W        W42748   4.541   0.420   2.805 -0.4735  0.0012 -0.0346
26615W        W42749  12.441  17.877  12.977  0.0178 -0.0178 -0.3679
26616W        W42750  11.540   6.393  12.146  0.1419 -0.0434  0.0468
26617W        W42751   6.681   3.282  12.141  0.3194  0.0905  0.0301
26618W        W42752  18.067  10.514   1.778 -0.0725 -0.1851  0.0540
26619W        W42753  15.216   9.645   5.227  0.2131 -0.2260 -0.0301
26620W        W42754  10.678   5.507   3.064 -0.1728  0.3604  0.2718
26621W        W42755   2.816   0.881   0.949 -0.2195  0.5998  0.1122
26622W        W42756  15.270   6.600   2.032 -0.2747 -0.1772  0.1814
26623W        W42757  11.088   1.553   1.676 -0.0514  0.0906 -0.4170
26624W        W42758  13.040  15.443   1.731 -0.3612  0.0564  0.2772
26625W        W42759   3.158  16.207  12.156  0.2366 -0.0854  0.1916
26626W        W42760  13.574  14.301  14.727  0.0622 -0.1466 -0.1146
26627W        W42761   3.795  14.391  12.247 -0.1411  0.4116  0.3590
26628W        W42762   2.353   6.415  11.638 -0.0261  0.4999  0.3345
26629W        W42763   5.391   8.291  13.738 -0.0899  0.1894 -0.3937
26630W        W42764   0.401   5.399  10.462  0.1403  0.0251 -0.3615
26631W        W42765  10.761  16.347   3.853  0.1279 -0.1405  0.2553
26632W        W42766   3.151  14.498   5.061  0.2063 -0.2443  0.0797
26633W        W42767  15.752   1.899  11.565  0.2109 -0.2387  0.2366
26634W        W42768   6.550  10.035   3.286 -0.3072  0.0889  0.0423
26635W        W42769   9.989  18.824  12.712  0.3110  0.4178  0.0407
26636W        W42770   1.939   2.331   0.316 -0.0222  0.0368 -0.2872
26637W        W42771   8.015  13.553  12.149 -0.1749  0.0781  0.2349
26638W        W42772   1.331  11.827   0.149  0.0409 -0.0831 -0.0016
26639W        W42773  18.903  11.010   4.015 -0.2778  0.1662 -0.3277
26640W        W42774  15.360   7.241   0.535 -0.1095 -0.0883  0.0699
26641W        W42775  14.647  14.871  10.283  0.0306  0.2178 -0.2685
26642W        W42776  10.629   5.293   5.002  0.1087 -0.3034  0.1251
26643W        W42777  18.123  13.271   0.388 -0.3197  0.0730 -0.1530
26644W        W42778   7.171  19.188   3.553  0.0871 -0.0750 -0.0066
26645W        W42779  17.374  10.236   4.493 -0.0606  0.2090  0.1745
26646W        W42780  10.608   1.833   1.018 -0.1754  0.0272 -0.2165
26647W        W42781   2.447   0.345  14.824  0.2059  0.1094 -0.2515
26648W        W42782   1.905   3.116  11.762 -0.1630 -0.1765  0.0153
26649W        W42783   8.312   9.281   4.263 -0.0506 -0.1767  0.1424
26650W        W42784  16.454   7.038  11.707 -0.0812  0.0892  0.3396
26651W        W42785  17.948   7.593   0.586 -0.1837  0.0604 -0.0797
26652W        W42786  10.835  15.734   3.819  0.5014 -0.1304  0.0181
26653W        W42787  18.478   1.908  11.280 -0.1492  0.2955 -0.0432
26654W        W42788  10.234  12.673  14.832  0.1631 -0.0394 -0.0889
26655W        W42789  13.827  12.385  12.779 -0.0080 -0.0674  0.2376
26656W        W42790   8.744   0.326   3.930  0.2812  0.1694  0.0079
26657W        W42791  15.726   3.075  12.008  0.1993  0.1023  0.2160
26658W        W42792   1.009  19.137  13.227  0.0220 -0.0916 -0.1135
26659W        W42793  13.174   2.137   3.868  0.2816 -0.0944  0.1485
26660W        W42794   7.720  19.046  13.622 -0.0591  0.0523  0.3205
26661W        W42795  10.451  12.473  14.436 -0.1964 -0.2253 -0.2378
26662W        W42796  17.772   8.139  14.409 -0.0838 -0.0139  0.0486
26663W        W42797  15.759   8.180   1.299 -0.3967  0.2089 -0.0438
26664W        W42798  12.018   0.071   4.288 -0.1287 -0.0556  0.0479
26665W        W42799  11.137  12.239  11.688 -0.1925  0.1914  0.1564
26666W        W42800  10.434  11.796   3.301  0.0971 -0.0940 -0.1292
26667W        W42801  14.682  13.019  14.657 -0.0336  0.0577  0.0714
26668W        W42802  18.237   8.575  14.381 -0.0819  0.0261 -0.0521
26669W        W42803  17.399  13.873   0.176 -0.1482  0.1775  0.1843
26670W        W42804  11.315  15.082   0.203  0.0466 -0.1968  0.1222
26671W        W42805   6.033  12.473  13.771 -0.1271 -0.2265 -0.0301
26672W        W42806  17.336  16.310  14.708 -0.0751  0.2667  0.1342
26673W        W42807   1.134  12.933   4.232  0.1420 -0.0897  0.1253
26674W        W42808   2.542  17.090   0.060 -0.0416  0.1469 -0.1077
26675W        W42809   0.200   5.764   3.623  0.0804  0.1447  0.1447
26676W        W42810  14.102   0.795   9.626  0.1168  0.3303 -0.0757
26677W        W42811   7.041   2.764   0.428  0.0787  0.2009  0.2153
26678W        W42812  14.295  10.487   5.070  0.1038  0.2238 -0.3742
26679W        W42813   2.141  10.286   4.178 -0.0266  0.0765  0.3197
26680W        W42814   7.915   1.282   2.946  0.2855  0.0437  0.5022
26681W        W42815   2.908   3.992  14.622  0.1093  0.0746  0.1178
26682W        W42816   1.596  12.157   4.340 -0.3988 -0.0952  0.0269
26683W        W42817  16.618   4.998   1.903 -0.2151 -0.2240  0.3905
26684W        W42818   1.164   4.641   3.053 -0.0902 -0.3428 -0.1105
26685W        W42819   4.082  16.195   0.841  0.3929 -0.1097  0.0981
26686W        W42820  11.382  16.946   3.238  0.0596  0.0071 -0.0214
26687W        W42821   9.989   9.442  11.832  0.0600  0.1608 -0.2268
26688W        W42822  11.818   4.201   4.616  0.1317 -0.1002 -0.1867
26689W        W42823  17.870   2.620  14.588  0.2228  0.0820 -0.2376
26690W        W42824   7.026  11.513   3.253  0.0885  0.2413 -0.0099
26691W        W42825   3.161  18.542  11.527  0.0800  0.0692 -0.0059
26692W        W42826   8.700  19.075  14.356 -0.4287  0.1195 -0.2293
26693W        W42827  11.837  16.645   0.182 -0.1005 -0.0909  0.2407
26694W        W42828  18.203   9.919   5.399 -0.4077 -0.2453 -0.0477
26695W        W42829  18.569  18.061  14.222  0.1422 -0.1610  0.1987
26696W        W42830  12.726   2.655  14.496  0.1177  0.1670  0.3290
26697W        W42831   6.685   8.116   0.419 -0.2478  0.0415 -0.2474
26698W        W42832  18.394   8.267   3.645  0.1575  0.2080  0.0664
26699W        W42833  17.913   3.108   0.132 -0.4225  0.2067 -0.1917
26700W        W42834  14.701  16.308  13.275 -0.1957  0.0968 -0.2075
26701W        W42835  15.588   0.646   3.982 -0.1881  0.2087 -0.0920
26702W        W42836   5.533   3.078   3.467 -0.0067  0.1803 -0.0426
26703W        W42837  16.737   0.820   3.183 -0.0645 -0.1461 -0.0427
26704W        W42838   0.623   2.366   4.452 -0.0344  0.0559  0.2077
26705W        W42839   0.202   3.254   4.276 -0.2904  0.0580  0.1729
26706W        W42840  12.855   6.274   3.306  0.0451  0.1803 -0.2381
26707W        W42841   6.127   7.656  11.480 -0.0119 -0.2484 -0.3150
26708W        W42842  14.729   3.939   1.404  0.0438  0.0756 -0.4028
26709W        W42843   5.475  14.562   3.320 -0.0908  0.0210  0.2082
26710W        W42844  13.256   5.302   5.226  0.2332 -0.1151 -0.0215
26711W        W42845   1.434  17.149  14.942  0.0057  0.0258  0.1081
26712W        W42846  12.916   8.413   0.557 -0.4612 -0.3705  0.0429
26713W        W42847  10.721  17.173   5.424 -0.2149 -0.1570 -0.1576
26714W        W42848   4.730   6.370  11.464  0.2822  0.0939  0.0388
26715W        W42849  17.902  18.659  10.864 -0.0955  0.1639 -0.0238
26716W        W42850  16.060   0.244   1.573 -0.2625  0.2456 -0.0676
26717W        W42851   6.643   9.653   4.718  0.0087 -0.0147 -0.0970
26718W        W42852  12.688  13.374   2.976 -0.0103  0.0073  0.1599
26719W        W42853  13.935  13.537  12.945 -0.2110 -0.2505 -0.0794
26720W        W42854  12.802  19.206  14.743 -0.2422 -0.1367 -0.0624
26721W        W42855  15.718  16.882   0.658  0.0231  0.0161 -0.0882
26722W        W42856   1.631   8.315   9.364 -0.0266 -0.5136  0.0987
26723W        W42857   0.362   1.413  14.888  0.3182 -0.0841 -0.0775
26724W        W42858   3.120   6.518   1.531  0.1079  0.0591  0.0325
26725W        W42859   0.572  14.493   1.425  0.1165  0.2185 -0.1364
26726W        W42860   7.677  15.050   2.841 -0.0015 -0.1247  0.5278
26727W        W42861  14.382  11.438   5.016  0.0449  0.0727 -0.1925
26728W        W42862  11.698   5.048  11.447 -0.1056  0.4447 -0.3368
26729W        W42863   3.513  15.270  14.368  0.5057 -0.1754  0.0945
26730W        W42864   3.408  18.868  10.607  0.1621  0.0829  0.0904
26731W        W42865   6.604   4.304   3.427 -0.0728 -0.1818  0.0266
26732W        W42866   1.494  13.613   0.735 -0.0830 -0.1718 -0.0017
26733W        W42867  16.294   9.523   1.388 -0.0134 -0.0130  0.0927
26734W        W42868   8.349  14.246  14.144  0.5134 -0.2440  0.0595
26735W        W42869   6.001  14.937   3.825  0.0440 -0.3274  0.2405
26736W        W42870   9.384   4.144  12.431  0.1969  0.0939  0.0077
26737W        W42871   3.377  15.885  11.222 -0.4462  0.0433  0.1828
26738W        W42872  18.503  11.713   2.345  0.0121  0.1006 -0.4220
26739W        W42873   8.098   5.141  10.991 -0.2361 -0.0647  0.1435
26740W        W42874   4.493   2.353   9.472  0.0581  0.0178  0.0041
26741W        W42875   8.035  19.323  11.984 -0.3015  0.2457  0.1652
26742W        W42876   5.826  15.624  10.586 -0.2843  0.2571  0.0778
26743W        W42877  17.109   8.665  10.526 -0.3640 -0.1840 -0.2800
26744W        W42878   5.758   5.501   1.595 -0.1517 -0.0578 -0.1516
26745W        W42879  16.638   9.427  13.401 -0.1097 -0.2606 -0.0278
26746W        W42880  13.587  10.648  11.215  0.0608  0.1285  0.0674
26747W        W42881  18.414  11.145   1.044  0.0853 -0.0262 -0.2916
26748W        W42882   4.233  16.483  11.264 -0.0919 -0.0519 -0.1885
26749W        W42883  13.448   6.398  14.511  0.2978  0.2937 -0.1214
26750W        W42884  19.097  13.397   2.405  0.2408 -0.2480  0.1580
26751W        W42885  15.592   1.872   4.438  0.0452  0.2069 -0.0556
26752W        W42886  12.860   8.331   0.005  0.2112 -0.0112 -0.0038
26753W        W42887   2.924  10.139   4.172 -0.0204 -0.3661 -0.1654
26754W        W42888   1.036  18.584   1.893 -0.2892 -0.1093  0.2530
26755W        W42889  15.432  10.391   1.402 -0.0159  0.1509 -0.0933
26756W        W42890  17.683  12.345  13.216 -0.4286  0.1126  0.0634
26757W        W42891  16.968  15.855  10.168  0.3010 -0.2952 -0.4112
26758W        W42892   5.538   4.542   1.865 -0.4934 -0.1489 -0.1443
26759W        W42893   0.058   6.224   0.268  0.0417  0.2716 -0.0150
26760W        W42894  18.439  17.709  14.957  0.5450 -0.3011  0.2898
26761W        W42895   9.148  10.063  12.581  0.0285  0.1002  0.1600
26762W        W42896  11.213   8.951  11.652  0.0053 -0.4014 -0.0629
26763W        W42897  15.098  18.085   3.184 -0.0682  0.2913 -0.2120
26764W        W42898   6.005   1.601   2.302  0.0170 -0.0995 -0.0703
26765W        W42899   6.130  11.397  14.591 -0.0112  0.1693  0.3308
26766W        W42900   1.015  14.122   9.102  0.3390  0.4114 -0.0449
26767W        W42901   2.022   0.645  11.389 -0.2613 -0.4202  0.1916
26768W        W42902  11.387  12.399  12.810  0.3040  0.1731 -0.0661
26769W        W42903  15.830   0.806  14.877 -0.2264  0.2379  0.1010
26770W        W42904  13.139  15.293  11.454 -0.2744  0.2760  0.3751
26771W        W42905  16.295   8.394   0.481 -0.0459 -0.3180 -0.1101
26772W        W42906  12.643  11.779  14.855  0.0657  0.2460  0.1387
26773W        W42907  10.239  14.143   9.739 -0.0318 -0.2359 -0.0045
26774W        W42908   3.889  10.425   2.820 -0.0016 -0.1525 -0.2806
26775W        W42909  11.014   9.637   2.714  0.3678  0.2928 -0.2211
26776W        W42910   6.052   0.507  12.121  0.0813  0.3257 -0.2343
26777W        W42911   2.780  10.635   0.866  0.0742 -0.0395  0.0166
26778W        W42912  15.917  11.127   3.916 -0.2043 -0.6853  0.2202
26779W        W42913  17.436   2.301  14.389  0.1390 -0.0579 -0.0161
26780W        W42914   9.135   1.235   4.410 -0.2822 -0.1233 -0.0103
26781W        W42915  12.976  17.654   3.340  0.1016 -0.0104 -0.1500
26782W        W42916   7.392   8.830  12.402 -0.3032 -0.3177  0.2454
26783W        W42917  17.989  15.918   0.048 -0.0047 -0.3621 -0.0460
26784W        W42918   1.126  13.062   3.168 -0.0288 -0.0988  0.2668
26785W        W42919   0.715  11.077  14.194  0.1559  0.0702  0.0012
26786W        W42920   4.825   4.605  10.852  0.1473  0.1537 -0.1656
26787W        W42921   4.253   0.063  11.877  0.2218 -0.1154 -0.2974
26788W        W42922  16.072  18.905  14.041  0.1123 -0.0603  0.0048
26789W        W42923  15.789   4.018  14.509  0.0202  0.1149  0.1618
26790W        W42924  13.914  16.787   2.539 -0.2202 -0.2668 -0.0171
26791W        W42925   9.363   4.522  14.613  0.2351  0.2511  0.0583
26792W        W42926   0.434   5.806   9.778 -0.1793 -0.0421  0.1012
26793W        W42927  11.726   1.804  11.960  0.2817  0.2397  0.3763
26794W        W42928   7.756   8.972   3.428 -0.2634 -0.4071 -0.0856
26795W        W42929   1.569   5.310  14.738  0.0277  0.0736 -0.0358
26796W        W42930   7.921  16.130  13.070  0.1790 -0.1663  0.0182
26797W        W42931   6.579   5.965   5.522  0.1074  0.0797  0.3180
26798W        W42932  14.536  13.862  14.334 -0.0758  0.3442 -0.0651
26799W        W42933  11.735   9.663  11.397  0.0639  0.2881  0.1562
26800W        W42934  17.176  17.962   4.714  0.1610  0.3128  0.0060
26801W        W42935   5.504  18.907  11.384 -0.2214 -0.0283 -0.3787
26802W        W42936   2.751  18.561  14.381 -0.2072  0.0161 -0.2881
26803W        W42937  14.746  12.155  14.113 -0.1754 -0.0772  0.1615
26804W        W42938  15.853   6.629   4.731  0.0884 -0.2827 -0.2279
26805W        W42939  15.030  12.191   3.660  0.0912 -0.2063 -0.0132
26806W        W42940   3.240  15.071  13.958  0.0329  0.1991  0.0370
26807W        W42941   9.270   6.325  10.193 -0.1341  0.0589  0.0829
26808W        W42942   6.710   8.796   3.591 -0.1051 -0.0677  0.2982
26809W        W42943  15.693   2.712  13.222  0.1607 -0.0173  0.2015
26810W        W42944   4.172  13.336  12.018 -0.2207 -0.1066 -0.0039
26811W        W42945   2.525  15.513   4.644 -0.1538 -0.4281  0.1444
26812W        W42946  17.968   8.576   3.821 -0.0209 -0.1823  0.2257
26813W        W42947   9.150   3.360   2.155  0.2604 -0.2012  0.1898
26814W        W42948   8.317   6.409  14.872 -0.2201  0.2784 -0.1412
26815W        W42949  18.338  13.211   3.504  0.0904  0.0799  0.0106
26816W        W42950   4.794  15.307  10.262  0.0075  0.2184 -0.1903
26817W        W42951  18.499  19.264   1.877  0.3388  0.1798 -0.2192
26818W        W42952  16.183  17.856  10.938 -0.0399 -0.0437 -0.0896
26819W        W42953   0.468   6.246  14.381  0.1505  0.0991  0.0104
26820W        W42954  17.716  17.454   0.110 -0.1161 -0.1742  0.0583
26821W        W42955   8.681   7.884   2.627 -0.3390 -0.0270 -0.0576
26822W        W42956   1.343   3.819  11.946  0.1314  0.0485 -0.3727
26823W        W42957   9.144  10.309  11.392 -0.3358  0.1299  0.1860
26824W        W42958  16.428  15.997   4.582 -0.0703  0.1947  0.1884
26825W        W42959  12.414  14.523  10.148  0.2223  0.2435  0.1836
26826W        W42960  12.929   5.186   3.640  0.0228  0.2422 -0.2178
26827W        W42961  10.066  18.930   4.641 -0.3667 -0.0598  0.0422
26828W        W42962  19.113   2.472  13.198 -0.0537 -0.0323  0.1660
26829W        W42963  13.992   8.129  14.284 -0.2453 -0.0706  0.0811
26830W        W42964   1.555  17.074  11.113 -0.2906 -0.0372 -0.1999
26831W        W42965   4.063  18.568   0.732 -0.1676  0.1830 -0.2397
26832W        W42966   6.241  15.202   3.042 -0.1395  0.0901  0.0470
26833W        W42967  17.605   8.521  14.796  0.0087 -0.2972  0.1385
26834W        W42968   9.142  18.728   4.988  0.1647  0.0966  0.4035
26835W        W42969  14.372  17.242  11.490  0.0712  0.1224 -0.5503
26836W        W42970   8.731  18.414   3.099 -0.0060  0.2920  0.0199
26837W        W42971   6.986   2.362   5.341  0.1438  0.1182  0.2368
26838W        W42972   2.061  15.807  14.863  0.1727 -0.0372 -0.0406
26839W        W42973   1.121  17.037   4.426 -0.1921  0.2065 -0.0147
26840W        W42974  14.198   5.874   2.348 -0.0790  0.0828 -0.0277
26841W        W42975   4.881  11.266  10.855 -0.1232  0.2900  0.0810
26842W        W42976  12.341   2.772   4.267 -0.2982  0.0783  0.1038
26843W        W42977   5.497  12.469   0.209  0.0378  0.2112  0.4112
26844W        W42978   0.234   7.787   4.228 -0.2645 -0.4635  0.1631
26845W        W42979  12.128   5.249   4.903 -0.5372 -0.1739 -0.1572
26846W        W42980   8.293  14.525   0.019 -0.1273  0.0333  0.1030
26847W        W42981   4.614   4.251  14.190 -0.2332 -0.0002 -0.0472
26848W        W42982   9.936   9.910   4.324 -0.3560 -0.4231  0.0551
26849W        W42983   6.151   2.235  13.636 -0.1168  0.0712 -0.0591
26850W        W42984  18.266  10.779   1.434  0.1274 -0.2641  0.1380
26851W        W42985  13.126   2.228   0.354  0.0674 -0.5005  0.1322
26852W        W42986  14.631  15.430  13.293 -0.0162  0.0109  0.3555
26853W        W42987   9.084  14.748   3.554 -0.4160 -0.2250 -0.0048
26854W        W42988  19.227  11.332   4.316 -0.0159  0.1710 -0.0310
26855W        W42989  16.790  19.261   2.015 -0.0795  0.0350 -0.0247
26856W        W42990  16.206  18.390   5.007 -0.3504  0.1903 -0.3618
26857W        W42991  17.961  13.095   4.631  0.2010  0.1168 -0.3266
26858W        W42992   1.796  17.850   4.252 -0.1142  0.1081  0.2428
26859W        W42993  11.155  17.952  11.692 -0.0513  0.0812  0.1773
26860W        W42994  17.510  11.184   2.293 -0.2962  0.1174  0.1845
26861W        W42995   5.822   9.983  10.867 -0.0999  0.2054  0.0499
26862W        W42996   4.191  16.209   0.327 -0.0151  0.2746 -0.1551
26863W        W42997  11.239  17.593  12.954  0.1050  0.0257 -0.2064
26864W        W42998  10.464   2.392   1.720 -0.1389  0.1752  0.0395
26865W        W42999  14.525   9.315   2.298 -0.1100  0.2233  0.0083
26866W        W43000  18.395   7.197   0.422  0.1250  0.1550  0.2308
26867W        W43001   4.489  17.610   1.336  0.1864 -0.0775 -0.0474
26868W        W43002   5.067  16.990   0.816  0.0431  0.3091 -0.0513
26869W        W43003  14.982  12.468  11.411  0.0046 -0.1619 -0.0638
26870W        W43004   6.992  13.462   0.619  0.1401 -0.4114  0.1835
26871W        W43005   8.360  13.642  10.893 -0.0791  0.0703  0.0928
26872W        W43006   5.213  14.552   5.174 -0.5535 -0.4373 -0.4555
26873W        W43007  12.688  11.027   1.640  0.0778  0.1806  0.1202
26874W        W43008   4.813  18.353  11.050 -0.2353  0.0580  0.0030
26875W        W43009   6.268   3.937  11.877  0.0090  0.0777  0.1078
26876W        W43010   6.068   2.176  11.175 -0.1064 -0.2294 -0.0737
26877W        W43011  16.895  15.566   3.772  0.1725  0.0307  0.1201
26878W        W43012  12.429  11.297   1.271  0.1075 -0.0553 -0.1149
26879W        W43013  10.915   1.499  14.363 -0.0303  0.3086 -0.1847
26880W        W43014  11.662  10.460   0.420 -0.0049 -0.1796  0.1817
26881W        W43015  16.298   5.200  12.228 -0.0828  0.0013  0.0227
26882W        W43016   7.990   2.534   0.639  0.0768  0.1041  0.4727
26883W        W43017   6.835  18.848  12.951 -0.4821 -0.1703 -0.0493
26884W        W43018   0.602  13.563   4.441  0.0315  0.1518 -0.2082
26885W        W43019  14.986  15.487   3.574 -0.2045  0.0168 -0.2101
26886W        W43020  11.797   3.090   4.301  0.0359 -0.1630  0.0246
26887W        W43021   5.001  10.567  11.736  0.0245 -0.0678 -0.0456
26888W        W43022   2.012   6.331  14.731  0.3085 -0.0018 -0.1315
26889W        W43023  14.436   7.806  11.539 -0.1402 -0.2310  0.0609
26890W        W43024  16.432   0.912   4.100  0.2268 -0.0871  0.0959
26891W        W43025   2.461   3.659  14.758 -0.1137 -0.2695  0.0705
26892W        W43026   6.176   7.508   4.757 -0.1383 -0.0891  0.2216
26893W        W43027   0.869   9.746  14.283 -0.2655 -0.0192 -0.0349
26894W        W43028  14.906  13.643  10.753  0.0033  0.4156 -0.2849
26895W        W43029  13.483  16.249   1.768  0.3386 -0.5476 -0.0225
26896W        W43030   1.216   2.071   1.996  0.2832  0.2405 -0.1674
26897W        W43031  14.849   4.911  10.642 -0.1034  0.0167 -0.0067
26898W        W43032  11.285   7.820  12.771 -0.0573 -0.0304  0.1737
26899W        W43033  13.052  17.918   0.097  0.0545  0.1365 -0.1830
26900W        W43034   3.785  10.118  14.224 -0.3989  0.1813 -0.1764
26901W        W43035  16.016   4.683  14.241  0.1716 -0.0528  0.0220
26902W        W43036   3.495   4.403   4.468  0.2796 -0.0778 -0.3028
26903W        W43037   1.026   3.861   2.057  0.0616  0.0348  0.3983
26904W        W43038   0.211   6.265  14.823 -0.1517  0.5080 -0.2919
26905W        W43039   6.667  14.497  14.619  0.1115  0.1787 -0.2903
26906W        W43040   4.785   4.988  13.040  0.5306 -0.3174  0.1233
26907W        W43041  16.046  14.727  11.093 -0.2256 -0.2779  0.3819
26908W        W43042   0.686   1.944  11.126 -0.1964  0.0563  0.0509
26909W        W43043  13.064   1.074   5.343  0.0383  0.0261 -0.0283
26910W        W43044   3.545   4.791  14.598  0.1545 -0.0882 -0.1155
26911W        W43045  10.811   4.289   0.816  0.0355  0.0605  0.0665
26912W        W43046  13.110   4.488  11.541  0.0772  0.2838 -0.1140
26913W        W43047  10.905   7.187  11.334 -0.0910  0.1076  0.0547
26914W        W43048   2.479  15.189   4.115  0.2081 -0.5839 -0.0799
26915W        W43049  13.540   8.518   1.234 -0.0330  0.0339 -0.2304
26916W        W43050  17.957  19.316   0.221  0.2600  0.0497  0.0090
26917W        W43051  11.029   6.568  12.296 -0.1986  0.0022 -0.0768
26918W        W43052   7.887   4.012   4.582 -0.0632 -0.0020  0.0851
26919W        W43053   1.950  18.693  10.508 -0.0325 -0.0413  0.0280
26920W        W43054   3.730   1.560   2.283 -0.0216 -0.2347  0.1165
26921W        W43055  18.687  17.475  12.205 -0.0851 -0.1593  0.2078
26922W        W43056   8.223  18.097  10.761  0.3091  0.1584 -0.1086
26923W        W43057   4.326  15.367   0.352 -0.0407 -0.3590  0.0067
26924W        W43058   5.170   1.408  11.350 -0.0510  0.1453  0.0798
26925W        W43059   2.355   5.778   1.983 -0.2987 -0.0886 -0.2569
26926W        W43060  18.699   5.654   5.369  0.1734  0.0784  0.0657
26927W        W43061   6.486  14.351   4.389  0.0652  0.2951  0.0084
26928W        W43062  10.827  17.423   1.893  0.2900 -0.0238  0.2703
26929W        W43063   3.627   7.262  10.685  0.0917  0.1607 -0.1020
26930W        W43064  10.512  12.660   0.226 -0.0207  0.0977  0.0692
26931W        W43065   4.155  15.156  13.227 -0.1937  0.2697  0.2577
26932W        W43066  18.931   4.285   2.525  0.2732 -0.1384  0.2023
26933W        W43067   1.490   5.325   3.772  0.0113 -0.4078 -0.0180
26934W        W43068   0.682   4.675  12.784 -0.1955 -0.1644 -0.0143
26935W        W43069  17.162  10.660   5.878 -0.3806 -0.1351 -0.0529
26936W        W43070   2.404  10.791   0.283 -0.0383  0.3375  0.1314
26937W        W43071   7.769   5.498   0.458  0.1233  0.2266  0.2627
26938W        W43072   5.062  13.517   2.723 -0.0095 -0.3022  0.0105
26939W        W43073   7.783   9.721  11.846  0.0432 -0.1186 -0.0797
26940W        W43074  14.713  12.559   1.394  0.2581 -0.2279 -0.2222
26941W        W43075  15.621   1.322   4.438  0.1796  0.1792  0.3114
26942W        W43076  15.051   9.482  13.666 -0.0429 -0.0223 -0.1619
26943W        W43077  17.687   2.012   0.285  0.2056  0.0066 -0.0483
26944W        W43078  15.931  11.411  14.630  0.1432  0.1059  0.1124
26945W        W43079  14.734  16.754   2.827 -0.0531 -0.0262 -0.1376
26946W        W43080  17.888  15.010  11.832  0.0400 -0.1134 -0.3332
26947W        W43081   1.341   2.232  12.737 -0.2369 -0.0713 -0.2825
26948W        W43082   1.492   3.286   2.590  0.0461 -0.2911 -0.0430
26949W        W43083  13.871   3.067  14.969  0.0716 -0.1072 -0.0001
26950W        W43084   2.604  16.920  10.697 -0.0947 -0.2466 -0.3429
26951W        W43085  12.057  12.129   1.916 -0.0851 -0.2513  0.1390
26952W        W43086  18.343  12.317  11.355  0.0147 -0.0773 -0.1743
26953W        W43087   2.491  13.369  14.077 -0.2036 -0.4200 -0.1593
26954W        W43088  16.999  15.966   3.384  0.2419  0.1315  0.1799
26955W        W43089   3.068  14.421   1.070 -0.1265  0.1429  0.0505
26956W        W43090   2.571   3.689   2.066  0.1208  0.0304  0.0665
26957W        W43091   0.245  18.477   1.326  0.0155 -0.2415 -0.0655
26958W        W43092  14.099   7.508   9.333 -0.1884  0.0245  0.4179
26959W        W43093  18.961  12.103  12.834  0.0007 -0.0761 -0.2032
26960W        W43094   9.661   1.026   3.915  0.3326 -0.0964  0.0125
26961W        W43095  11.941  13.629  13.699  0.1575  0.1573  0.1326
26962W        W43096   3.063  12.638   1.749 -0.0581 -0.0370 -0.0014
26963W        W43097   5.585  11.246   3.494  0.2435 -0.2150  0.3068
26964W        W43098  19.087   4.519  14.870 -0.0815 -0.3948 -0.3481
26965W        W43099  13.595   4.120   3.965 -0.1126 -0.0087 -0.0425
26966W        W43100   5.398   0.595  12.842 -0.0906 -0.2231  0.3365
26967W        W43101  11.705  10.146  10.766 -0.1572 -0.0238 -0.2298
26968W        W43102  14.337  15.886   1.618 -0.1480 -0.2051  0.0089
26969W        W43103   2.594  11.705   2.713  0.1847 -0.2986 -0.1465
26970W        W43104   8.169   7.870   4.700 -0.2750  0.1923 -0.0921
26971W        W43105   4.170   3.854   0.953 -0.3173  0.5158  0.2736
26972W        W43106  15.112  19.291   0.823 -0.1875 -0.0262 -0.1487
26973W        W43107   3.123   6.564  10.310 -0.2770  0.2215 -0.0205
26974W        W43108  15.076   7.677   4.746  0.1148 -0.0120  0.0872
26975W        W43109   2.758   9.108  12.727  0.3197  0.4530 -0.2425
26976W        W43110  11.219   9.358   2.357 -0.2758  0.2899 -0.2899
26977W        W43111   1.826  14.081   0.671  0.1388  0.0068 -0.0441
26978W        W43112   4.975  13.662  11.838  0.0955  0.1271  0.1049
26979W        W43113  15.336  14.138   0.669 -0.0480  0.2430 -0.1026
26980W        W43114   5.912  19.029   3.217  0.0946 -0.1869  0.2108
26981W        W43115  17.937  11.529   2.404 -0.1986 -0.2407  0.0033
26982W        W43116   8.027  15.058   2.083 -0.1027 -0.0119  0.0272
26983W        W43117   4.045  12.433   3.668 -0.1543  0.1641  0.1031
26984W        W43118   3.602  13.476   3.638 -0.0290 -0.0269 -0.1220
26985W        W43119  12.552  17.355  12.781  0.1933  0.1473  0.1264
26986W        W43120   7.615  17.451  13.273 -0.1449  0.0936 -0.1662
26987W        W43121  15.690   3.143  10.611 -0.2504  0.3136  0.1342
26988W        W43122  14.778  11.910   4.365 -0.1624 -0.0385 -0.2523
26989W        W43123   4.573  18.390  13.502 -0.0548 -0.1852 -0.3465
26990W        W43124  14.584   6.415   3.948  0.0117 -0.2628 -0.1449
26991W        W43125   2.316  10.578  10.947 -0.1258 -0.0024 -0.3042
26992W        W43126  11.908  16.147  11.592 -0.2526 -0.1218 -0.0051
26993W        W43127  15.944   9.365   2.099 -0.0930  0.0514 -0.0062
26994W        W43128   7.562  19.160  14.090  0.0341  0.2185  0.1005
26995W        W43129   3.245   5.070   3.174 -0.0766 -0.1441  0.2863
26996W        W43130   0.380  15.693  10.782  0.0971 -0.1175  0.2729
26997W        W43131   8.180  10.339  13.138 -0.0683 -0.3753 -0.0358
26998W        W43132  17.170  15.885  12.906  0.1376  0.0098  0.3090
26999W        W43133  18.610   3.294  14.711  0.0109 -0.2582  0.1510
27000W        W43134  15.334   2.729  12.639  0.0440 -0.3426 -0.2095
27001W        W43135  10.175  17.575   0.828 -0.2004  0.2746  0.1092
27002W        W43136   5.391   0.682   2.330  0.1651 -0.6172 -0.1752
27003W        W43137  13.584  10.300  13.620 -0.1579 -0.1079 -0.1477
27004W        W43138   2.132  18.820   2.590  0.1213  0.2244 -0.0378
27005W        W43139  11.899  12.521   1.578  0.1726  0.1702  0.2004
27006W        W43140  16.518  15.898  11.552  0.2216 -0.1278 -0.2534
27007W        W43141   7.471   0.939  10.839 -0.2568  0.0951 -0.0354
27008W        W43142   0.152   4.337   1.821  0.0473 -0.0529 -0.1963
27009W        W43143  17.275   9.815   0.463 -0.3075 -0.0947  0.2275
27010W        W43144   5.461   5.734  13.303  0.3466  0.1892  0.1899
27011W        W43145  19.323   2.491   1.924 -0.1080 -0.3995  0.2001
27012W        W43146  17.422   2.602   9.235 -0.0317  0.0156  0.4140
27013W        W43147  12.885  18.104  12.326 -0.2234 -0.1388  0.4598
27014W        W43148   8.607  16.998  11.155  0.1483 -0.0568  0.0224
27015W        W43149  10.650   5.807   4.869  0.0314 -0.0931 -0.1439
27016W        W43150   1.794   3.159  14.149 -0.1461  0.1768 -0.1023
27017W        W43151   7.195  11.418  14.301  0.1164  0.2508  0.2171
27018W        W43152   5.091  18.978   4.381  0.2102  0.2661  0.1295
27019W        W43153   7.449  14.555   1.412  0.1339  0.2431  0.0505
27020W        W43154   4.651   2.825  11.932  0.1282  0.1949  0.1135
27021W        W43155  14.420   0.422  11.283 -0.0781 -0.0819  0.0734
27022W        W43156  11.567  13.703   0.523  0.3204  0.0207 -0.0655
27023W        W43157  15.211  17.632  10.013  0.0385  0.0236 -0.0213
27024W        W43158  15.871   0.209  11.770  0.1237  0.2171 -0.1418
27025W        W43159   8.036   3.189  12.070  0.0002 -0.2347 -0.3822
27026W        W43160   4.426   2.963  11.475  0.1065 -0.1878  0.4660
27027W        W43161  10.592  17.930   1.159 -0.1185 -0.2279  0.1101
27028W        W43162  14.348  13.015  10.755  0.1431  0.6388 -0.1147
27029W        W43163   4.954  17.535  12.267 -0.2948  0.1778  0.0504
27030W        W43164   0.520   2.897  13.545  0.1446 -0.4230 -0.0297
27031W        W43165  10.643   5.585   1.707 -0.1195  0.0725 -0.3655
27032W        W43166  14.298  14.809  14.422  0.2957 -0.0039  0.3838
27033W        W43167  16.422  12.789   1.870  0.0266  0.1539 -0.4482
27034W        W43168  13.390  10.226   2.669 -0.0100  0.0469  0.0931
27035W        W43169   9.851  15.490  11.671 -0.2478 -0.0228  0.0461
27036W        W43170  15.311   4.155   1.900  0.1437 -0.1114  0.0486
27037W        W43171   1.693   4.638   2.357 -0.2680  0.0597  0.1661
27038W        W43172   6.058   5.847  12.481  0.2957 -0.1799 -0.4185
27039W        W43173  14.839   2.704  12.948 -0.0702  0.4070  0.0418
27040W        W43174  19.179  11.928   0.210 -0.2197  0.0364  0.1301
27041W        W43175  19.129   6.574   0.902  0.1245 -0.1308 -0.2369
27042W        W43176  15.519  15.878  10.523  0.0680  0.0091 -0.0490
27043W        W43177   1.737  18.491   1.491  0.4548 -0.1702 -0.0751
27044W        W43178   6.599  19.180   3.906  0.0477 -0.0799  0.1023
27045W        W43179  11.386   1.536   0.661 -0.0811 -0.0771 -0.1374
27046W        W43180   6.494  14.461  12.589  0.2893 -0.1321  0.0896
27047W        W43181   0.201   3.956   0.917 -0.0498 -0.0256  0.1750
27048W        W43182  18.663  14.987  11.336  0.2562  0.1368 -0.4267
27049W        W43183   4.234   0.698   0.400  0.1600  0.0268 -0.1026
27050W        W43184  18.281  17.271   1.294 -0.2392  0.0541  0.2641
27051W        W43185  18.622  13.155   3.921 -0.2898 -0.0251  0.0585
27052W        W43186   1.638   1.347   4.677  0.0299 -0.1007  0.0780
27053W        W43187   8.233   1.077   4.472  0.2432 -0.1506  0.1295
27054W        W43188  11.797  15.634  11.711  0.1810 -0.3138  0.0867
27055W        W43189   8.146   3.288  14.874  0.5266  0.2731 -0.0159
27056W        W43190  17.852  14.361   4.740  0.3501  0.0448 -0.0291
27057W        W43191  14.823  10.262  10.438  0.1041  0.0465 -0.0369
27058W        W43192   5.184   0.579  13.979 -0.0806 -0.1016 -0.0024
27059W        W43193   3.112  16.620  14.666  0.0949 -0.0170  0.0896
27060W        W43194  16.702   5.628  12.409  0.1331 -0.0266  0.1681
27061W        W43195  11.153   6.728   0.230  0.1265  0.1889 -0.3409
27062W        W43196   1.505   0.944  13.329  0.0088 -0.1017 -0.0548
27063W        W43197   4.207   3.792  12.307 -0.0418  0.1061 -0.1047
27064W        W43198   4.580   2.242   4.381 -0.3437  0.1400 -0.2050
27065W        W43199  18.560  16.772   1.973  0.1069  0.1005  0.2440
27066W        W43200   1.479  15.394   1.279 -0.2135 -0.1378 -0.1564
27067W        W43201  12.514  15.817   0.478  0.0433 -0.1624 -0.2568
27068W        W43202  17.949  14.140   1.316  0.0234 -0.3247  0.1704
27069W        W43203  19.201   7.103   2.766 -0.0107  0.1025  0.0846
27070W        W43204   1.998  11.066   1.528 -0.2204 -0.1230  0.2142
27071W        W43205   1.565  17.926  12.142  0.1225  0.2750 -0.2961
27072W        W43206   7.130  18.357  13.110 -0.2409  0.0787  0.1000
27073W        W43207   3.891   1.821  11.349 -0.0855 -0.4366 -0.2906
27074W        W43208   9.130  13.588   1.966 -0.1656  0.1969  0.1026
27075W        W43209  11.705   0.766  14.412 -0.1897 -0.3034  0.2335
27076W        W43210  16.450  14.992  12.384  0.1805  0.0190 -0.2766
27077W        W43211   3.991  17.551   1.688  0.2303  0.1196 -0.0683
27078W        W43212  12.676   8.627   3.759  0.0966  0.1861  0.2336
27079W        W43213   1.404   8.501   4.682  0.3179  0.0910  0.0768
27080W        W43214  17.522   1.767   5.342 -0.0604 -0.1115 -0.1101
27081W        W43215   9.929  11.761  12.908  0.0692 -0.3410 -0.2410
27082W        W43216  17.141  16.922   3.068 -0.1845 -0.3128 -0.0369
27083W        W43217   4.699   5.646  14.185  0.1606  0.4198  0.3613
27084W        W43218  16.803   1.617   4.633  0.5327  0.3371  0.0224
27085W        W43219  11.977   2.409   3.469 -0.2962  0.2482  0.2910
27086W        W43220  18.400  11.689  13.787  0.0401  0.0838  0.1394
27087W        W43221  11.278  14.232   2.158  0.1655 -0.0295  0.1930
27088W        W43222  15.410   7.447  10.825  0.0476 -0.1939  0.3735
27089W        W43223   4.052  10.275   1.434  0.3279  0.1542  0.0588
27090W        W43224   9.861  15.310  10.288 -0.0501  0.0308  0.0792
27091W        W43225   7.845   5.141  10.586 -0.1474  0.1113  0.0984
27092W        W43226   8.158  19.032  10.755 -0.1692  0.2102 -0.1350
27093W        W43227   1.728   1.440  14.291 -0.1171 -0.1974  0.2706
27094W        W43228  17.750   3.757   3.804  0.0612 -0.2610 -0.0502
27095W        W43229   4.133  10.377  13.313 -0.0109  0.3061 -0.0937
27096W        W43230   9.434  13.358   5.619 -0.0405  0.1560  0.0399
27097W        W43231  17.160  10.342   0.206 -0.2000  0.0230  0.0502
27098W        W43232   4.082   6.388  11.856 -0.0580  0.0679  0.1744
27099W        W43233   9.798   1.917   6.455 -0.2782  0.1279  0.0667
27100W        W43234   0.356   3.829   3.131  0.4367 -0.1352 -0.2612
27101W        W43235  14.586  10.788  12.468 -0.0601 -0.1530 -0.1123
27102W        W43236  18.675  11.858   1.814  0.0269 -0.0583 -0.0536
27103W        W43237   4.429   3.589   1.280 -0.2012  0.0398  0.1299
27104W        W43238  13.773   1.043  11.126 -0.0971  0.1933  0.2286
27105W        W43239   0.925  16.319  10.795  0.2603 -0.0151 -0.2289
27106W        W43240   2.490  16.851   0.844  0.0052 -0.4185 -0.3558
27107W        W43241  16.238  13.385   5.700 -0.0842 -0.1131 -0.0354
27108W        W43242  18.309   7.260   3.643  0.0684  0.4732 -0.0515
27109W        W43243  11.048  10.462  10.207  0.1801  0.0036  0.0926
27110W        W43244   3.780   5.169   2.729  0.0030 -0.3486  0.1891
27111W        W43245  10.658   8.116  11.189 -0.5035 -0.2777 -0.1324
27112W        W43246  16.016   4.010   4.585  0.1352  0.1372  0.1006
27113W        W43247   7.038  16.441   1.478  0.3585  0.0010 -0.1860
27114W        W43248   5.994  14.318   4.326 -0.3693  0.0266 -0.0841
27115W        W43249  13.929   5.923   3.268  0.0761 -0.1970 -0.3599
27116W        W43250   2.454   3.633   0.321  0.1743 -0.2695 -0.2762
27117W        W43251  11.897  16.807   0.671  0.1139  0.0063  0.3208
27118W        W43252   9.051  19.199  13.545 -0.0787  0.2575  0.0059
27119W        W43253  16.191  12.748  11.822 -0.0934  0.1472 -0.0807
27120W        W43254  12.623   9.748  11.290 -0.2010  0.0981 -0.0110
27121W        W43255   9.141   5.860   3.118  0.0685 -0.0381  0.2597
27122W        W43256   7.181   2.414  14.498 -0.0828  0.0719 -0.1057
27123W        W43257  14.900  12.421  10.785  0.0933  0.1600 -0.1939
27124W        W43258   4.389  12.818   1.280  0.3675 -0.0908  0.3694
27125W        W43259   2.407  12.237  13.452  0.2929 -0.1511 -0.1277
27126W        W43260  17.568   4.101  14.089 -0.0685  0.0042  0.1673
27127W        W43261   4.116  14.665  13.482  0.3144  0.2207 -0.0720
27128W        W43262  12.506  18.417  11.055 -0.1982 -0.3956 -0.3029
27129W        W43263  19.165   5.696   1.301 -0.1574 -0.3241  0.2173
27130W        W43264  11.844   4.293  13.378  0.3075  0.0127  0.1288
27131W        W43265  10.379   3.809  11.830  0.2389 -0.0330 -0.0534
27132W        W43266  16.944  17.909   0.745  0.1069 -0.1673  0.2516
27133W        W43267   5.571   8.707   0.703  0.0444  0.1719 -0.0798
27134W        W43268   2.228  13.001  11.597 -0.0828 -0.1041 -0.1278
27135W        W43269   7.215   2.101   0.208  0.4092 -0.0964 -0.2484
27136W        W43270  11.827  13.496  11.674  0.1582 -0.0425 -0.0578
27137W        W43271   9.576   9.132   0.946  0.0241 -0.0518 -0.0182
27138W        W43272  15.126   7.482   3.206 -0.0259  0.0966  0.4134
27139W        W43273   2.258  19.206  12.813 -0.0151  0.1609  0.1260
27140W        W43274   3.498  10.792  12.260 -0.0789 -0.2943 -0.0952
27141W        W43275   8.175  11.407  10.365 -0.0416  0.2707 -0.1580
27142W        W43276  11.785  10.390   1.850 -0.1558  0.5356  0.2098
27143W        W43277  13.755   1.429   3.984  0.2660  0.0907 -0.1641
27144W        W43278  14.732  18.295   0.657  0.1431  0.0946  0.4454
27145W        W43279  16.617  11.365  14.478 -0.2026 -0.1957 -0.1940
27146W        W43280  18.581   8.471   5.084  0.2307  0.0848  0.2400
27147W        W43281   8.692  13.955   4.903  0.1841  0.0053  0.2416
27148W        W43282   5.258   7.439  12.118 -0.1559  0.0987  0.4676
27149W        W43283  17.683   6.091   3.948 -0.0085  0.1378 -0.4407
27150W        W43284  11.165  14.134  10.772 -0.0858  0.3814  0.0339
27151W        W43285  17.453   9.184  11.362  0.0796  0.0455 -0.1414
27152W        W43286   5.204  12.594  12.164 -0.0950  0.3056  0.2250
27153W        W43287  13.161  16.966  10.754  0.0006 -0.0129  0.1872
27154W        W43288   9.209  17.383  10.512 -0.0347 -0.2817  0.1594
27155W        W43289   0.804  19.306   1.298  0.2558  0.1113 -0.1076
27156W        W43290   4.187   3.178   1.552  0.1139 -0.1008 -0.1435
27157W        W43291   7.603  13.362  14.217  0.2462 -0.0926 -0.2767
27158W        W43292   7.134  14.753  13.794 -0.1065  0.0353 -0.0504
27159W        W43293  15.897   9.450  11.151  0.4481  0.1376  0.0669
27160W        W43294  12.991   0.246  13.956 -0.0783 -0.2682  0.0038
27161W        W43295   1.742   9.483   4.503  0.3177  0.3398 -0.4431
27162W        W43296   9.936   3.848   3.924  0.2318  0.2344  0.1389
27163W        W43297   7.486  10.711   1.649  0.0069  0.0117 -0.0542
27164W        W43298  10.521   1.023  13.342 -0.1039  0.1649 -0.3414
27165W        W43299  10.115   8.667  11.010  0.1973 -0.1371 -0.4090
27166W        W43300   7.459   4.863  10.408 -0.3238 -0.1330 -0.3318
27167W        W43301   9.690  16.532   3.656 -0.2639 -0.1575 -0.1491
27168W        W43302  11.503  15.355   2.868 -0.1014 -0.1221 -0.0146
27169W        W43303   4.969  18.687   4.812 -0.0034 -0.2767 -0.1052
27170W        W43304  10.349   3.495   4.573  0.3169  0.1970  0.3519
27171W        W43305   0.563  14.959   0.521  0.2524  0.1590 -0.0097
27172W        W43306  15.167  13.746  14.867  0.2892 -0.5173 -0.2634
27173W        W43307  10.304  18.503  10.815  0.1521  0.2810 -0.0531
27174W        W43308   7.238   7.519  10.703 -0.1018 -0.2420 -0.0834
27175W        W43309   0.238   2.977   0.872 -0.1432 -0.0590  0.3568
27176W        W43310  10.696   0.472   4.226  0.2120  0.3716  0.1094
27177W        W43311   5.803   6.824  10.517 -0.1421  0.0107 -0.2772
27178W        W43312   1.862   9.105  14.977  0.0160 -0.0551  0.1182
27179W        W43313  16.786   5.006   9.823  0.0943  0.1458  0.3377
27180W        W43314   5.133   9.400   4.712  0.0951  0.1525 -0.1625
27181W        W43315  11.504   4.796  14.037  0.1905 -0.0633  0.0296
27182W        W43316   9.966   1.786  12.331  0.1305  0.1417  0.2112
27183W        W43317   7.668   7.582  13.793  0.0932  0.0669  0.0096
27184W        W43318   9.215  15.201  11.914  0.0672 -0.0799  0.1196
27185W        W43319   9.507  16.546  14.340 -0.1070 -0.0281  0.3158
27186W        W43320   4.457  10.905  12.403  0.1597 -0.1546  0.0430
27187W        W43321  16.804   0.980  12.244 -0.0138  0.0425 -0.2003
27188W        W43322  14.490   0.146  14.344  0.3745  0.0189  0.0962
27189W        W43323  11.576  14.051   5.049  0.2668  0.0510 -0.3741
27190W        W43324   5.600  11.568   4.272 -0.0702  0.2277 -0.0514
27191W        W43325   6.074  16.765   1.379  0.0444 -0.0850  0.1514
27192W        W43326  16.085   6.554   2.868 -0.2954  0.1657  0.0031
27193W        W43327  16.094  18.890  11.861  0.0764  0.0046 -0.0169
27194W        W43328   8.072  18.001   3.609 -0.3224  0.1737 -0.0288
27195W        W43329  14.015   9.202  14.501  0.0326  0.0863 -0.0715
27196W        W43330   7.850   0.682  14.553 -0.0619 -0.1966  0.0353
27197W        W43331  13.553   1.616   3.532  0.0837 -0.0353 -0.3316
27198W        W43332   8.018   4.881   0.324 -0.1083  0.3395  0.0847
27199W        W43333  13.636  12.307  12.288 -0.2945 -0.0829 -0.2289
27200W        W43334  15.072   9.022   4.314  0.1474 -0.0821  0.0212
27201W        W43335   5.318   0.534   4.345 -0.2704 -0.1529 -0.0316
27202W        W43336   6.259  14.016  13.969 -0.1188  0.0079  0.1075
27203W        W43337  18.685  10.389   3.929 -0.4652 -0.1143 -0.1532
27204W        W43338   9.752  18.758   1.477 -0.0829  0.1289  0.2281
27205W        W43339   0.082   4.214  13.011  0.3360  0.0101  0.1812
27206W        W43340   5.788  13.631   4.767 -0.1034 -0.0364  0.2963
27207W        W43341  14.509  13.237   2.723 -0.0160 -0.0309  0.1724
27208W        W43342   3.615   4.915  11.398  0.1022 -0.0538 -0.0483
27209W        W43343  16.010  13.880   2.741 -0.5636 -0.2475 -0.1989
27210W        W43344  12.158  14.462  12.024 -0.0611  0.0900 -0.1621
27211W        W43345  12.517  10.907   4.464 -0.0889 -0.1642  0.1480
27212W        W43346   7.457  18.070  14.257  0.1243  0.2850  0.0253
27213W        W43347  10.439  14.635   0.434  0.0649 -0.2848 -0.2384
27214W        W43348  15.401   1.106  11.776 -0.2674  0.2966 -0.2561
27215W        W43349   3.217  11.040   2.544  0.1418 -0.0286 -0.2488
27216W        W43350  13.384   1.650  11.580 -0.0896  0.1780 -0.1014
27217W        W43351   8.777  12.445  14.637 -0.1860  0.0068 -0.0077
27218W        W43352   6.682   3.833   2.150 -0.0522 -0.2775  0.0839
27219W        W43353  17.685   9.323   4.939  0.0361 -0.1339  0.0386
27220W        W43354  15.969   8.285   4.770 -0.1389 -0.1532  0.0354
27221W        W43355   3.864  10.047  11.733 -0.1183  0.0755  0.0279
27222W        W43356   1.172   3.272  11.564 -0.2726 -0.1965 -0.0563
27223W        W43357   6.440   6.786   1.495 -0.1459  0.3075  0.0256
27224W        W43358  18.817   9.372  14.586 -0.1894 -0.1508  0.1132
27225W        W43359   8.018  12.866  13.511 -0.0182  0.1721  0.0413
27226W        W43360   4.295   4.959  13.387  0.0231  0.2256  0.0211
27227W        W43361  14.420  16.951   2.447 -0.1273  0.0721  0.2416
27228W        W43362  11.731  15.134  13.659 -0.0454 -0.2046  0.0592
27229W        W43363   6.676   2.687   2.962 -0.2979 -0.3049  0.2444
27230W        W43364   1.196  15.550  10.211  0.1594  0.1653 -0.0677
27231W        W43365   3.182   8.221   1.780  0.3511 -0.2060  0.0629
27232W        W43366   6.404   9.717  12.834 -0.2373 -0.0081 -0.1152
27233W        W43367   7.760  13.337   2.290 -0.0179  0.0122  0.1085
27234W        W43368  14.997   0.787   3.609  0.1378 -0.0190  0.0187
27235W        W43369  11.734  13.329   2.400 -0.2064  0.1126  0.0242
27236W        W43370  12.785   6.657   0.808 -0.0187  0.2155  0.1744
27237W        W43371  11.501   8.644   3.356  0.0102  0.1739  0.1255
27238W        W43372   5.809  11.353   0.449 -0.0372  0.0583  0.2988
27239W        W43373  16.878   4.643   1.263  0.0016  0.0219  0.2611
27240W        W43374   2.367   0.275  14.002  0.1932 -0.2543  0.1258
27241W        W43375   1.746  16.586  12.145  0.0126  0.1421  0.0004
27242W        W43376  16.952   6.988   3.100  0.2742 -0.1780 -0.2217
27243W        W43377   8.191   9.351   0.008  0.2247  0.3143 -0.0933
27244W        W43378  17.840  15.318  14.237  0.2743  0.0214 -0.2743
27245W        W43379  12.451   3.218  10.439  0.1845  0.1506 -0.1307
27246W        W43380  11.196  14.272  13.474  0.4108  0.2767 -0.3045
27247W        W43381   4.809   7.798  11.915  0.1670 -0.0800 -0.0480
27248W        W43382   0.385   3.364   3.018 -0.0644 -0.1406  0.2182
27249W        W43383   7.872  12.973  11.750  0.0835  0.1122 -0.5156
27250W        W43384   6.910   5.069   1.344  0.2175  0.2236  0.2572
27251W        W43385   7.999  10.729  13.998  0.1804  0.0293  0.1477
27252W        W43386   1.787  16.610   1.708  0.0771 -0.0734  0.1794
27253W        W43387  19.062  15.373   5.110  0.1942  0.0722 -0.2002
27254W        W43388   3.243   6.079  13.039  0.0297 -0.3643 -0.1206
27255W        W43389   5.766   6.555   2.925 -0.1777  0.1186  0.1725
27256W        W43390  11.442  17.578   3.423 -0.2154 -0.1377  0.1783
27257W        W43391  19.270   6.397  13.521 -0.1182 -0.1164  0.1705
27258W        W43392  16.810   0.681  14.382  0.0784  0.0178 -0.0811
27259W        W43393  17.556   7.970   1.616 -0.3255 -0.1724  0.0608
27260W        W43394  15.957   1.225   3.034 -0.1683  0.4107 -0.0235
27261W        W43395  10.354   9.772  11.935  0.2019 -0.0861 -0.0231
27262W        W43396  18.697  11.218   0.377 -0.1174 -0.1413 -0.2084
27263W        W43397   4.407   6.437   1.163 -0.2522  0.2282  0.3072
27264W        W43398  12.591  17.617  13.728  0.0686  0.0161 -0.0132
27265W        W43399   3.298  10.092  13.376  0.0869 -0.2254  0.2805
27266W        W43400  17.804   4.877  14.640 -0.2643 -0.0521 -0.0297
27267W        W43401   0.179  13.848  13.342 -0.0450 -0.0583 -0.4963
27268W        W43402  16.505  15.606  13.533 -0.1638 -0.2519 -0.0313
27269W        W43403  11.891  12.040  11.210 -0.0700  0.2960 -0.0782
27270W        W43404   4.342   6.102  11.474  0.0050 -0.1921  0.2915
27271W        W43405  15.054   4.797   2.491  0.0322 -0.0616  0.1314
27272W        W43406   8.084  11.749   2.536  0.0756  0.0872 -0.0307
27273W        W43407  17.652  13.252   1.661 -0.1833  0.0724 -0.0726
27274W        W43408  18.971   7.619   0.558  0.1896  0.0231  0.1753
27275W        W43409  13.533  17.079  13.464 -0.0730  0.0013 -0.1031
27276W        W43410  14.137   1.550  13.849 -0.1830  0.0279  0.2412
27277W        W43411  18.031   8.549   5.453  0.2789  0.1081  0.1764
27278W        W43412  14.161  18.038   3.456 -0.1952 -0.2258 -0.2180
27279W        W43413  12.661   9.576   2.471 -0.1631 -0.2185  0.0352
27280W        W43414   5.061   2.074  14.957 -0.1092 -0.2706 -0.2977
27281W        W43415  12.637  15.672  14.197 -0.2942 -0.2041 -0.0536
27282W        W43416   8.189  10.083   2.187 -0.1298 -0.1640 -0.0020
27283W        W43417  10.515  11.222   1.641 -0.2047  0.1408  0.1497
27284W        W43418  18.273  11.701  14.336 -0.0530 -0.1413  0.0880
27285W        W43419  13.168   5.821   0.177 -0.2180 -0.0679  0.2625
27286W        W43420  16.170   4.018   0.830 -0.1836 -0.1985 -0.3007
27287W        W43421   4.527   5.946   0.944  0.1781 -0.1354 -0.1195
27288W        W43422  13.507  10.371  14.332 -0.2024 -0.0465 -0.0972
27289W        W43423   5.670  17.802   1.629  0.4622 -0.0438  0.0070
27290W        W43424  12.501  13.346  13.390  0.2390 -0.1574 -0.0928
27291W        W43425  15.291  11.940   8.989 -0.4484  0.1399 -0.0608
27292W        W43426   0.689   6.951   1.894 -0.0766 -0.1410 -0.1172
27293W        W43427  10.644  12.357  13.972 -0.0871  0.0219 -0.0601
27294W        W43428   3.785  11.860  13.599  0.1969  0.0374  0.3709
27295W        W43429  14.799  10.803  14.273  0.2530  0.1235  0.1113
27296W        W43430   6.338   3.620  12.301 -0.1250 -0.4544 -0.0460
27297W        W43431   5.132  14.554   2.086  0.0886 -0.2551  0.2503
27298W        W43432   8.218   9.332   2.671 -0.0732  0.0342  0.1756
27299W        W43433   7.119  11.250   0.033  0.0426  0.5363  0.0687
27300W        W43434  10.743  12.194   1.304 -0.1968  0.1015 -0.0356
27301W        W43435   8.552  11.309  10.835  0.2665  0.1390 -0.0649
27302W        W43436  16.120  18.720   1.333  0.0249  0.1065 -0.2137
27303W        W43437   1.398  17.605  11.137  0.2394  0.0563 -0.3292
27304W        W43438  11.825  13.443  10.027  0.0262 -0.1385  0.1255
27305W        W43439  17.439  19.040   2.038 -0.1009 -0.0210  0.0100
27306W        W43440  11.786  17.278   3.340 -0.0558 -0.2675  0.0713
27307W        W43441   3.449  13.378  13.638 -0.3285 -0.0643  0.1262
27308W        W43442   7.979   9.126   3.822  0.2376  0.1590 -0.1340
27309W        W43443  10.039  11.442   2.277  0.3212 -0.0072 -0.2730
27310W        W43444   0.136   6.407  13.056  0.1805  0.2244  0.1808
27311W        W43445   5.896   4.620  12.224 -0.2728 -0.2672  0.0897
27312W        W43446   5.110  17.196  11.434  0.0616  0.2509 -0.0613
27313W        W43447  13.910  14.441   0.138  0.3693 -0.1856 -0.0009
27314W        W43448   2.300  12.378   2.987 -0.0698 -0.2161 -0.1108
27315W        W43449   0.957  17.358   1.863  0.0257  0.2756 -0.1085
27316W        W43450  14.214  18.512  13.959 -0.2188  0.1612 -0.0690
27317W        W43451  11.006  11.682   9.687 -0.0854 -0.0695  0.0968
27318W        W43452   8.600  18.814   2.763  0.0710  0.0804  0.1435
27319W        W43453   9.361   9.600   2.013  0.0866 -0.2336 -0.1298
27320W        W43454   6.912  17.062  12.981 -0.0175 -0.3066 -0.0216
27321W        W43455   0.781   1.251  14.410 -0.0863  0.0706  0.1605
27322W        W43456  18.140   8.426   0.610 -0.1460  0.1714  0.1094
27323W        W43457  16.346   1.780   4.686 -0.1099  0.2264  0.0552
27324W        W43458  12.313  11.471  12.032 -0.1455 -0.1255 -0.0445
27325W        W43459   1.895  15.130   1.130 -0.0888 -0.0742  0.3234
27326W        W43460  16.419   7.705   9.767  0.0856  0.2355  0.0995
27327W        W43461   5.451   3.673  13.228 -0.5354  0.1832  0.0032
27328W        W43462  14.956  11.658   1.403 -0.0049 -0.1373  0.0117
27329W        W43463   8.264   6.024  14.448 -0.1420  0.0266 -0.0331
27330W        W43464   7.717   9.556  13.409 -0.0210  0.0497  0.0707
27331W        W43465  13.381   8.643   2.173 -0.0639 -0.2483 -0.0340
27332W        W43466  12.744   3.043  10.939 -0.0682  0.0153 -0.5212
27333W        W43467   5.308   7.910  11.802  0.0077  0.1628 -0.2204
27334W        W43468  19.128  10.550   3.832  0.1860  0.2754  0.1004
27335W        W43469   3.435  18.880  11.246  0.0674 -0.0643  0.0109
27336W        W43470   9.376  19.312   1.793  0.1913  0.0793 -0.1046
27337W        W43471  10.203   9.751   3.199 -0.0648  0.0392  0.2428
27338W        W43472   9.639   4.886  10.641  0.0549  0.0260  0.0539
27339W        W43473   6.707  12.015   2.098  0.5327 -0.2399 -0.0328
27340W        W43474   8.941  13.541   1.006  0.1617  0.3462  0.1947
27341W        W43475   3.680   0.308   2.625  0.0330  0.0783 -0.0060
27342W        W43476  18.454   9.082  14.432  0.2241  0.2298 -0.2504
27343W        W43477  15.112   2.878  13.752 -0.0655  0.2169  0.0287
27344W        W43478   1.606  10.329   2.829  0.1398 -0.4410 -0.3403
27345W        W43479  17.469  18.208  10.204  0.0409  0.1389 -0.0355
27346W        W43480   8.362  13.828  13.827  0.1782  0.2470  0.2222
27347W        W43481  17.737  14.336  11.397  0.0127  0.0972  0.0094
27348W        W43482   7.309   0.617   1.428  0.1512  0.1505  0.1102
27349W        W43483   9.306   3.708  13.230 -0.0510 -0.1216 -0.1739
27350W        W43484  18.484  12.527   0.384  0.0796 -0.0440  0.0604
27351W        W43485   7.260   6.735  11.222  0.1823 -0.1705  0.2210
27352W        W43486   2.233  14.136  13.734 -0.1278 -0.1346 -0.2537
27353W        W43487  10.047   6.182   5.450 -0.1730 -0.2688  0.2862
27354W        W43488   8.082  12.223  13.998  0.1656 -0.0308  0.0428
27355W        W43489   1.943   1.688   3.293  0.1577 -0.0285  0.2740
27356W        W43490  19.071   8.732   0.591  0.0442  0.2537  0.0300
27357W        W43491   7.881   7.142  12.915 -0.0002  0.0760  0.0460
27358W        W43492  18.574   7.337   2.367  0.2149  0.2730  0.2701
27359W        W43493  11.159  14.900   3.133 -0.0897  0.5358 -0.0907
27360W        W43494   1.673   6.023  10.928 -0.1923  0.2120 -0.0506
27361W        W43495  14.429  19.277  11.530  0.5108 -0.1577 -0.1150
27362W        W43496   3.941   6.273  12.882 -0.2922 -0.0468  0.2364
27363W        W43497   1.321   1.674   0.341 -0.6541  0.1104  0.1201
27364W        W43498   1.419  11.633   2.702 -0.1140 -0.3016  0.2038
27365W        W43499   2.160  17.014   0.452 -0.1210 -0.2049  0.1118
27366W        W43500  11.800   5.556  10.640 -0.0179 -0.1152 -0.2502
27367W        W43501   8.634   7.375   3.550 -0.2792 -0.0184 -0.2165
27368W        W43502   1.003   3.587  13.402  0.2966 -0.0913 -0.0763
27369W        W43503  18.381  10.996   4.138 -0.2016 -0.0972  0.3067
27370W        W43504   7.016   3.822   4.669  0.3171 -0.2371 -0.2904
27371W        W43505   9.303  11.758   5.600  0.0138 -0.1299  0.2495
27372W        W43506  15.736   8.202  10.387 -0.0179 -0.3264 -0.3995
27373W        W43507  19.171  12.192  14.538 -0.1149  0.1586  0.1211
27374W        W43508   3.185  18.658   0.508  0.1713  0.1664 -0.0692
27375W        W43509   0.822  15.397   1.185 -0.2365  0.0036  0.1250
27376W        W43510   7.519   0.021   3.259 -0.0303  0.0209 -0.1870
27377W        W43511   7.795   7.110  13.760  0.1267 -0.3083  0.0977
27378W        W43512  17.251   9.355   0.782 -0.0150 -0.2441  0.2415
27379W        W43513  18.723  11.432   9.727  0.1525 -0.0506  0.2829
27380W        W43514  11.119  10.024   3.188 -0.2587 -0.1340  0.0611
27381W        W43515   1.682  19.083   0.236  0.0311 -0.0503 -0.1056
27382W        W43516  16.086   4.615  10.760 -0.1121 -0.0464 -0.3035
27383W        W43517   4.616  17.445   0.818 -0.0477 -0.0150 -0.0093
27384W        W43518  16.119   0.942   1.749 -0.1928 -0.1542  0.2489
27385W        W43519   2.718   8.498  13.699 -0.1656  0.4281 -0.2888
27386W        W43520  17.698   5.944  14.607  0.0284 -0.3869 -0.3481
27387W        W43521   7.899   1.171  11.244  0.0239  0.0857  0.0242
27388W        W43522  16.443  11.340   1.527 -0.4304  0.1021  0.1661
27389W        W43523  12.164  18.203  10.736 -0.1161 -0.2443 -0.0396
27390W        W43524  17.510  10.633   2.465 -0.4058  0.3253  0.0291
27391W        W43525   7.692   8.294   2.287 -0.1223 -0.1070  0.1097
27392W        W43526   9.999  11.907   4.165 -0.0131  0.2096  0.0649
27393W        W43527   2.499   1.336   2.176 -0.0384  0.2238  0.2632
27394W        W43528  17.929   5.986  12.411 -0.1838  0.2005  0.0258
27395W        W43529  16.336  13.319  13.205  0.1176  0.1511 -0.0224
27396W        W43530  16.598   2.294  14.954 -0.0114 -0.1790  0.1047
27397W        W43531  12.990  14.381  13.572  0.0689  0.0205 -0.1870
27398W        W43532  11.857  18.059  11.806  0.0067  0.0523  0.0991
27399W        W43533  10.813   8.862  11.972 -0.0253 -0.2536 -0.0534
27400W        W43534   1.747  18.071  13.492  0.0633 -0.0652  0.1391
27401W        W43535  10.500  14.870  10.860 -0.0097 -0.0485 -0.0733
27402W        W43536   8.531   6.820   4.883  0.0941  0.2109  0.0642
27403W        W43537   5.233  12.094   2.221 -0.1507 -0.2043  0.0174
27404W        W43538   2.403  11.429  11.107  0.3186  0.2667 -0.0426
27405W        W43539   6.866   6.673   0.854 -0.4152 -0.0663 -0.0355
27406W        W43540  12.516  10.030  12.175 -0.0874  0.0062  0.1704
27407W        W43541  13.820  13.449   3.545 -0.0361 -0.3754 -0.1398
27408W        W43542  18.684   7.183  11.192 -0.1432  0.1701 -0.0766
27409W        W43543   2.942   9.102   0.543  0.0657  0.1020 -0.1933
27410W        W43544  12.955   4.481   1.279 -0.2430  0.0960 -0.2392
27411W        W43545   6.658  16.024   5.687  0.0972  0.0529  0.0355
27412W        W43546  17.880   3.263   2.952  0.0085 -0.1020  0.0729
27413W        W43547   3.493   4.159   1.871 -0.1149  0.1350  0.1299
27414W        W43548   0.796  11.420  10.961 -0.0080  0.1138 -0.0014
27415W        W43549   9.139  17.399   2.314 -0.2534 -0.0608 -0.0535
27416W        W43550   8.964  10.506  12.826  0.0597  0.1390 -0.0598
27417W        W43551   1.539   9.335   1.420 -0.1518 -0.1507 -0.3109
27418W        W43552   0.259  10.749  13.791 -0.2113  0.0570  0.2288
27419W        W43553   1.035   7.439  13.368 -0.1256  0.0637  0.1232
27420W        W43554  11.193   7.133   1.004  0.1317 -0.0965  0.0623
27421W        W43555   6.795  17.108   4.837 -0.1024  0.0099  0.0699
27422W        W43556  18.128   5.045  10.858  0.2893  0.5788  0.0807
27423W        W43557  16.166   3.270   3.028  0.2982  0.1540 -0.2446
27424W        W43558   1.622  13.348   2.168  0.2800  0.2010  0.5068
27425W        W43559  14.954  19.283   4.582 -0.2953  0.1481  0.3285
27426W        W43560   9.724   1.414  14.880 -0.3738 -0.3345  0.1625
27427W        W43561  10.472  17.425  10.262  0.1256  0.2768  0.2664
27428W        W43562   7.148  12.180  11.446  0.1330  0.1708  0.2503
27429W        W43563   5.833  10.673   0.159  0.1021  0.0887 -0.1326
27430W        W43564   5.877   1.208  12.087  0.0103 -0.1364  0.0018
27431W        W43565  18.818   9.045   3.899  0.2404  0.1237  0.1640
27432W        W43566   6.603   7.259   9.365  0.0088 -0.2192 -0.1158
27433W        W43567   1.856  12.263  13.554 -0.2052  0.1649 -0.1532
27434W        W43568   9.579  15.908   1.360 -0.1440 -0.0647 -0.1772
27435W        W43569  17.949  10.724  12.339  0.1722 -0.1846  0.0828
27436W        W43570   9.904   8.450   4.812  0.2805  0.0188  0.0887
27437W        W43571   3.668   8.573  13.280  0.3913 -0.3331  0.1398
27438W        W43572   3.798  15.649   2.665  0.1352 -0.2976 -0.0454
27439W        W43573   8.528  18.004  11.727 -0.4752 -0.4213  0.1079
27440W        W43574   9.518  14.970   4.828 -0.2402  0.0426 -0.1294
27441W        W43575   4.374  13.657  12.425 -0.0993  0.2277 -0.2261
27442W        W43576   0.158  17.408   4.810 -0.1545  0.2449  0.0353
27443W        W43577  12.682  17.968   3.613  0.0658  0.0039  0.0091
27444W        W43578  15.704  10.721  12.284 -0.1960  0.2284  0.1399
27445W        W43579   4.011  17.339  12.432 -0.1193 -0.3082  0.2649
27446W        W43580   8.557  13.712  10.057  0.0364  0.2140 -0.3250
27447W        W43581  16.879  18.981  11.490 -0.0332  0.2765  0.0324
27448W        W43582   6.676   4.327   1.852  0.1999  0.1379 -0.0210
27449W        W43583   4.062  19.158  12.336 -0.0465  0.0848  0.0308
27450W        W43584   6.428   3.715   3.179 -0.0394  0.1571  0.0109
27451W        W43585  16.524   5.472   2.178 -0.2230  0.0528 -0.0373
27452W        W43586   4.313  12.612  10.291  0.1894  0.2233 -0.0664
27453W        W43587   3.695  18.591  10.904  0.1084  0.1978 -0.0385
27454W        W43588  17.500  12.085  14.658  0.1921 -0.3257  0.3723
27455W        W43589  16.506  18.961  13.830  0.2691 -0.0261 -0.0570
27456W        W43590   6.893  15.885   3.986  0.0500 -0.0366 -0.0005
27457W        W43591   2.717   7.775  10.735  0.0008  0.1963  0.5767
27458W        W43592   9.835  15.808   0.882  0.3075 -0.0260  0.1266
27459W        W43593  13.044  11.081   2.416  0.2342  0.0753  0.1062
27460W        W43594  18.372   6.296   1.067  0.0744 -0.1982  0.0699
27461W        W43595  18.380   2.925   3.596 -0.1532  0.1034 -0.1465
27462W        W43596   6.982   5.877  11.861 -0.0039 -0.1026 -0.0362
27463W        W43597   8.631  18.386   2.435  0.3214 -0.1052  0.0370
27464W        W43598  11.538   7.725  12.356  0.1360  0.0067  0.0675
27465W        W43599  16.664  11.156   1.943  0.0866 -0.1525  0.0254
27466W        W43600   6.405  10.211   4.192 -0.0247 -0.1014 -0.0404
27467W        W43601  12.764   6.776   3.000  0.1721  0.1081 -0.3721
27468W        W43602  12.514  10.351   3.098 -0.1375 -0.0891  0.2537
27469W        W43603   4.117   6.268   4.908 -0.3070  0.1133  0.3473
27470W        W43604   3.664   5.647  14.132  0.0242 -0.0220 -0.1390
27471W        W43605   8.666   1.695   4.232  0.1700 -0.1539 -0.1776
27472W        W43606   9.458   2.009   0.966 -0.0739  0.0672 -0.4815
27473W        W43607   9.030  14.416   3.988  0.5019  0.0589  0.0274
27474W        W43608  18.024  11.908   0.301 -0.3728  0.0866  0.0543
27475W        W43609  13.344  11.847   2.269  0.2128  0.3212  0.4551
27476W        W43610  12.716  15.206   2.014 -0.1033 -0.1922  0.1067
27477W        W43611   9.183   1.656   1.365 -0.1932  0.2740  0.0048
27478W        W43612  17.555  18.126  14.483 -0.0371  0.1932 -0.2447
27479W        W43613  10.720  11.528   9.022  0.0277 -0.0176  0.0981
27480W        W43614  16.382   7.419   2.275 -0.1092  0.2163  0.1369
27481W        W43615   6.689   9.003   2.764 -0.0368  0.1046 -0.1826
27482W        W43616   4.087   0.081  14.893  0.0713  0.0470  0.1059
27483W        W43617   5.557   2.168  14.683 -0.1450  0.0991 -0.2495
27484W        W43618   1.449  14.187   2.559  0.1893  0.2154  0.0841
27485W        W43619   1.469   0.900  12.001  0.0619 -0.2351  0.2197
27486W        W43620  15.624  15.721   1.471  0.0222  0.2394  0.1152
27487W        W43621   9.246   9.214   2.349  0.1795  0.0249  0.0065
27488W        W43622   0.795   3.650   3.801 -0.0169  0.0415 -0.2350
27489W        W43623   8.913  19.009  11.387 -0.1248  0.0513  0.2319
27490W        W43624   7.794   7.017   3.006 -0.0145 -0.0054 -0.2879
27491W        W43625  12.926   4.121  12.667 -0.5280  0.3057 -0.1576
27492W        W43626  15.907  17.939  12.352  0.0411 -0.0704  0.0789
27493W        W43627   0.930  13.398   2.641  0.2450 -0.0761 -0.1775
27494W        W43628  10.324   3.948   4.974 -0.1129  0.1455  0.1033
27495W        W43629   7.457  13.279  12.573  0.1249  0.2331  0.1464
27496W        W43630  13.167   1.340   2.758  0.1772  0.0064 -0.3678
27497W        W43631   8.017   1.262   1.659 -0.0118  0.1426  0.1568
27498W        W43632   0.084   1.459   4.566 -0.0026  0.3212  0.0203
27499W        W43633   0.318   8.809   2.014 -0.0415 -0.2220  0.0905
27500W        W43634  16.826   2.650   9.928 -0.3706 -0.1356 -0.1738
27501W        W43635  12.877  11.752   2.131  0.2243  0.1035  0.0346
27502W        W43636   0.305  11.507   4.552 -0.1180 -0.0446 -0.0289
27503W        W43637   5.899  18.707  13.072  0.2834 -0.1149  0.1943
27504W        W43638  14.895   4.226  13.030  0.1034 -0.0886 -0.1455
27505W        W43639  17.057   8.274   0.584  0.0544 -0.3363 -0.1581
27506W        W43640   2.739   6.129  11.382 -0.1871  0.1519 -0.0383
27507W        W43641   2.688  15.798  12.493  0.1426 -0.0177  0.1666
27508W        W43642   9.213  12.600   4.434 -0.0785 -0.2385  0.0016
27509W        W43643  11.021   8.189   2.624  0.1916  0.1902 -0.2619
27510W        W43644  11.712   7.616   2.430  0.2340 -0.1567  0.0935
27511W        W43645  10.679  13.058  11.928 -0.0186  0.1546  0.0048
27512W        W43646   8.973  15.005  12.825 -0.0406  0.0344  0.0001
27513W        W43647  14.831   8.817   2.543  0.0184 -0.0311  0.1543
27514W        W43648  17.345  18.280  13.706 -0.0527 -0.3229  0.1773
27515W        W43649   0.457   4.421   4.490  0.1700  0.3556 -0.0155
27516W        W43650   5.274   5.374   2.225  0.1733  0.0556 -0.0026
27517W        W43651  11.665   2.675   2.788  0.0462  0.1284 -0.0910
27518W        W43652   5.039  12.497   4.278 -0.1761  0.1320 -0.1363
27519W        W43653   1.028   2.705  13.691  0.1616  0.0752 -0.1117
27520W        W43654  14.322   4.891   1.456  0.2744  0.1344  0.0657
27521W        W43655   1.142   8.342   2.418 -0.3096 -0.0627 -0.2015
27522W        W43656   2.070  16.023   3.118 -0.1476 -0.2328 -0.2951
27523W        W43657  16.416   9.118  14.491  0.2343 -0.0330 -0.1683
27524W        W43658  13.046  14.429   5.560  0.0851  0.3201  0.0553
27525W        W43659   3.594   1.268  13.879 -0.1958 -0.0145  0.1908
27526W        W43660  15.446  10.400   3.698 -0.1351 -0.2948  0.0619
27527W        W43661   7.065  15.467   3.118 -0.0955 -0.2573  0.1671
27528W        W43662  18.735   8.999   0.943  0.1492  0.1447  0.0484
27529W        W43663   0.486   2.834   4.324 -0.0032  0.1917  0.4127
27530W        W43664   8.705  15.352   3.661 -0.0550 -0.1978  0.0573
27531W        W43665  15.956  16.427   1.887 -0.1314  0.1219 -0.1368
27532W        W43666  19.103   9.946   9.976 -0.0524  0.1090  0.0304
27533W        W43667  11.900   3.680   1.763 -0.1178 -0.2621 -0.0054
27534W        W43668  15.843   1.246  12.086  0.1339 -0.0624  0.0093
27535W        W43669  14.079   5.409  13.609  0.0482 -0.1845  0.0754
27536W        W43670   4.379   5.361   1.825 -0.0881 -0.2640 -0.1662
27537W        W43671   6.327   8.568   2.440 -0.0148 -0.1727 -0.0560
27538W        W43672   8.246  17.384   0.368  0.0832  0.1133  0.0922
27539W        W43673   2.594   0.186   2.636 -0.0633 -0.0601 -0.2004
27540W        W43674   8.153   2.806   1.349 -0.1034 -0.1044 -0.1982
27541W        W43675   1.359   4.627   1.587  0.2505 -0.2259  0.2335
27542W        W43676   0.954   4.962   1.723 -0.2169 -0.1703 -0.1302
27543W        W43677   1.863  14.987  10.389  0.2226 -0.0691  0.1932
27544W        W43678   8.545   7.804  14.173  0.0080 -0.0650  0.0631
27545W        W43679   9.038  10.507   1.224  0.1921  0.0309 -0.0191
27546W        W43680  14.076   1.638   2.368  0.1936 -0.2101  0.0886
27547W        W43681  16.399   6.432   4.122 -0.1853 -0.0383 -0.0776
27548W        W43682  16.668   0.604   2.725  0.0690 -0.1449 -0.0118
27549W        W43683  15.173   6.114   2.113 -0.1779 -0.0593  0.0398
27550W        W43684   4.404   7.610   9.780 -0.1147  0.1320  0.0008
27551W        W43685   7.784  16.133   4.773  0.0437 -0.0004 -0.3462
27552W        W43686   9.492  10.414   5.079 -0.5270 -0.0436 -0.0295
27553W        W43687   6.720  11.062  10.817 -0.0549 -0.2380 -0.0417
27554W        W43688   2.503   0.572   9.363  0.5929 -0.0828  0.0033
27555W        W43689  14.871   1.949   0.876  0.1658 -0.2748 -0.2441
27556W        W43690  14.009  19.007   1.726  0.3075 -0.1417  0.1033
27557W        W43691   1.719  15.069  14.646 -0.1414 -0.1981 -0.1231
27558W        W43692   3.101   6.956   2.845 -0.2432 -0.3370  0.0223
27559W        W43693  10.652  15.076  10.095 -0.0815 -0.1352 -0.0203
27560W        W43694   8.653   5.481   2.551  0.2378  0.0312  0.1539
27561W        W43695  14.760  15.222   2.012 -0.0066  0.2281 -0.0915
27562W        W43696  16.824   4.428   0.165 -0.0936  0.4065 -0.1025
27563W        W43697   3.204   8.960  12.269  0.1568 -0.1098  0.0283
27564W        W43698   4.962   8.386  14.546 -0.1940 -0.3335 -0.0068
27565W        W43699   6.507   1.500   2.257 -0.1803  0.2787 -0.2233
27566W        W43700  13.881  10.206  14.052  0.0611  0.0967 -0.0288
27567W        W43701  10.153   2.589   0.942  0.4810  0.0809  0.2267
27568W        W43702  19.222  15.403   1.505  0.1314 -0.0359  0.0687
27569W        W43703   1.388  11.313   3.166 -0.2488  0.1290  0.0872
27570W        W43704   3.154  10.383   3.690  0.0753 -0.0799  0.0061
27571W        W43705   7.953   9.142   2.278 -0.1585 -0.2842 -0.2587
27572W        W43706   6.913   1.110   9.461  0.2456  0.0603 -0.3451
27573W        W43707   6.475   0.987  10.454  0.1841 -0.0848  0.3389
27574W        W43708  15.106   3.756   1.658 -0.1437 -0.4743 -0.0848
27575W        W43709   2.127   5.621  10.880  0.3500 -0.0033 -0.0510
27576W        W43710   7.178  19.311   1.379  0.1834  0.5732  0.1340
27577W        W43711   0.598   5.362  14.833 -0.1934  0.0581  0.0982
27578W        W43712  15.693   8.216   9.913 -0.5289  0.0476  0.1377
27579W        W43713  16.858   7.878  12.377 -0.2563  0.3601  0.2100
27580W        W43714   6.100   9.100  11.855  0.0058 -0.2274 -0.0243
27581W        W43715   5.035   7.591  12.988 -0.2236  0.0322 -0.0853
27582W        W43716   1.215   8.015   0.690  0.1903  0.1665 -0.1788
27583W        W43717   2.312   0.128   4.762 -0.0136  0.0266 -0.0988
27584W        W43718   7.533  19.332   3.826 -0.2405 -0.2230 -0.2381
27585W        W43719  15.626   3.232  13.166  0.0233  0.0839 -0.1523
27586W        W43720  15.512  12.825   1.366  0.1152 -0.0758 -0.1182
27587W        W43721  17.106  11.955  11.751 -0.1260  0.0516 -0.2335
27588W        W43722  13.083  14.120  12.949 -0.0569  0.0190  0.1233
27589W        W43723   8.214   8.787   0.173 -0.1886 -0.1235 -0.1365
27590W        W43724  13.693  10.526  12.065 -0.2467 -0.1525  0.0531
27591W        W43725  12.295   2.195  14.273  0.4865 -0.0383 -0.0838
27592W        W43726  16.627  18.261  14.972 -0.0565 -0.5636 -0.1086
27593W        W43727  12.307   3.319  11.218  0.2723  0.0199  0.0233
27594W        W43728   4.846  10.657   9.899  0.1810  0.1285  0.0220
27595W        W43729  10.103   8.969  10.648  0.1870 -0.0581 -0.1072
27596W        W43730   5.288  14.419  11.041  0.0183  0.4056  0.0805
27597W        W43731   2.273   3.812   3.747  0.1171  0.0804  0.1942
27598W        W43732  11.803   7.865   5.384  0.1250  0.0279 -0.0633
27599W        W43733  14.488  18.979  14.496  0.1004  0.0112 -0.1257
27600W        W43734   4.445  15.964  13.953  0.1911  0.4222  0.0266
27601W        W43735   3.352   2.529   5.314  0.0412 -0.0451  0.0421
27602W        W43736  16.029  16.189  11.506 -0.1240  0.0672  0.2263
27603W        W43737   6.290   7.777   1.982  0.1063 -0.1946  0.1330
27604W        W43738   0.733  11.343   1.890 -0.2884  0.1803  0.4607
27605W        W43739   8.467  14.645   2.806 -0.1245 -0.1321  0.2450
27606W        W43740   1.070   3.694   4.236  0.0853 -0.0757 -0.2154
27607W        W43741  16.684  14.558  13.210 -0.1201  0.0995 -0.0495
27608W        W43742  10.146  10.448   4.073  0.4310  0.0671  0.1835
27609W        W43743  11.397  16.544  14.365  0.1395  0.0595  0.0913
27610W        W43744  17.719  11.510   3.404  0.1143 -0.6619 -0.0721
27611W        W43745  12.879  15.491  10.830 -0.0755  0.0605 -0.1511
27612W        W43746  11.365   5.759  12.661 -0.0828 -0.1710  0.3976
27613W        W43747  17.819  12.140  13.671 -0.0227  0.1709 -0.2147
27614W        W43748   1.348  10.373   5.452  0.1563  0.1749 -0.1523
27615W        W43749   9.875  17.756  13.221  0.0027 -0.2468 -0.2272
27616W        W43750  10.200  16.174  10.096 -0.0631 -0.2913 -0.0184
27617W        W43751   6.520   7.882   1.518 -0.1206 -0.0096 -0.0041
27618W        W43752   8.989   9.536  11.241 -0.0994  0.1583 -0.0848
27619W        W43753   1.590   0.061   4.250  0.0253  0.0894  0.0242
27620W        W43754  11.393  10.355   4.974 -0.1637 -0.3929 -0.1904
27621W        W43755   9.682  15.488   3.547 -0.2870  0.1693  0.0988
27622W        W43756  10.186  11.851  12.197  0.0171 -0.0680  0.1509
27623W        W43757   3.371   0.370   1.390  0.0539 -0.3366 -0.0441
27624W        W43758   7.386   9.359  13.702 -0.0176  0.0210  0.0704
27625W        W43759   8.695  10.433  14.849 -0.0567  0.1634 -0.0392
27626W        W43760   2.179  18.161  14.933 -0.0918  0.0548  0.2926
27627W        W43761  11.302  18.873   0.474 -0.2914  0.2684  0.1528
27628W        W43762   9.902  18.041   4.865 -0.1526  0.4490  0.0134
27629W        W43763   9.879  14.492   0.772  0.0840 -0.1527 -0.0628
27630W        W43764  14.575   8.778  11.135 -0.2905  0.2591  0.0343
27631W        W43765   7.149  17.991  13.890 -0.0027 -0.2080  0.1479
27632W        W43766  10.306   1.357   5.177  0.3171  0.0831 -0.1121
27633W        W43767  19.074  12.680   4.963 -0.2952  0.0621  0.2159
27634W        W43768   0.042   3.177  10.897  0.3561 -0.6349  0.0166
27635W        W43769   3.441   5.709   9.930  0.0478  0.0697 -0.0114
27636W        W43770  15.723   7.925  12.005 -0.0398 -0.1119  0.1402
27637W        W43771   7.934  18.165   1.736 -0.2716  0.1948  0.0137
27638W        W43772  17.728   2.637   1.389  0.0778 -0.0446 -0.1330
27639W        W43773   6.788  17.488   3.950 -0.2615 -0.0156  0.1399
27640W        W43774   1.434   2.414  12.275  0.0077 -0.3294  0.2880
27641W        W43775   8.168  17.842   0.017  0.2123  0.0034  0.5505
27642W        W43776  13.308   4.862  13.228  0.0738 -0.3404 -0.2602
27643W        W43777   1.977   0.152  13.085  0.2156 -0.2313  0.1078
27644W        W43778  16.349  14.929  11.782 -0.1308 -0.2794  0.1015
27645W        W43779   7.916   1.697  14.078  0.0060  0.0751 -0.1560
27646W        W43780   0.357  11.567  10.791 -0.0312  0.0124  0.5077
27647W        W43781  16.991   9.103  14.480  0.0794  0.3953  0.0260
27648W        W43782  16.091  19.290   3.236  0.1409 -0.3101 -0.1261
27649W        W43783   3.150   9.814  14.349  0.0180 -0.1146 -0.1180
27650W        W43784  10.825  14.361  12.359 -0.1421 -0.0376  0.0311
27651W        W43785  16.942   7.290   3.646 -0.0743  0.2307  0.2381
27652W        W43786  16.970  13.213  11.704  0.2924  0.0192  0.2442
27653W        W43787   2.319   8.867  10.262 -0.1426  0.2154 -0.0302
27654W        W43788   1.319  10.758  11.150  0.0676 -0.0934 -0.1981
27655W        W43789  11.445   8.437  10.739 -0.3850  0.2154 -0.0852
27656W        W43790   8.620  14.674  12.732  0.0296  0.3477 -0.1533
27657W        W43791   5.360   4.157  10.503 -0.2265 -0.1681 -0.3686
27658W        W43792  10.974   6.285   2.080 -0.1838 -0.3413  0.1590
27659W        W43793  12.164   6.375  13.551  0.0101  0.1830  0.0192
27660W        W43794   9.493  10.474   2.198  0.3286  0.1244 -0.1169
27661W        W43795   0.462  16.164   1.982 -0.1250 -0.0643  0.1661
27662W        W43796  13.564  17.174   2.112  0.2058 -0.0270 -0.2140
27663W        W43797   4.036   8.257  13.492  0.1109 -0.1644 -0.2117
27664W        W43798   9.342   7.595  10.858  0.1445  0.1633  0.0432
27665W        W43799   1.941  17.387   0.774 -0.0324  0.0390 -0.3107
27666W        W43800  18.872   1.476  12.132  0.1137 -0.0079  0.2028
27667W        W43801   1.571  10.241   3.926 -0.1191 -0.3080 -0.4250
27668W        W43802   6.568  16.927   0.664 -0.1400 -0.1704  0.2271
27669W        W43803  15.846  12.811  11.455 -0.0591 -0.0452 -0.0769
27670W        W43804  12.418  16.187  11.599 -0.2506  0.0310  0.2549
27671W        W43805  16.530   4.799  11.912  0.1770  0.0764  0.1371
27672W        W43806  18.707  14.511  12.078 -0.3537  0.0818 -0.0714
27673W        W43807   7.898  11.875   5.281 -0.1264  0.0872 -0.0153
27674W        W43808   5.132  19.338  13.022 -0.1652 -0.2844 -0.2590
27675W        W43809   9.085  17.480   1.364  0.0815  0.0148 -0.0814
27676W        W43810   3.888   5.016  12.552 -0.1713  0.1725  0.1878
27677W        W43811  16.531  14.294   0.378  0.1130  0.2708 -0.1412
27678W        W43812  18.911   9.501  11.825 -0.2251  0.1060 -0.1282
27679W        W43813  10.628  17.053   1.553  0.2049 -0.1678  0.3116
27680W        W43814  18.627  14.128   3.003 -0.2958  0.4243 -0.0377
27681W        W43815   1.530   5.170   1.700  0.0681  0.2290 -0.2279
27682W        W43816   7.089  15.508  14.997  0.0239 -0.2667 -0.1002
27683W        W43817  14.383   0.198   2.790 -0.0891 -0.0445 -0.1574
27684W        W43818   1.555  13.314   1.266 -0.2892  0.1714 -0.2233
27685W        W43819   1.987  11.876   3.683 -0.2453  0.1498  0.1207
27686W        W43820   4.512   4.690  13.808 -0.1077  0.0481 -0.1009
27687W        W43821   3.253  18.146  14.803  0.0219  0.1511  0.0326
27688W        W43822  10.270   2.578   0.469  0.0616  0.0243 -0.2030
27689W        W43823   8.701  18.736  13.960  0.1878 -0.0634  0.1497
27690W        W43824  13.425  12.747   9.800  0.6109 -0.2857 -0.1789
27691W        W43825  14.615  14.132   2.751  0.1058 -0.4835  0.0589
27692W        W43826   7.924   9.131  11.746  0.1135 -0.0330 -0.0673
27693W        W43827   2.664   1.387   4.028 -0.3480  0.2256  0.2670
27694W        W43828  11.676   1.686  10.953  0.2309 -0.0847 -0.0969
27695W        W43829   3.758   4.670   0.216  0.1074 -0.2075  0.0453
27696W        W43830   2.974  17.065  11.101 -0.3887  0.0191  0.1988
27697W        W43831   4.216  16.591   2.103  0.0788 -0.2266  0.1757
27698W        W43832   5.306  10.039  12.070  0.1790  0.1440 -0.1539
27699W        W43833   5.802  18.768   0.295  0.4227  0.0036  0.2950
27700W        W43834  13.315  18.392   1.814 -0.2138  0.0109 -0.0921
27701W        W43835   4.207   3.441   3.733  0.0541 -0.3153  0.0051
27702W        W43836  11.761  13.309   3.879 -0.1088  0.0492 -0.1404
27703W        W43837  11.037   2.752   0.193  0.0368  0.1900 -0.0770
27704W        W43838   9.485   5.243  12.389 -0.0416 -0.0442  0.1852
27705W        W43839  14.869   0.005   1.848  0.3037  0.1606 -0.1484
27706W        W43840  17.923  13.436  11.851  0.1079  0.5023 -0.4432
27707W        W43841   7.184  13.648  12.982 -0.2591 -0.1531  0.1651
27708W        W43842  13.142  15.647   1.287 -0.0159  0.0970  0.0347
27709W        W43843   2.771  12.898  11.550  0.1305 -0.0271 -0.2503
27710W        W43844   2.588  14.181   0.294  0.3300  0.5925  0.0199
27711W        W43845   7.564   0.345  11.952 -0.2125 -0.2049 -0.1139
27712W        W43846  15.260   5.507   2.961  0.4055  0.0336  0.0030
27713W        W43847  13.378   4.773   0.772  0.0531  0.2988 -0.0065
27714W        W43848   1.290  11.705   1.643 -0.0693  0.2787 -0.1419
27715W        W43849   5.225   1.731   4.498 -0.0121  0.0394  0.1602
27716W        W43850   2.509  13.888   3.832 -0.2449 -0.2889 -0.0124
27717W        W43851  16.967  18.819   1.342 -0.0868 -0.3673  0.2851
27718W        W43852   2.516   4.520  11.482 -0.1167  0.0107 -0.1544
27719W        W43853  11.666   0.593  13.147 -0.0593  0.0530 -0.3210
27720W        W43854  11.781  17.937  10.314 -0.0502 -0.1321  0.0292
27721W        W43855   8.460   3.751  10.847  0.1537  0.2161  0.2363
27722W        W43856   9.219   1.671  13.719 -0.0380 -0.1472 -0.2679
27723W        W43857   5.467  16.438  11.904  0.1301 -0.2108 -0.0731
27724W        W43858  12.335   3.943  11.822  0.0607 -0.0319 -0.1041
27725W        W43859  16.559   7.303  13.600  0.5943  0.3216 -0.3520
27726W        W43860   1.300   8.548  13.755  0.1221  0.1461 -0.1262
27727W        W43861  14.562   4.851   0.381 -0.0010  0.3065  0.3676
27728W        W43862  16.983   3.953   4.185 -0.1897  0.0985 -0.1580
27729W        W43863   4.367  16.267   1.247 -0.1668 -0.0502  0.2338
27730W        W43864   6.486   0.988  11.562 -0.1210  0.2596  0.0880
27731W        W43865   4.071   1.441   0.894 -0.1927  0.2466 -0.0795
27732W        W43866  14.281  10.383  12.614 -0.2394  0.0185 -0.2044
27733W        W43867   5.086   6.783  12.599 -0.2640 -0.1831  0.2700
27734W        W43868   3.967   5.970  13.751  0.0659 -0.4431 -0.0599
27735W        W43869  14.372   8.477   2.545 -0.4465  0.1704 -0.2293
27736W        W43870  13.102   9.016  13.370 -0.2270 -0.1269  0.0906
27737W        W43871  12.525   0.718   1.714  0.2001 -0.1213  0.2466
27738W        W43872   8.494  13.806   1.650 -0.1413  0.3554 -0.2642
27739W        W43873   9.694   8.083  10.644 -0.0002  0.1935  0.2137
27740W        W43874  11.499  13.113  12.495 -0.0531  0.2018 -0.0448
27741W        W43875  18.917  17.808  14.741 -0.0201 -0.0415  0.0724
27742W        W43876   1.542  12.693   4.498 -0.0053  0.1547 -0.3227
27743W        W43877   3.164  18.280  14.327  0.0307 -0.1810  0.0013
27744W        W43878  16.257  17.080   1.342 -0.3118  0.1800  0.4247
27745W        W43879  10.362   6.171   2.959 -0.0207  0.0762 -0.4357
27746W        W43880   7.093   9.056   1.057 -0.0138 -0.1448  0.0190
27747W        W43881   2.402  19.020   4.499 -0.1759 -0.0484 -0.1307
27748W        W43882  17.198   7.548  12.023 -0.3693  0.0639  0.3098
27749W        W43883  13.501  14.711   5.734  0.1600  0.2563  0.0644
27750W        W43884  16.613  19.297   3.607 -0.0548 -0.1869  0.0352
27751W        W43885   6.077  16.374   1.783  0.3069 -0.1660  0.3074
27752W        W43886   0.076   5.271  11.289 -0.0694 -0.2041 -0.1685
27753W        W43887   2.954  19.061  11.446  0.0333  0.2192  0.2148
27754W        W43888  13.200   9.143   0.667  0.1241 -0.0410  0.1135
27755W        W43889  17.043   6.067  12.632 -0.0236 -0.1976  0.0596
27756W        W43890  10.851   1.129  12.949  0.0193  0.0001  0.1518
27757W        W43891  15.953  14.562  10.014 -0.1123  0.0202 -0.1045
27758W        W43892   6.631   7.529   0.904 -0.0203 -0.2178 -0.1435
27759W        W43893  13.067  18.280  13.482 -0.0936 -0.1816  0.1325
27760W        W43894   0.488  13.033   1.008  0.2877  0.0363  0.0918
27761W        W43895  10.223  13.394  11.147 -0.2484  0.0655  0.2724
27762W        W43896   1.539   5.969   0.516 -0.1982 -0.1837  0.1726
27763W        W43897   3.492  13.111  14.420  0.2487  0.1414  0.0343
27764W        W43898  17.126   1.935  12.602 -0.1764  0.1264 -0.1971
27765W        W43899  18.901   0.473  13.007 -0.1837 -0.1120 -0.0291
27766W        W43900  18.875  14.540   2.390 -0.0356  0.0186 -0.1079
27767W        W43901   4.205  10.097   2.593 -0.0715 -0.1716  0.1431
27768W        W43902   6.173  10.696   5.271  0.1288 -0.0043 -0.2992
27769W        W43903   7.625  17.184   3.680 -0.1875  0.0577  0.0490
27770W        W43904   0.791   0.559  11.738 -0.0003  0.2128  0.0182
27771W        W43905   7.360   1.534   1.049 -0.0516  0.2810  0.0399
27772W        W43906   4.796   3.272  11.386 -0.0357  0.0458 -0.1841
27773W        W43907  14.842   2.211   3.342 -0.0271 -0.0329 -0.2119
27774W        W43908  17.892   8.843   0.471  0.0639 -0.2689 -0.4073
27775W        W43909   3.890   7.528   2.586  0.0578 -0.0875  0.0523
27776W        W43910   2.523   6.245   2.250 -0.0382  0.0068 -0.0281
27777W        W43911   8.217  12.112   0.485 -0.0278  0.1808 -0.0387
27778W        W43912  12.775  10.144  10.517 -0.0901  0.2395 -0.4427
27779W        W43913  16.839  16.257   1.125  0.2135  0.0581  0.1967
27780W        W43914  12.648  18.060  11.435  0.2057 -0.2684 -0.1874
27781W        W43915  12.267   2.867  12.486  0.2178 -0.0010 -0.1969
27782W        W43916   5.367  11.930  14.900 -0.2250 -0.0248 -0.2090
27783W        W43917  17.567   9.315   0.377 -0.2508  0.0873  0.1344
27784W        W43918  14.476   8.287   0.909 -0.2670  0.0163  0.0453
27785W        W43919   7.156  14.855  14.351  0.1961 -0.0509 -0.0725
27786W        W43920   4.133  10.356  14.939 -0.0159  0.0440 -0.2085
27787W        W43921   5.497  15.427  13.873  0.3661  0.0352  0.1730
27788W        W43922  14.989   7.680  10.793  0.0082 -0.4420 -0.4138
27789W        W43923   4.721   9.133   1.979 -0.1968  0.0561  0.0444
27790W        W43924   5.329   8.253   2.847  0.0225  0.2050 -0.1311
27791W        W43925   8.107   9.646   9.317  0.0265 -0.0480 -0.2483
27792W        W43926   3.011  18.049   1.582  0.2400  0.2046 -0.1680
27793W        W43927  11.964   3.010   3.822 -0.1039  0.2161 -0.1194
27794W        W43928  16.833  10.193  13.891  0.0653 -0.1852 -0.0963
27795W        W43929  18.061   8.810  14.799  0.0202  0.0286 -0.5837
27796W        W43930   8.226   5.829  13.073  0.0751 -0.1912  0.0979
27797W        W43931   2.494   3.937   1.575  0.1446  0.1600  0.1481
27798W        W43932  14.496   0.244   1.447 -0.2147 -0.1809  0.0864
27799W        W43933  18.565   5.457   4.391  0.2203 -0.0201 -0.1228
27800W        W43934  14.997   9.323  10.680 -0.1517 -0.0779 -0.1377
27801W        W43935  19.295  15.552   2.454  0.2528  0.2495  0.0219
27802W        W43936  10.177   1.365  12.376  0.0759  0.0401 -0.6921
27803W        W43937  18.733   9.720  13.061 -0.7482 -0.0281 -0.3826
27804W        W43938  13.188  17.310   4.441  0.1408 -0.2770  0.0310
27805W        W43939  17.077   2.065   1.636 -0.1211 -0.0574  0.3742
27806W        W43940   7.481   3.740  14.007  0.2431 -0.0823  0.3791
27807W        W43941   6.761  14.810  12.310 -0.0100 -0.1465 -0.1556
27808W        W43942  18.006  18.667   9.945 -0.3059  0.1103  0.1016
27809W        W43943   0.104  16.265   1.047 -0.3186  0.2009 -0.1239
27810W        W43944  11.919   3.675  11.346 -0.1236  0.1770  0.4577
27811W        W43945  13.267   6.268  13.546  0.2322  0.5378 -0.1020
27812W        W43946   3.977   8.320   2.310 -0.1487  0.0402  0.1019
27813W        W43947  15.199   8.807  14.993 -0.1227 -0.3113  0.1532
27814W        W43948   4.109  12.547  14.998 -0.0144 -0.2477  0.1393
27815W        W43949  18.331  18.182  11.775  0.0301  0.0227  0.1890
27816W        W43950   8.530  16.201  10.524 -0.2316  0.0785 -0.2735
27817W        W43951   3.163  11.110  12.108  0.1612  0.1203  0.1473
27818W        W43952  14.506   0.114   4.667  0.0890  0.0903  0.0537
27819W        W43953   0.249  14.457   3.897  0.1224  0.1674  0.2480
27820W        W43954   1.769  12.923   2.463  0.0953  0.0605  0.4340
27821W        W43955  14.913  12.925   2.474  0.3859 -0.0988 -0.0175
27822W        W43956  16.389  14.934   3.698 -0.0441 -0.5231  0.0248
27823W        W43957   3.003   0.665   0.025  0.1620 -0.0880 -0.0898
27824W        W43958  17.013   7.130   1.486  0.2109  0.2268  0.0033
27825W        W43959  11.521  17.298   1.316 -0.1005  0.1329 -0.2429
27826W        W43960   5.251   2.710   3.784  0.0211 -0.0725  0.1867
27827W        W43961   4.958  11.050   4.775 -0.3380  0.3744 -0.1431
27828W        W43962  14.383  14.801   1.971 -0.0392  0.2911 -0.2331
27829W        W43963   2.979   6.264   2.500 -0.2859 -0.1462  0.0018
27830W        W43964   4.244   6.446   4.326  0.1707  0.0995  0.1489
27831W        W43965  14.431  11.265  11.111  0.3615  0.1590 -0.0139
27832W        W43966  16.730  12.349   2.951  0.3017 -0.1759 -0.0246
27833W        W43967   3.409  18.283   1.394  0.4232  0.0096 -0.0161
27834W        W43968  14.431  11.408   3.401 -0.0549 -0.0678  0.0390
27835W        W43969   8.255   4.041  13.201 -0.0013  0.3442 -0.2811
27836W        W43970  14.843   1.041   0.949  0.2853  0.0591  0.0310
27837W        W43971   5.605   6.892  13.317 -0.0348  0.1051 -0.0718
27838W        W43972   1.507   7.914  13.984 -0.1493  0.1703  0.1606
27839W        W43973  16.377  12.723   2.940  0.0266  0.2798 -0.0311
27840W        W43974   6.604  18.282   0.335 -0.0776  0.1531 -0.0380
27841W        W43975  10.825   6.460  14.662 -0.1861 -0.1306  0.0165
27842W        W43976  11.719   5.187   2.783 -0.0852  0.1645  0.1538
27843W        W43977  18.459  15.652   0.943  0.0181  0.0179  0.0468
27844W        W43978   8.336   3.310   6.254  0.3699  0.0624  0.0963
27845W        W43979  17.895   6.517  11.683  0.0761  0.0913 -0.0287
27846W        W43980   9.467   2.153   4.558 -0.2710  0.1815  0.1422
27847W        W43981  14.849  12.647  12.862 -0.0194  0.0811 -0.0638
27848W        W43982   5.739  18.934  14.311 -0.0865 -0.0573 -0.1482
27849W        W43983   0.619   0.363  10.556 -0.1238 -0.1259  0.0717
27850W        W43984   8.767  11.422  12.225 -0.2387  0.0343 -0.2985
27851W        W43985   1.977   4.673  11.784 -0.1999 -0.3183  0.0420
27852W        W43986   6.283   6.569   2.972  0.1083 -0.1559  0.0346
27853W        W43987  18.719   8.462  12.962 -0.3623  0.0161  0.2529
27854W        W43988   5.710  10.985   3.033 -0.0287  0.0968 -0.3094
27855W        W43989   7.059   3.318   4.385  0.1403  0.0714 -0.1470
27856W        W43990   1.331   8.106   1.993  0.1200  0.0723  0.0550
27857W        W43991   5.738   2.339   5.332  0.0144  0.3296 -0.1220
27858W        W43992   4.596   2.641   3.037 -0.0108  0.1614 -0.0942
27859W        W43993  14.310   0.618  12.971 -0.1031 -0.2899  0.0402
27860W        W43994   4.634   2.669  14.410  0.0105  0.0234  0.3249
27861W        W43995   9.265   3.217  13.839  0.1575 -0.1493  0.0060
27862W        W43996   4.322   3.866   2.241  0.1191 -0.0715 -0.4308
27863W        W43997  16.390  15.559   4.282  0.1133 -0.3128 -0.0626
27864W        W43998  11.139   4.684  13.146 -0.1585 -0.1743  0.1105
27865W        W43999  14.665  15.148   3.898  0.2611  0.2214 -0.2052
27866W        W44000  15.098   1.623  12.122  0.0882 -0.1229  0.3524
27867W        W44001  13.676   5.572  11.429  0.0300 -0.2821  0.3446
27868W        W44002  16.938  12.948  14.415  0.2136 -0.1168  0.3580
27869W        W44003  14.282   8.195  12.670 -0.0306  0.2314 -0.3158
27870W        W44004  11.508  10.281   2.310  0.0835  0.0089  0.0706
27871W        W44005   3.359  15.894   2.715  0.1693  0.4539 -0.3537
27872W        W44006  10.452  17.527   1.525 -0.0450  0.0506  0.0120
27873W        W44007  15.956  10.322  13.327  0.0026  0.1909 -0.0214
27874W        W44008   9.693  11.043   9.589  0.1256  0.1552 -0.1848
27875W        W44009  17.329  11.566   1.596  0.5484 -0.0139 -0.4418
27876W        W44010   9.362   0.266   0.556 -0.0284  0.3947 -0.1461
27877W        W44011   8.879  10.631  14.348  0.0494  0.2526 -0.1033
27878W        W44012  14.159  12.197  12.486 -0.3282 -0.1719  0.2502
27879W        W44013  18.806  19.308   2.368  0.4184 -0.1272  0.1944
27880W        W44014   3.281   7.564  10.539 -0.2847 -0.2904 -0.2737
27881W        W44015   0.060  10.689  12.478  0.1170  0.2585  0.2380
27882W        W44016  12.268  17.056  11.328 -0.0430 -0.0037  0.2342
27883W        W44017  15.215  13.429   0.275 -0.1350  0.1074  0.4396
27884W        W44018  13.572   7.822  12.164  0.0531  0.1639 -0.2815
27885W        W44019  15.276  14.811   2.096 -0.1938 -0.3294  0.2126
27886W        W44020   0.644  15.796   2.979 -0.0312 -0.0825  0.1124
27887W        W44021  16.160   8.240   1.718  0.1197  0.2408 -0.1111
27888W        W44022   1.615   8.335  11.840  0.4952 -0.0508  0.0723
27889W        W44023   8.541   4.784   0.470 -0.4564  0.0225 -0.2077
27890W        W44024  12.773  10.082   4.074 -0.0539  0.2003 -0.1844
27891W        W44025  16.715  12.662  13.492 -0.0055  0.0301 -0.0485
27892W        W44026  16.546  16.668   3.533  0.2230 -0.0197  0.2392
27893W        W44027   9.012   7.474   0.328  0.0463  0.1679  0.1387
27894W        W44028   0.319  15.688   3.490  0.1678 -0.3546 -0.0710
27895W        W44029   5.548  10.220   5.254 -0.3759 -0.1159  0.0781
27896W        W44030  18.087   0.163   1.619 -0.1582 -0.2557 -0.1343
27897W        W44031  17.435  14.042  11.010  0.2359  0.2236 -0.1222
27898W        W44032  18.719   8.290  13.926 -0.1311  0.1230  0.0069
27899W        W44033   4.769   0.236   3.342  0.0616 -0.0030  0.1553
27900W        W44034   7.399   2.995   4.616  0.0855 -0.0203  0.1747
27901W        W44035  18.843   4.777  13.860  0.2072 -0.1497 -0.1002
27902W        W44036   4.164   1.932   9.254 -0.1407 -0.1025  0.1191
27903W        W44037  19.218   0.214   2.603  0.0590  0.4039 -0.0792
27904W        W44038   0.718  10.206   3.805  0.0031 -0.1253 -0.0730
27905W        W44039   2.755  12.597   5.041 -0.3447 -0.3977  0.0870
27906W        W44040  10.653  14.102  11.929 -0.0196 -0.0209 -0.0845
27907W        W44041  15.796  18.137  11.022 -0.1028 -0.1386 -0.1801
27908W        W44042   4.880   6.838  10.466 -0.0045  0.1823  0.1202
27909W        W44043  15.408  12.511  14.427  0.1566  0.3833 -0.0621
27910W        W44044  17.105  13.718  14.494 -0.0574  0.0671  0.3975
27911W        W44045   0.266   5.202   2.689 -0.2385  0.0899 -0.0322
27912W        W44046  14.137  17.626   0.859 -0.0344 -0.0868  0.1179
27913W        W44047   1.280  15.556   2.129 -0.0493  0.0631 -0.0335
27914W        W44048  10.221  16.614  10.923  0.0235 -0.1833 -0.1963
27915W        W44049  10.714  18.632   9.966  0.1734 -0.0070 -0.1674
27916W        W44050   7.288   9.703  12.110  0.0981 -0.0031 -0.1432
27917W        W44051   4.621  18.072   9.939  0.0253  0.1344 -0.1788
27918W        W44052   7.462   4.041  14.496 -0.0610  0.2121 -0.1416
27919W        W44053   3.830   3.403  11.564  0.1905  0.0811  0.1492
27920W        W44054  14.527  18.977   4.399  0.0097  0.3192  0.1161
27921W        W44055   3.717  10.485  14.738  0.4662  0.2107  0.1599
27922W        W44056   9.830   0.528  13.415  0.1307  0.2139 -0.0247
27923W        W44057   2.974  11.992   2.268 -0.0865  0.1096 -0.0028
27924W        W44058  11.235   5.389   0.323 -0.0479 -0.0948  0.0044
27925W        W44059  10.598  14.080  10.453  0.1124  0.0972  0.4678
27926W        W44060  16.199   9.106  14.953  0.5605 -0.2007  0.1932
27927W        W44061  16.143  14.109   9.322  0.1659  0.0217  0.1073
27928W        W44062   2.916   0.838  10.204 -0.1019 -0.0124 -0.1818
27929W        W44063   8.559  14.683   1.511  0.1894 -0.3454 -0.0129
27930W        W44064   3.473  14.237   4.736  0.1216  0.1448 -0.0814
27931W        W44065  17.433   7.008  13.678 -0.0966 -0.0316  0.0948
27932W        W44066  13.473  19.167   2.905 -0.1666  0.0336 -0.1873
27933W        W44067  12.279   9.908  13.767  0.1144  0.0466  0.1570
27934W        W44068  13.941   8.976  13.754  0.2238  0.3052 -0.1067
27935W        W44069   5.716  19.299  11.142 -0.0183  0.4553 -0.0115
27936W        W44070  12.537  18.612   5.301  0.3266 -0.3624 -0.1658
27937W        W44071  11.515  13.475  13.493  0.2124  0.0321  0.0562
27938W        W44072  18.999   7.150  10.506 -0.0119 -0.0710 -0.6882
27939W        W44073   2.606  14.832  14.621  0.4914  0.2262  0.5035
27940W        W44074  16.395  17.881  14.947  0.0327  0.2755  0.0177
27941W        W44075  16.892   9.520   1.461  0.0400 -0.0526 -0.0811
27942W        W44076   7.533   6.099  14.010  0.0267  0.0180  0.2151
27943W        W44077   5.135  13.337   3.910 -0.0070 -0.0384  0.0157
27944W        W44078  18.643   3.000  10.402  0.0731  0.1440 -0.0576
27945W        W44079  13.067   5.617   4.849 -0.0124  0.0259  0.2344
27946W        W44080   3.230  11.931   3.253  0.2508  0.3527  0.2942
27947W        W44081   4.168  15.547  13.625 -0.0475  0.5404 -0.0956
27948W        W44082  17.545  14.838   2.787  0.1909 -0.2424  0.0568
27949W        W44083  14.710  16.697  13.851  0.1559 -0.0053 -0.1121
27950W        W44084  13.465   5.824  13.490  0.1219 -0.0112  0.1288
27951W        W44085  12.482   3.714   3.685 -0.1940 -0.2925  0.2429
27952W        W44086   7.255   6.696   5.624  0.0565 -0.0811 -0.0623
27953W        W44087  16.700   5.149   3.350  0.0239  0.2048 -0.1536
27954W        W44088  18.246   0.879  11.717  0.0408 -0.0011  0.1309
27955W        W44089   0.035   3.664  10.577  0.0794 -0.1882  0.1845
27956W        W44090  14.908  13.510   1.074 -0.0136  0.0251 -0.2613
27957W        W44091   0.378   3.968  12.068  0.2101 -0.1461  0.1713
27958W        W44092   9.826  10.915   2.330  0.0871  0.0027  0.0240
27959W        W44093  18.495  15.553   1.533  0.0807 -0.2647  0.1590
27960W        W44094   2.934   0.904  11.757 -0.0100  0.0432  0.2392
27961W        W44095  12.583  14.719   5.643  0.0019  0.0922 -0.1093
27962W        W44096   3.002  13.447   4.917  0.2415 -0.2377  0.1832
27963W        W44097   4.252   0.472  11.137 -0.2153 -0.2637 -0.1306
27964W        W44098   0.057  18.840   3.378  0.1600  0.1229 -0.2221
27965W        W44099  11.749  17.102  14.264 -0.1055 -0.1657  0.0251
27966W        W44100   1.344   4.817   2.071  0.1404  0.0344  0.1397
27967W        W44101  13.732  14.545   2.652 -0.2246 -0.2924 -0.4571
27968W        W44102   5.827   5.360  12.539  0.0693  0.2461  0.5251
27969W        W44103  17.978   6.573   2.945  0.2282 -0.1154 -0.1760
27970W        W44104  12.200   8.969   1.660  0.3125  0.1423  0.2292
27971W        W44105  17.009   2.832   2.097 -0.2071  0.1646  0.3467
27972W        W44106  16.239   1.794   1.195 -0.1739 -0.0761 -0.3080
27973W        W44107   5.586   2.835   1.318 -0.0018  0.2611  0.0409
27974W        W44108   6.604  14.779   0.207  0.0702  0.0179 -0.2811
27975W        W44109   9.300  16.502   1.197  0.3913 -0.0408  0.1027
27976W        W44110   2.688   6.116   4.909  0.1788  0.0206  0.2616
27977W        W44111  16.451  13.299   4.451 -0.0944 -0.1834 -0.3126
27978W        W44112   1.336  13.004   3.712  0.2283 -0.3413 -0.1005
27979W        W44113   5.336  11.764  13.183  0.1193  0.2472  0.1424
27980W        W44114   7.548   6.909  14.838  0.3846  0.2873 -0.0150
27981W        W44115  13.032  13.694   4.130  0.0573  0.0784 -0.0461
27982W        W44116  17.301   6.258  13.092  0.3897  0.3097 -0.2116
27983W        W44117   8.877   1.577  14.453 -0.0825 -0.2001 -0.0583
27984W        W44118   7.352   1.198  13.237  0.0941 -0.2630  0.1350
27985W        W44119   6.428   0.529  10.602 -0.0620 -0.2213  0.1439
27986W        W44120   0.426   1.080   2.097 -0.2199  0.0431 -0.2124
27987W        W44121  11.176  10.787  14.416  0.0254  0.1054 -0.2587
27988W        W44122   3.767   8.183   4.543 -0.4949 -0.2304  0.0915
27989W        W44123   6.009   8.142   1.156 -0.2694 -0.1971 -0.1893
27990W        W44124   6.832  10.226   4.525 -0.1408 -0.0232  0.2135
27991W        W44125  13.616   0.431   1.702  0.2523 -0.1750  0.1925
27992W        W44126   4.041   8.187  12.397 -0.2927 -0.1204  0.0762
27993W        W44127   3.443  12.613  12.540 -0.3724 -0.3186 -0.3831
27994W        W44128  18.656  13.170   5.090  0.1800  0.2633 -0.0691
27995W        W44129  17.477   9.068  10.353 -0.2406 -0.1830  0.2720
27996W        W44130   9.588   2.297  14.541 -0.1047  0.2211  0.2104
27997W        W44131  14.150   9.586  10.201 -0.0516  0.1374 -0.3155
27998W        W44132  16.967   2.011  14.523  0.0686 -0.1965  0.3073
27999W        W44133  16.937  19.233   4.528  0.2036  0.2172  0.0374
28000W        W44134  17.351  12.429  11.190  0.1083 -0.3148  0.2628
28001W        W44135   6.891  18.812   3.521  0.1021 -0.1226  0.0417
28002W        W44136  13.395  14.125  13.356 -0.0472 -0.2296  0.2551
28003W        W44137   0.228  16.606   3.472 -0.2518  0.3959  0.0793
28004W        W44138   5.168  14.185   4.668  0.0057 -0.0678  0.2922
28005W        W44139  13.930   7.488  11.022 -0.1111 -0.2038  0.0583
28006W        W44140   9.734  14.007  10.472  0.1397  0.0371 -0.3167
28007W        W44141   6.225  12.776  11.077  0.1158 -0.4166 -0.4114
28008W        W44142   5.102  10.002   3.665  0.0417  0.1389 -0.2422
28009W        W44143   6.537   3.723   2.622  0.3332 -0.1959  0.4068
28010W        W44144   7.243   8.368  12.360  0.1157  0.0135 -0.1178
28011W        W44145  10.736  16.045  11.647  0.1144  0.0689  0.2753
28012W        W44146  13.940   1.239   2.025 -0.0479 -0.4607 -0.0348
28013W        W44147   0.724   9.823  12.308  0.0455  0.4079 -0.0998
28014W        W44148   1.781  13.571  11.451  0.2878 -0.0210 -0.3335
28015W        W44149  10.708   3.778   0.661 -0.3413 -0.3209  0.1750
28016W        W44150   9.537   3.988  12.862 -0.2456 -0.1088  0.1520
28017W        W44151  17.538  16.026  11.640 -0.0328  0.0733  0.0351
28018W        W44152   7.301  16.072   1.761 -0.0595 -0.0882  0.1250
28019W        W44153   1.629   7.240   3.829  0.0692  0.4686  0.0649
28020W        W44154   9.534   2.068   1.525  0.0046  0.1799 -0.0267
28021W        W44155   2.298   2.109   1.052  0.0818 -0.0522 -0.5283
28022W        W44156  11.957  13.497  14.188  0.2976  0.1440 -0.0188
28023W        W44157   5.571  18.872  10.870  0.1954  0.0415  0.1506
28024W        W44158   5.717  16.477  11.415 -0.1025 -0.0509 -0.1659
28025W        W44159  13.355  16.626   0.472  0.0784 -0.1090 -0.3193
28026W        W44160   3.985   8.921   0.506 -0.0158  0.0455 -0.1758
28027W        W44161  15.157  16.165   2.150 -0.2286  0.0892 -0.0557
28028W        W44162  13.343  15.001  11.849  0.3926  0.1794 -0.0067
28029W        W44163   4.250   1.455   2.401  0.0705 -0.1185  0.0401
28030W        W44164   4.732   5.799  10.175 -0.2140  0.2264 -0.1157
28031W        W44165   5.813  12.389   1.292 -0.0823  0.0161 -0.0628
28032W        W44166   5.820   7.649  11.006 -0.0074 -0.0116 -0.1946
28033W        W44167   6.963   0.296  12.463 -0.2971  0.0628 -0.0386
28034W        W44168   5.560   6.990   4.830  0.0141 -0.1494  0.0257
28035W        W44169  14.082   7.559  14.784 -0.0951 -0.1377  0.3389
28036W        W44170  16.742  17.386  13.975  0.0952  0.0117  0.2959
28037W        W44171   0.375   7.850  14.292  0.0801 -0.0133  0.2389
28038W        W44172   8.146   9.195  12.687 -0.1896  0.2344  0.0548
28039W        W44173  11.873   7.918   4.906  0.0100  0.0958  0.0459
28040W        W44174   5.636   1.443   1.326 -0.0700 -0.2197 -0.1385
28041W        W44175  17.913   9.631   2.358  0.0126 -0.1678  0.0280
28042W        W44176   6.446   4.268   4.008 -0.2663  0.3710 -0.0556
28043W        W44177   8.117   8.088  14.182  0.0749 -0.0316  0.0962
28044W        W44178  16.986   3.451   3.461  0.0405  0.0261 -0.1720
28045W        W44179  13.497   6.231  13.083  0.0917 -0.0251 -0.0969
28046W        W44180   2.424  13.260   3.803  0.0300  0.3325  0.0345
28047W        W44181  14.442  16.552  10.421  0.0484  0.2911  0.1864
28048W        W44182  15.799   9.175   0.877 -0.2960 -0.2380  0.1575
28049W        W44183   2.946   9.708   3.220  0.6278  0.1456 -0.0362
28050W        W44184   9.590  16.654   2.518  0.1426 -0.2028  0.1927
28051W        W44185   8.990   5.031  13.282 -0.0295 -0.0229 -0.2567
28052W        W44186   3.175   6.325   4.770 -0.0728 -0.1118 -0.1381
28053W        W44187   9.678  15.887  12.587  0.0570  0.0642  0.2188
28054W        W44188   4.392   6.495  12.469  0.0649 -0.2739  0.0641
28055W        W44189  10.092   0.636  14.895  0.1615  0.1372  0.2485
28056W        W44190   3.361  12.817  10.544 -0.2405 -0.1441 -0.0490
28057W        W44191   6.647  15.363  13.734 -0.3399 -0.0441  0.3364
28058W        W44192  19.028   0.038   3.469 -0.0579 -0.1768 -0.1434
28059W        W44193   6.689   1.420  11.923  0.3144  0.2514 -0.1052
28060W        W44194  18.736  13.147   0.210  0.3643 -0.1807 -0.2527
28061W        W44195  16.069   9.653  12.027  0.1266  0.3066  0.0818
28062W        W44196  12.019   0.665   2.942 -0.0633  0.1820  0.1446
28063W        W44197   9.484  18.192  10.253 -0.0881 -0.4654  0.0284
28064W        W44198  12.385  10.029  13.054 -0.1734 -0.0657 -0.0154
28065W        W44199   1.743  17.693   0.025 -0.1479 -0.0435  0.0138
28066W        W44200  15.831   9.215  13.905 -0.2296 -0.6707  0.0814
28067W        W44201  17.566   7.052   0.028  0.3063 -0.3397 -0.2501
28068W        W44202   9.187   7.953  10.511 -0.1482 -0.1610  0.2519
28069W        W44203   8.657  12.233   0.069  0.1902  0.2867  0.1576
28070W        W44204   1.435   0.474  14.564 -0.1406  0.5452  0.0111
28071W        W44205  15.652  18.917   4.044  0.0081 -0.0990 -0.2989
28072W        W44206  17.768  17.149  12.550 -0.4008  0.0345 -0.4238
28073W        W44207   3.066  16.178  10.466 -0.1655  0.0992 -0.3027
28074W        W44208   4.548  14.592   1.839  0.1464  0.0320 -0.0857
28075W        W44209   4.639  14.781   2.883  0.0901 -0.0381 -0.0797
28076W        W44210   9.185  15.803  12.512  0.1616 -0.2270 -0.0311
28077W        W44211   9.006   8.175   3.644 -0.0724  0.2124  0.1379
28078W        W44212  17.162   8.890   0.005  0.0878 -0.2220  0.1992
28079W        W44213  14.898   9.088  13.938 -0.0843  0.0466 -0.1330
28080W        W44214  11.200  16.948  10.746 -0.1332 -0.0977  0.2470
28081W        W44215  16.842   9.310  12.602  0.1632 -0.0599 -0.0092
28082W        W44216   2.100   6.141   1.323  0.0722  0.0884 -0.0985
28083W        W44217   8.239   5.863   1.903  0.0288  0.3587  0.0826
28084W        W44218   0.207  15.514  14.502  0.0908  0.0725  0.3573
28085W        W44219   4.307  14.167  14.343  0.1325 -0.2383 -0.0282
28086W        W44220   5.788  15.794  14.182 -0.1561  0.0306  0.0200
28087W        W44221   4.753   8.122   4.710  0.0325  0.0440  0.0540
28088W        W44222   2.977  11.766  12.397 -0.3169  0.2576 -0.0362
28089W        W44223  12.234  15.802   3.138 -0.1268 -0.1912  0.2421
28090W        W44224   1.718  13.823  14.340  0.2810 -0.0130 -0.1246
28091W        W44225  15.369  13.660   0.770  0.0790 -0.3105 -0.2295
28092W        W44226  12.750   5.076   4.080  0.0266 -0.2676  0.3504
28093W        W44227  14.513  15.397   1.570 -0.0680 -0.0801 -0.0552
28094W        W44228  10.200   0.282   4.696  0.1077 -0.1425  0.2182
28095W        W44229   8.514   6.965  10.948  0.2302 -0.1399 -0.1561
28096W        W44230  13.202   4.191  14.214 -0.1140  0.1400  0.3325
28097W        W44231  11.075   8.871  14.113  0.0475 -0.0699  0.0655
28098W        W44232  17.620  12.019   3.668  0.2689  0.2527  0.0529
28099W        W44233  12.324  13.390  12.830  0.0847  0.2012 -0.1021
28100W        W44234   9.483   1.228   2.529 -0.1918 -0.1684 -0.2923
28101W        W44235   2.656   4.624   3.828 -0.0341  0.0336 -0.0156
28102W        W44236   7.455  18.869   9.591  0.2045  0.3046 -0.0326
28103W        W44237  18.773   2.351  10.118  0.1420  0.0847  0.2173
28104W        W44238  12.368  18.994   0.152  0.1411 -0.1028  0.2177
28105W        W44239  17.393  10.966  14.025 -0.3704  0.0076 -0.0709
28106W        W44240  14.164  13.089  12.851  0.2038  0.0930 -0.1705
28107W        W44241  17.695   0.375   1.085  0.0468 -0.1040  0.2702
28108W        W44242  16.581  14.914   4.546  0.3482  0.4656 -0.2431
28109W        W44243  17.190  13.688  11.292  0.2275  0.2354  0.1187
28110W        W44244   7.973   0.760   3.184  0.0386  0.3158  0.3118
28111W        W44245   5.870   2.952  14.377  0.1193  0.0962  0.0826
28112W        W44246  18.819   7.476   1.948  0.1278 -0.1569 -0.0162
28113W        W44247   9.586   6.837   3.501  0.0779  0.1084 -0.0193
28114W        W44248  11.407  16.257  13.944 -0.3345 -0.0896  0.4908
28115W        W44249   2.668   6.580  13.817  0.2454  0.0270 -0.1541
28116W        W44250   3.084  17.917   4.162 -0.1618 -0.0565  0.0020
28117W        W44251  14.516  18.994  13.128 -0.1309  0.2324 -0.1939
28118W        W44252   2.609  16.811  12.072  0.1179 -0.1918 -0.0067
28119W        W44253   6.255   9.633  10.817 -0.2824 -0.2843 -0.1566
28120W        W44254   5.495  15.808   1.179  0.0063 -0.1321  0.3814
28121W        W44255   1.701   3.912   3.939 -0.2674 -0.1928 -0.0214
28122W        W44256  10.093  14.824  14.925 -0.0163 -0.0067 -0.0568
28123W        W44257  12.454  14.683   0.380 -0.3710 -0.1567 -0.2536
28124W        W44258   6.266   1.632  12.174 -0.0424  0.2872 -0.1040
28125W        W44259   4.519   8.452   1.104  0.0331  0.1135  0.1779
28126W        W44260   2.217   3.074  13.910 -0.0486  0.3911 -0.2007
28127W        W44261  19.260   4.308   3.827  0.3337 -0.0961 -0.0223
28128W        W44262  15.224   6.238   0.333 -0.2155  0.2932  0.0683
28129W        W44263   1.736   8.177   9.899  0.1068  0.1036  0.3619
28130W        W44264   6.540  11.814  12.828 -0.0939 -0.1362 -0.0093
28131W        W44265  11.701   2.288   4.818  0.1817  0.1202 -0.2080
28132W        W44266  12.197   6.896   2.321 -0.3328 -0.4146 -0.0344
28133W        W44267  16.522   5.260   2.847  0.2091 -0.3143 -0.1599
28134W        W44268   5.635   2.151   1.752 -0.0583  0.1247 -0.1782
28135W        W44269   5.548  18.122   3.426 -0.1324  0.0669 -0.0990
28136W        W44270   4.045  14.444   4.737 -0.1003 -0.0561  0.0732
28137W        W44271  10.094   4.345   4.143  0.1516  0.2428 -0.2219
28138W        W44272   4.858   1.542  12.398 -0.1870  0.1113 -0.2193
28139W        W44273  16.136   2.360   1.536 -0.1031 -0.1817  0.2941
28140W        W44274   0.746  13.613  10.969 -0.3218  0.0901 -0.2253
28141W        W44275   6.657   1.642   4.887  0.2706  0.3616 -0.1167
28142W        W44276  17.008  18.259  12.160  0.1418  0.0658 -0.2507
28143W        W44277   1.372  16.471   0.330 -0.2326  0.4106 -0.2134
28144W        W44278  18.609   1.740   4.072  0.1301 -0.2020  0.2586
28145W        W44279  16.110  16.084   0.213 -0.2833  0.2679 -0.2414
28146W        W44280   8.776   2.862   4.340  0.1265  0.0730  0.2897
28147W        W44281  13.909  18.407  11.260  0.2349 -0.0686 -0.3208
28148W        W44282  13.821  15.971   0.222 -0.4193  0.1285  0.0426
28149W        W44283   7.120  16.452   3.161 -0.1651 -0.3437 -0.0044
28150W        W44284   9.081   3.166   0.493 -0.1773  0.0820 -0.2611
28151W        W44285  19.225   9.771   4.565  0.0304 -0.2417  0.0578
28152W        W44286   3.812  15.226   4.353 -0.0058  0.0986  0.2502
28153W        W44287  14.452  15.020   5.704  0.0035  0.1727 -0.0854
28154W        W44288   9.265   4.418  11.375  0.4135  0.3035 -0.5144
28155W        W44289  12.676  14.182  13.161 -0.1599 -0.0980  0.0922
28156W        W44290   0.718  13.994   0.180 -0.0586 -0.0149  0.1705
28157W        W44291   8.042  15.467   3.338 -0.1572 -0.2523 -0.0486
28158W        W44292   6.443  14.814   3.552  0.0117 -0.2323  0.2296
28159W        W44293  16.676   2.326  10.708 -0.3603  0.2899 -0.0049
28160W        W44294   1.750  11.283   4.086 -0.2768  0.2271 -0.1020
28161W        W44295  16.717   9.460  14.221  0.0491 -0.0961 -0.0248
28162W        W44296   2.440  17.803  12.276 -0.3424  0.3564  0.2267
28163W        W44297   9.374   5.172  14.282  0.1749  0.1924 -0.1154
28164W        W44298   6.469  18.169   1.601  0.0538 -0.0072  0.2381
28165W        W44299   9.689  18.118   4.387  0.0028  0.0094  0.0605
28166W        W44300  11.692   9.224  13.644  0.3270 -0.4602  0.1261
28167W        W44301   6.771   2.870  14.999  0.3139  0.1765  0.0599
28168W        W44302   7.508  18.075   1.242 -0.1012  0.0628  0.0160
28169W        W44303   4.255   2.975   2.424  0.0432 -0.4258 -0.0559
28170W        W44304   8.524  15.194  12.614  0.0547  0.0626  0.1631
28171W        W44305   4.571  18.853  14.447 -0.0475 -0.3348 -0.1612
28172W        W44306   1.448   1.933  12.334 -0.1326  0.0112  0.0660
28173W        W44307  10.536   2.184  10.197  0.0191  0.2374 -0.0435
28174W        W44308  17.433   4.079   2.511  0.0772 -0.0525  0.0179
28175W        W44309   7.196   3.026   2.458  0.2504 -0.2219  0.0232
28176W        W44310   8.590  13.348   2.924 -0.3247  0.0423  0.0727
28177W        W44311  13.918  16.676   4.673  0.0887  0.0430  0.2527
28178W        W44312   7.536   6.616   0.238  0.3167 -0.1887 -0.3626
28179W        W44313   3.020  11.526  11.907 -0.1881  0.0451 -0.0915
28180W        W44314  16.765   3.988   1.888 -0.0895 -0.0061  0.1837
28181W        W44315   2.493   4.498   1.563  0.1003  0.0546 -0.7152
28182W        W44316  15.084  18.423  13.390  0.0793 -0.0195  0.0289
28183W        W44317  13.498   7.401  11.524  0.0437  0.2368 -0.0120
28184W        W44318   3.764  11.830  11.347  0.1228  0.1028  0.1259
28185W        W44319   1.329   7.328  10.860 -0.2086  0.0864 -0.1728
28186W        W44320   0.298   7.373  14.062 -0.0808 -0.0305 -0.2422
28187W        W44321   5.556   6.811   4.258 -0.2829  0.0696 -0.0278
28188W        W44322  14.784  10.136   0.298  0.0769  0.2201 -0.0649
28189W        W44323   4.238   2.181   1.706  0.0650  0.0693  0.4052
28190W        W44324  18.175   0.394   1.124  0.0369 -0.1407 -0.2583
28191W        W44325  16.549   1.216   2.043 -0.0775  0.1815 -0.1117
28192W        W44326  17.701   6.464   0.940  0.3819 -0.0627 -0.1200
28193W        W44327   8.459  10.700   1.080  0.1765 -0.1138  0.0408
28194W        W44328  12.381  14.271  13.569 -0.0923 -0.0841 -0.1887
28195W        W44329   3.178  12.293   4.065 -0.0684  0.1134  0.0850
28196W        W44330   1.634  17.436   1.231 -0.0085  0.0281 -0.0914
28197W        W44331   1.258   0.529   0.085  0.1700 -0.1213  0.1184
28198W        W44332  10.015   5.408   2.801 -0.1617  0.1730 -0.0309
28199W        W44333  16.207  15.824  14.774 -0.0715  0.2153  0.3795
28200W        W44334  17.041  18.147  14.527  0.0304 -0.1369 -0.1302
28201W        W44335  15.583  19.152  12.438 -0.3416  0.2077 -0.2300
28202W        W44336   7.882   7.991   0.846 -0.1148 -0.0230 -0.0523
28203W        W44337  11.121   1.503  13.885 -0.1784 -0.1733  0.0051
28204W        W44338   1.999  15.884  13.846 -0.0525  0.0639 -0.0386
28205W        W44339   8.781   7.898   3.190  0.2658 -0.0555 -0.0057
28206W        W44340   4.161   6.627   2.796 -0.1841  0.0810 -0.0328
28207W        W44341  14.700  18.207  11.967 -0.3438  0.0935  0.1569
28208W        W44342  14.438   6.677   3.458 -0.1223 -0.0714 -0.0219
28209W        W44343  17.513   7.637  10.988  0.1646 -0.2331  0.0379
28210W        W44344   1.890   2.415  11.145 -0.2330 -0.1659  0.0948
28211W        W44345  10.122  16.663   0.676 -0.4000  0.1176  0.0817
28212W        W44346  14.721  16.390  11.726  0.0247  0.1517  0.0173
28213W        W44347   8.634  16.780  12.944 -0.1479 -0.0302 -0.0769
28214W        W44348  15.335   4.684   2.106  0.2047 -0.1792 -0.0803
28215W        W44349  16.251  17.158  14.520 -0.1760  0.1924 -0.0056
28216W        W44350  10.997   5.874   1.025  0.1790 -0.0454  0.2646
28217W        W44351   3.817   1.803   4.366 -0.1523 -0.1928  0.2174
28218W        W44352  16.586  12.067   3.844  0.2733 -0.1216 -0.0513
28219W        W44353   8.802   9.758  12.627 -0.1863 -0.1132 -0.0802
28220W        W44354   1.306  14.952   2.642  0.1793 -0.2280 -0.2003
28221W        W44355  17.409   3.095  14.008  0.0846 -0.0058 -0.3484
28222W        W44356   0.951  18.650   3.505  0.0863 -0.0948  0.1845
28223W        W44357  11.240   3.367   3.207 -0.1082  0.1659  0.0912
28224W        W44358  12.410   7.080   0.482  0.1265  0.0890 -0.1359
28225W        W44359   0.008   0.261  12.380 -0.2826 -0.1508 -0.1406
28226W        W44360  11.724  15.332   1.971 -0.0505 -0.1333 -0.1644
28227W        W44361  10.858  13.066   2.478  0.0373  0.1232 -0.1548
28228W        W44362   1.291  15.610   0.398  0.4225 -0.0397 -0.3906
28229W        W44363  19.169   3.776   4.586  0.0338  0.1567 -0.0689
28230W        W44364  17.936  11.620  13.964 -0.1358  0.1366  0.2791
28231W        W44365  13.785  11.494   5.768 -0.1630 -0.1257 -0.2555
28232W        W44366  11.099   7.879   0.515  0.1711 -0.1142  0.1042
28233W        W44367   2.965  17.319   2.584  0.1306 -0.0729 -0.1981
28234W        W44368   8.222  10.001   0.147  0.0544  0.0233  0.2647
28235W        W44369  14.891  17.104   4.261  0.1233  0.0217  0.0502
28236W        W44370  16.066  11.621   4.398  0.3475 -0.0714  0.1027
28237W        W44371  11.505   7.442  14.083 -0.2295  0.2273 -0.1152
28238W        W44372  13.945   1.744   5.115  0.1700  0.1320 -0.5243
28239W        W44373  16.765   6.755   1.802 -0.0152  0.0144  0.4667
28240W        W44374   6.102  16.420   3.929 -0.0033 -0.4156 -0.0487
28241W        W44375  13.232   0.048   1.641 -0.1922 -0.0799  0.0968
28242W        W44376   5.078  15.985   0.964  0.0020 -0.3141 -0.0202
28243W        W44377   3.145   0.093   2.584 -0.1672  0.0553 -0.3163
28244W        W44378   3.480  12.073  10.103  0.2336 -0.0834  0.0261
28245W        W44379  18.488   5.404   3.379  0.1819  0.1499 -0.0276
28246W        W44380   7.215   6.227   0.214  0.0684 -0.6028  0.0068
28247W        W44381   8.764   0.517   1.349  0.2985 -0.1297  0.1217
28248W        W44382   5.545   4.657  10.107  0.0041 -0.2018  0.3072
28249W        W44383  13.237   7.857   4.333  0.0829  0.1692  0.2419
28250W        W44384   2.446   4.172  10.309  0.2779 -0.1154 -0.1156
28251W        W44385   4.212   9.690  14.906 -0.0814 -0.1235  0.0447
28252W        W44386   4.888  16.435   1.019  0.0363 -0.0059  0.2384
28253W        W44387  10.677  12.836  13.998 -0.0594  0.0700 -0.0578
28254W        W44388  16.044   0.278   9.602  0.0675  0.0767  0.2017
28255W        W44389   9.630   5.206   2.517 -0.3131 -0.2794  0.0268
28256W        W44390   0.239  13.070   1.497 -0.0595 -0.0296  0.0070
28257W        W44391  14.935  11.983  10.659 -0.3974  0.2188  0.0536
28258W        W44392  14.971  14.897  11.100  0.1674 -0.0488 -0.2113
28259W        W44393   8.245  18.757  13.590  0.0208  0.1622  0.3256
28260W        W44394  11.131   1.298   3.417 -0.2182 -0.1268  0.0418
28261W        W44395  16.215  15.483   2.800 -0.0334 -0.3983  0.1930
28262W        W44396   6.644  12.317   0.277 -0.3125 -0.2312  0.0001
28263W        W44397   9.603   2.546  14.948 -0.1720 -0.2234 -0.1846
28264W        W44398   9.673  10.178  12.448  0.3616 -0.1264 -0.0678
28265W        W44399   4.190   0.333  13.288 -0.0491 -0.0254 -0.1576
28266W        W44400  12.992  10.508  14.354  0.2289  0.1794  0.1769
28267W        W44401  16.131   9.496  13.630  0.0305 -0.1025 -0.0867
28268W        W44402  12.268  15.229   1.295  0.1718 -0.1873  0.1422
28269W        W44403  12.547  18.477  12.080 -0.1819  0.3888  0.3179
28270W        W44404   4.389  17.365   2.892  0.4963 -0.2452  0.1720
28271W        W44405   4.974   8.264  10.570 -0.3008  0.0544  0.0837
28272W        W44406   2.056  10.424   4.671 -0.0518 -0.2003 -0.0381
28273W        W44407  15.138   0.686   5.058 -0.4237 -0.0361 -0.2084
28274W        W44408   5.434   1.486  14.053 -0.0329  0.1749 -0.0399
28275W        W44409   4.579   0.599   1.811  0.0327  0.1501  0.2781
28276W        W44410  14.803  12.382   2.454  0.0821  0.3143  0.1831
28277W        W44411   1.139   1.077  10.694 -0.0598 -0.1691 -0.2197
28278W        W44412  18.170  10.481  11.057 -0.2285 -0.2376  0.0582
28279W        W44413  18.486  12.834  11.616  0.2480  0.0987  0.0312
28280W        W44414  16.802  12.999   4.637  0.2041  0.0459  0.2309
28281W        W44415  11.107   0.364   5.187 -0.2296 -0.2322 -0.2578
28282W        W44416   9.374  15.762   4.424  0.0663 -0.0484  0.1943
28283W        W44417  14.768  11.796   2.603 -0.0018  0.2641 -0.2149
28284W        W44418   9.524  12.735  11.244 -0.0070 -0.3007  0.4132
28285W        W44419  17.496  13.384   1.238 -0.2917 -0.0841  0.2219
28286W        W44420   4.490  12.711  12.890 -0.1928  0.1500 -0.1519
28287W        W44421   4.962   3.638  14.895 -0.1035  0.0973  0.0881
28288W        W44422   3.666   0.628  14.516  0.0422 -0.0383 -0.0884
28289W        W44423  12.531   2.938  11.486 -0.0132  0.0552 -0.1577
28290W        W44424  15.990  18.287   3.925 -0.2819  0.0555 -0.0107
28291W        W44425  12.503   9.899   1.338 -0.2299 -0.0144  0.2824
28292W        W44426   9.533   8.163   5.192 -0.1381 -0.0029  0.0572
28293W        W44427   8.128   9.300  13.214 -0.0828  0.1316 -0.0423
28294W        W44428   8.936  17.303  10.925  0.2318  0.1862 -0.0594
28295W        W44429   4.617  15.943  10.401 -0.1708 -0.2593  0.0924
28296W        W44430  14.662   7.269   3.249 -0.1289  0.1906 -0.1211
28297W        W44431   4.962  14.635   1.122  0.3269 -0.0142 -0.1117
28298W        W44432   9.812   6.889   2.424  0.1950 -0.1330  0.2764
28299W        W44433  10.131   5.598   3.396  0.1551 -0.1527 -0.0133
28300W        W44434  11.800   0.391  13.977  0.1413 -0.2635  0.1331
28301W        W44435   3.543  17.838   1.632  0.1010 -0.2815  0.0741
28302W        W44436  10.702   4.393  14.584  0.2336 -0.2176  0.3870
28303W        W44437   1.567   6.064   2.685  0.1198 -0.2998  0.3751
28304W        W44438  18.273   0.216   2.215  0.2282 -0.0734  0.0496
28305W        W44439   4.078  16.927  12.848 -0.1205 -0.3810 -0.2837
28306W        W44440   1.447  14.407   3.892 -0.1041  0.5257 -0.0802
28307W        W44441   5.499  18.405   0.462  0.2646 -0.1299  0.0051
28308W        W44442   0.391   6.137   3.354 -0.2191  0.4057 -0.0414
28309W        W44443  16.422  11.083   3.211 -0.2682 -0.0572  0.1042
28310W        W44444   2.512   4.991  11.267 -0.1505 -0.1037  0.5611
28311W        W44445   8.879  17.245   0.966  0.0488  0.1936  0.2267
28312W        W44446   8.148  11.300  14.416  0.1069 -0.2494  0.0594
28313W        W44447  15.436   5.215   3.313  0.2811  0.1299 -0.0225
28314W        W44448  15.613   5.854  12.034 -0.0167 -0.0810  0.2423
28315W        W44449  16.441   9.824  13.779  0.2703  0.0476 -0.1418
28316W        W44450   9.099   6.116   1.278 -0.2704 -0.0259 -0.3363
28317W        W44451   9.799   8.281  11.214 -0.0730  0.1198 -0.2092
28318W        W44452   2.939  10.204   0.499 -0.3036  0.3832  0.1198
28319W        W44453   2.420  14.707   4.125 -0.3099  0.1698  0.0509
28320W        W44454   5.211   6.243   1.053 -0.1189 -0.1714 -0.1494
28321W        W44455  11.158  18.902   4.194  0.2542  0.2682  0.2413
28322W        W44456   1.391  17.033  14.480  0.1650  0.2341 -0.0112
28323W        W44457  11.854  11.986   0.979  0.4407  0.0629  0.3466
28324W        W44458  17.734   7.844   5.149  0.1863  0.3209  0.0329
28325W        W44459   3.808  15.373  10.080 -0.1277  0.1685 -0.0656
28326W        W44460  16.533  10.848   4.520 -0.1168  0.2125  0.3799
28327W        W44461  15.061  14.243   2.662 -0.0260  0.0329  0.5562
28328W        W44462   4.119   8.612  10.401 -0.0649  0.2267  0.2359
28329W        W44463  15.847   5.279  14.894  0.0177 -0.0168  0.0438
28330W        W44464   1.548   5.430   1.252  0.2643  0.3094  0.1265
28331W        W44465  10.913   0.035   4.219 -0.1540 -0.1372 -0.1148
28332W        W44466   6.801  18.814   1.994 -0.1775  0.0893  0.0460
28333W        W44467  17.570   9.760  14.986 -0.0316 -0.1833  0.4932
28334W        W44468   2.455  19.080  13.816  0.2608  0.0712  0.1481
28335W        W44469  18.702  13.074  14.225 -0.3857  0.2064 -0.1305
28336W        W44470  12.146  12.055  14.887  0.2195 -0.2143  0.0477
28337W        W44471  11.796  17.022  10.843 -0.0987  0.2463  0.1635
28338W        W44472   2.328   8.226   2.074 -0.0384  0.2420  0.2770
28339W        W44473   2.721  19.151  14.239  0.0629  0.4809 -0.1019
28340W        W44474   8.225  12.228  12.151  0.3108 -0.0131  0.1472
28341W        W44475  17.011  19.063   2.447 -0.1134 -0.1184  0.1333
28342W        W44476   5.214  16.139  10.797 -0.1038  0.4267 -0.2366
28343W        W44477   6.823   7.619  14.529  0.0860  0.1664 -0.2175
28344W        W44478   9.728  12.322  11.079 -0.2240 -0.0778  0.0019
28345W        W44479   0.151  17.690   2.085 -0.1710  0.0632  0.2579
28346W        W44480   6.406  18.381   3.764 -0.0076  0.0746 -0.2344
28347W        W44481   6.831  13.956   0.501  0.1409  0.0186 -0.1299
28348W        W44482   2.061   4.301   1.609  0.0330  0.1591 -0.1045
28349W        W44483  13.738  10.702  13.399 -0.0789  0.2353 -0.3039
28350W        W44484  18.012  16.391  10.456  0.0137 -0.0805  0.1426
28351W        W44485   1.911  18.227  11.804 -0.0909  0.1524  0.2729
28352W        W44486  16.628  16.271   2.669  0.1349 -0.0055  0.0344
28353W        W44487  17.720  14.039   3.950 -0.0177 -0.3141  0.0103
28354W        W44488   3.045  10.538  12.229 -0.3036  0.2891 -0.0576
28355W        W44489  13.738   9.783   3.656  0.2330  0.4225  0.3489
28356W        W44490  14.174  14.271   0.690 -0.5088 -0.1379 -0.0137
28357W        W44491  11.224  12.778   4.625  0.3654 -0.2302 -0.0776
28358W        W44492   8.076   4.320   4.197 -0.2352  0.2186 -0.0520
28359W        W44493  18.907   2.508  14.042  0.2541 -0.1564  0.1925
28360W        W44494   6.212  17.335   4.853 -0.3185 -0.0645 -0.1855
28361W        W44495   7.864  12.200  14.645  0.1212 -0.4416  0.1032
28362W        W44496   5.281   9.730  14.391  0.1166 -0.1932 -0.1040
28363W        W44497   4.539  18.763   0.839 -0.0094  0.1003 -0.0186
28364W        W44498  15.373  15.871   3.295  0.3621  0.0992  0.2753
28365W        W44499  18.659  16.636  14.014  0.0543 -0.0323 -0.0498
28366W        W44500  14.951  15.717   2.293  0.0441  0.1469 -0.1042
28367W        W44501  16.309   9.004  10.346 -0.0496  0.0139 -0.1601
28368W        W44502   8.569   9.510  13.052 -0.0382  0.1263  0.1725
28369W        W44503   2.373   5.212   2.059  0.1684  0.0857 -0.4937
28370W        W44504   4.320  12.622  13.981 -0.1310 -0.1201 -0.0021
28371W        W44505   0.779   9.125   5.136  0.3095 -0.0167  0.1335
28372W        W44506  12.425   8.261   4.134  0.3175  0.2015  0.1166
28373W        W44507   5.520   0.081  11.608 -0.2736  0.0422  0.0529
28374W        W44508  12.976   7.927  14.719  0.0867  0.1067  0.1492
28375W        W44509   3.575  18.460  11.928  0.1625  0.1817  0.1701
28376W        W44510  17.294   5.941   9.083 -0.2179 -0.5812 -0.1542
28377W        W44511  15.922   2.949   0.377  0.0968  0.3099 -0.2238
28378W        W44512  12.450  16.299  12.816  0.2479  0.0908  0.4515
28379W        W44513   5.037   1.335  14.351 -0.0182  0.0570 -0.0804
28380W        W44514   8.374   2.912  14.430 -0.3245 -0.0012  0.1323
28381W        W44515  16.600   5.934  12.883 -0.0230 -0.0302  0.0045
28382W        W44516  13.181  11.359  13.340 -0.2728  0.4802 -0.0985
28383W        W44517   1.705  11.264   4.644 -0.2391  0.0956 -0.2668
28384W        W44518  13.488  17.220   1.275  0.1529  0.1165  0.0577
28385W        W44519  17.746  18.272   9.769 -0.0453  0.1284  0.1898
28386W        W44520   9.700   4.574   3.874 -0.2172 -0.2816 -0.2678
28387W        W44521   2.053  17.216   1.671 -0.0187 -0.0743  0.0123
28388W        W44522  17.466  17.688   0.606 -0.1413  0.1809  0.0453
28389W        W44523   6.736  11.026   4.212 -0.0072  0.0533 -0.0561
28390W        W44524   4.756   1.302   0.273  0.0317  0.0866  0.2263
28391W        W44525   6.710  10.651  11.140 -0.1304 -0.1695  0.0607
28392W        W44526  18.711  11.517   3.332  0.1102 -0.0936  0.1130
28393W        W44527   2.868  11.142  13.001 -0.0019 -0.2267  0.2344
28394W        W44528   9.201  19.252  11.031 -0.4075 -0.2205  0.1544
28395W        W44529  18.246  16.773   1.304 -0.5090 -0.1705  0.2409
28396W        W44530  18.133  12.718   9.736  0.1713  0.0396 -0.1291
28397W        W44531  10.938   3.286   1.969 -0.2506 -0.0905 -0.1823
28398W        W44532   7.204  12.116   2.285  0.2897 -0.3406  0.1151
28399W        W44533  16.063  17.458  12.287 -0.3068 -0.0694 -0.0368
28400W        W44534   2.948   3.035  10.188 -0.0813 -0.2126  0.0829
28401W        W44535   6.296  17.815   9.177 -0.0693  0.0589  0.0983
28402W        W44536   4.595   5.022  10.697  0.3673  0.0208 -0.0254
28403W        W44537   7.945   7.145   1.330  0.4949  0.2693  0.1545
28404W        W44538  12.184   5.960  14.796 -0.0391  0.3740  0.4376
28405W        W44539   7.587  16.354  13.345 -0.4770  0.4471  0.0258
28406W        W44540   0.373   4.459   3.989 -0.1929 -0.0956 -0.1658
28407W        W44541   6.181   0.101   2.992  0.0556 -0.0187 -0.2210
28408W        W44542   8.999  12.811   1.124  0.1674 -0.0791 -0.1502
28409W        W44543  19.186  13.062  12.857 -0.0710 -0.0462 -0.0961
28410W        W44544   6.139  14.451  12.924 -0.1708  0.1588 -0.1667
28411W        W44545   7.458  18.366   2.086 -0.2940  0.0240 -0.0615
28412W        W44546   3.383  13.722   4.667  0.0740 -0.1100  0.2983
28413W        W44547   9.380  10.470   4.518 -0.2838 -0.0909 -0.0889
28414W        W44548   3.372   2.733  11.284  0.2458 -0.0584  0.0234
28415W        W44549  11.869   7.776  14.124 -0.1287 -0.2269 -0.0240
28416W        W44550   3.367  13.926   2.703  0.0194  0.3242  0.1277
28417W        W44551  15.252  16.295  14.667  0.1703 -0.0527  0.2974
28418W        W44552   4.887  17.194   4.712  0.1183 -0.1157  0.0809
28419W        W44553   2.875   0.517  12.087  0.0762 -0.0469 -0.2914
28420W        W44554  12.343   0.549  12.097 -0.2294  0.1011  0.2558
28421W        W44555  16.020  18.214   9.633 -0.0151  0.4078 -0.0874
28422W        W44556   0.829  13.119   3.749  0.2227 -0.0526 -0.0346
28423W        W44557  15.396   6.556   3.019  0.0071  0.1508  0.0789
28424W        W44558  10.011  15.912  12.190  0.3370 -0.4423 -0.1768
28425W        W44559   7.193   9.340   4.167  0.1194 -0.1458  0.1877
28426W        W44560  12.861   8.488   4.214 -0.1070 -0.3413 -0.1662
28427W        W44561   8.339   4.968   1.692 -0.2416  0.1364 -0.1014
28428W        W44562  15.392  16.347  12.777 -0.2797 -0.5023  0.1307
28429W        W44563   2.682   0.233  10.921 -0.6134 -0.2053 -0.0876
28430W        W44564   1.679   7.807   4.037 -0.1175 -0.1340 -0.1754
28431W        W44565  18.081  16.196  13.735  0.0964 -0.0976 -0.3433
28432W        W44566  13.109  16.306  10.528  0.0038  0.0835  0.0596
28433W        W44567   4.076  18.713   1.910 -0.3568  0.1394  0.1107
28434W        W44568   6.819   8.227  11.296 -0.1932 -0.1224  0.1515
28435W        W44569   5.543   8.983  10.473 -0.0040 -0.1200  0.0136
28436W        W44570  16.156   2.398  12.308  0.5396 -0.2123 -0.1147
28437W        W44571  10.430   2.301  12.704  0.2048 -0.0975  0.0156
28438W        W44572   6.354   1.932   3.084 -0.0312 -0.0610 -0.2107
28439W        W44573  18.080   8.055   1.651  0.2072 -0.1261  0.2609
28440W        W44574  18.815  18.798   0.250  0.3130 -0.1059  0.2528
28441W        W44575   9.106   5.540   1.343  0.0541  0.0875 -0.1453
28442W        W44576   3.096  10.228   1.068 -0.2336  0.2410  0.1160
28443W        W44577   3.151   9.741   1.473  0.0031 -0.1390  0.0775
28444W        W44578  15.863  12.671  14.169  0.2984  0.1200 -0.2515
28445W        W44579   4.136   8.574   4.312 -0.1664 -0.3327 -0.0831
28446W        W44580  11.020   0.070   4.738 -0.0870 -0.1367 -0.0068
28447W        W44581  13.980  18.346   0.104 -0.0108  0.1980 -0.0421
28448W        W44582  11.328   1.879   1.985  0.0097 -0.0757 -0.0919
28449W        W44583  18.169  17.726   1.989  0.0574  0.2719  0.0100
28450W        W44584   9.426   4.777   3.330  0.1763 -0.2121 -0.2912
28451W        W44585  15.575  11.578  13.109  0.3564 -0.2384 -0.0042
28452W        W44586  15.802  15.801   0.576  0.0631 -0.1553  0.0688
28453W        W44587   8.300  11.943  11.046 -0.3272 -0.2234  0.1961
28454W        W44588   7.782  14.098   3.127  0.0326  0.2452 -0.3622
28455W        W44589  15.920  13.393   4.120  0.3781 -0.0290 -0.3136
28456W        W44590   9.762   0.835  13.957  0.0549  0.2109  0.0598
28457W        W44591  10.828  18.829  14.702  0.0669 -0.1431 -0.2352
28458W        W44592   2.176  18.567   0.735 -0.2445 -0.0509  0.1628
28459W        W44593  14.379  10.523  12.061 -0.1733 -0.2948  0.2354
28460W        W44594   6.447  12.068  10.868  0.2425  0.0385 -0.1692
28461W        W44595   5.108  15.134   0.385 -0.1799 -0.0962 -0.1147
28462W        W44596   2.610   3.252  13.014 -0.0180  0.0245  0.3814
28463W        W44597   7.072   7.312  13.726  0.1333  0.1147 -0.0607
28464W        W44598  15.620  13.016   3.996 -0.4178  0.0729  0.2778
28465W        W44599  17.314  12.848   2.274 -0.2821  0.3656  0.0898
28466W        W44600   3.581  16.196  13.879  0.0621  0.0760 -0.0945
28467W        W44601   3.448   5.893   2.609  0.1116  0.3555  0.4377
28468W        W44602  17.374   2.169   4.124  0.0068  0.3814 -0.0499
28469W        W44603  13.360   8.677   0.669 -0.2222  0.3643  0.3808
28470W        W44604  17.856   2.681   0.627  0.2427 -0.2990 -0.2475
28471W        W44605   9.993   1.336   4.299  0.0217  0.0630 -0.0353
28472W        W44606  17.201   4.222   1.411 -0.1575 -0.0180 -0.1991
28473W        W44607  12.765  16.266   0.523  0.0787 -0.0093 -0.1396
28474W        W44608   5.952   8.213   3.188 -0.0128  0.1708  0.2080
28475W        W44609   7.837  10.478   4.711 -0.2821 -0.0277 -0.1868
28476W        W44610  14.022   1.503   3.522 -0.0307 -0.1935  0.1008
28477W        W44611   0.203   7.903   0.256 -0.2452  0.0201 -0.1946
28478W        W44612   0.258  11.086   1.813  0.0925 -0.2815  0.1046
28479W        W44613   1.388  17.871   2.553 -0.0013 -0.2519 -0.2368
28480W        W44614  13.241   4.978   2.584 -0.0141  0.1512 -0.0698
28481W        W44615   5.475  13.636   1.424  0.0179 -0.0193  0.1805
28482W        W44616   2.157  16.753   0.004  0.3623  0.3469  0.1704
28483W        W44617  12.389  17.782   5.753 -0.0165  0.0702 -0.1353
28484W        W44618  10.157   7.025   0.707 -0.3207 -0.1486 -0.2207
28485W        W44619  16.710   5.157   0.593 -0.5325  0.0084  0.1214
28486W        W44620  15.813  15.016   2.250  0.0923 -0.1581  0.1383
28487W        W44621   4.330   0.259   4.617 -0.1312 -0.0144  0.0379
28488W        W44622   5.055  10.658  14.558  0.0827  0.1234 -0.2138
28489W        W44623  12.228  11.361  10.455 -0.1224 -0.1224 -0.4242
28490W        W44624   6.905   6.990   1.274 -0.2683  0.0321 -0.2095
28491W        W44625  15.305   4.449   5.126 -0.1298 -0.1654 -0.1839
28492W        W44626   6.682  14.186  13.282  0.0137 -0.3896 -0.2150
28493W        W44627   5.251  13.337   5.610  0.0322  0.0608 -0.0156
28494W        W44628   0.551   4.518   2.169 -0.0815 -0.1655  0.1490
28495W        W44629  15.873   5.522  10.953 -0.1813  0.1947 -0.1249
28496W        W44630   7.552   4.733  14.932 -0.1830  0.1300 -0.0678
28497W        W44631   7.937   8.652  14.872  0.2361  0.4150  0.1739
28498W        W44632  16.506   1.362   2.476  0.2506 -0.1214  0.0505
28499W        W44633   9.256   1.875   2.240  0.1284 -0.4682 -0.2817
28500W        W44634  10.579   8.953   0.973  0.0269 -0.0241  0.2865
28501W        W44635  13.548   1.443   5.230  0.1456 -0.0594  0.4908
28502W        W44636   0.070   1.667  12.932 -0.0289 -0.2554  0.1928
28503W        W44637  14.612  11.200   4.565  0.2450 -0.1927  0.0026
28504W        W44638   3.833   8.336   0.405 -0.1865 -0.0717  0.1425
28505W        W44639   2.076   2.992   9.116 -0.0119 -0.1409 -0.1411
28506W        W44640  17.119   4.903  13.470 -0.1852 -0.1045 -0.0338
28507W        W44641   7.552  12.777   3.825 -0.0873 -0.0568  0.0402
28508W        W44642   2.175   1.378   2.984 -0.0378  0.0551 -0.1814
28509W        W44643   0.659  18.770  14.062  0.0428  0.4567 -0.0116
28510W        W44644   3.012   1.126   0.197  0.1270  0.1596  0.0326
28511W        W44645  16.233  11.212  10.702  0.1712 -0.3684  0.1542
28512W        W44646   1.483  17.346   4.280 -0.1230 -0.2144 -0.1835
28513W        W44647  18.760   1.755  10.891  0.5017 -0.2049  0.1839
28514W        W44648  13.966  10.436   3.062 -0.1890 -0.0448  0.1009
28515W        W44649  14.660  13.914   4.281 -0.0416 -0.0433  0.1072
28516W        W44650  17.788  11.914   5.788  0.0388  0.0129  0.0783
28517W        W44651  10.874   1.010  14.271  0.0307 -0.2834  0.0589
28518W        W44652  12.735  10.836  15.001 -0.1232 -0.0454  0.4297
28519W        W44653  19.325   0.314  11.416 -0.0431 -0.2277 -0.1144
28520W        W44654  11.653  18.987  12.253 -0.3189 -0.1695  0.1280
28521W        W44655   1.241   3.240  10.518 -0.0558 -0.0056 -0.1567
28522W        W44656  17.244  12.873  12.596 -0.1694  0.0196 -0.2328
28523W        W44657  15.732   5.218   4.166  0.2920 -0.0913  0.1527
28524W        W44658   5.578  18.421  12.744  0.1513  0.2794 -0.1470
28525W        W44659   1.848  13.627   4.479 -0.2616 -0.1532 -0.1776
28526W        W44660   4.283  18.629   3.905  0.1820  0.3208 -0.2712
28527W        W44661  13.775   5.226  13.969  0.3620 -0.0697 -0.2402
28528W        W44662   5.457  16.090   0.652 -0.1670 -0.0210  0.1425
28529W        W44663   6.105  15.801  12.098  0.0334 -0.1068  0.1755
28530W        W44664  13.109   8.845   1.447  0.1136 -0.0869  0.2847
28531W        W44665   4.162  11.925  14.631  0.0382 -0.1467 -0.2355
28532W        W44666   4.499   7.827  14.442  0.1674 -0.3174  0.0818
28533W        W44667   1.746   0.755   2.513 -0.1143  0.2327  0.1553
28534W        W44668   2.710  15.223  14.935 -0.2755 -0.0753  0.1865
28535W        W44669  19.074  17.523  12.495  0.1324  0.1395 -0.1490
28536W        W44670   5.599  18.371  10.358 -0.2253  0.0991  0.1646
28537W        W44671   3.448  16.136   3.797  0.0272 -0.1993 -0.2602
28538W        W44672  16.928   7.376   4.106  0.1525  0.0902 -0.2666
28539W        W44673   5.593  19.292   0.965 -0.0105  0.3550 -0.5334
28540W        W44674   3.651  12.027  11.828  0.1457  0.3287  0.0234
28541W        W44675   4.498   0.160  14.583  0.2329  0.0470  0.0427
28542W        W44676  13.216  14.412   1.959  0.0654 -0.2856  0.1004
28543W        W44677  15.582  18.569   1.039 -0.0699  0.1963 -0.1524
28544W        W44678   9.057  11.789   0.789  0.1318  0.2193  0.1172
28545W        W44679  17.239  19.055  10.521 -0.0533 -0.0774  0.3273
28546W        W44680   8.946   4.431   3.897  0.0281  0.3569 -0.1034
28547W        W44681  16.400   3.610  14.243 -0.1230 -0.1679 -0.3788
28548W        W44682  16.781  13.111  12.436 -0.1209  0.1411 -0.1218
28549W        W44683   4.123  15.985   4.561  0.0044 -0.0758 -0.0762
28550W        W44684   6.354   7.712  13.628 -0.1828 -0.0241 -0.4767
28551W        W44685  11.886   8.582   2.025  0.1268 -0.0218 -0.0333
28552W        W44686   7.162   6.700  10.254  0.2021  0.1263 -0.4485
28553W        W44687   8.427  18.128   4.461 -0.2561  0.0226 -0.0251
28554W        W44688   9.379  17.451  11.435  0.1165 -0.2357 -0.2890
28555W        W44689   5.115   4.057   2.652 -0.2808 -0.1181  0.2790
28556W        W44690   0.541   6.093   0.336  0.1480  0.0990 -0.0106
28557W        W44691  18.611   7.657  10.862  0.1588  0.3223  0.0312
28558W        W44692  10.069  15.782  13.492  0.3163  0.0952 -0.1126
28559W        W44693   9.080  16.201  10.798  0.0499  0.3176 -0.0035
28560W        W44694   3.671  15.791   1.578  0.1095  0.2512  0.3152
28561W        W44695   5.381  14.197   1.770 -0.2720 -0.0652  0.0415
28562W        W44696  10.746  18.434  14.401  0.0186  0.0303 -0.2270
28563W        W44697  18.025  11.245   1.452 -0.1693 -0.0694 -0.0464
28564W        W44698   7.414  11.145   2.392  0.1817 -0.5095 -0.3876
28565W        W44699   0.703   3.663   0.074 -0.1597 -0.0965 -0.1865
28566W        W44700  18.862   9.453  11.267  0.0358 -0.1867  0.0592
28567W        W44701  18.807  16.298  13.048  0.0445 -0.1963  0.2890
28568W        W44702   6.923  13.298  12.723 -0.0994  0.0685 -0.2192
28569W        W44703   9.509   5.798  13.147 -0.1204  0.0573  0.0174
28570W        W44704  13.696   8.790  11.739 -0.3991 -0.0981 -0.0769
28571W        W44705   8.873  18.092  13.311 -0.0781 -0.1406  0.0440
28572W        W44706  18.508   9.791   1.387  0.0141  0.0355 -0.0770
28573W        W44707  11.476   3.589  14.650 -0.1076  0.0375 -0.1888
28574W        W44708   5.088   1.718  10.812  0.1331  0.2785 -0.0332
28575W        W44709   7.042   7.259  10.253 -0.0813 -0.5237 -0.0108
28576W        W44710   2.402   5.815   4.566  0.2992  0.1292  0.1291
28577W        W44711  15.717  11.476  12.641  0.0925  0.3322  0.2422
28578W        W44712  10.829  19.065  13.796 -0.2151  0.2512  0.4296
28579W        W44713  15.166   6.120  14.812  0.2042  0.0303 -0.1104
28580W        W44714   1.816   4.152  12.489 -0.2628  0.0956  0.1073
28581W        W44715  12.399   5.286   0.021  0.2854 -0.3278 -0.0800
28582W        W44716  11.841  12.343   0.665  0.1297  0.0258  0.4545
28583W        W44717   1.675   1.094  14.733  0.2553  0.1607  0.1211
28584W        W44718   0.364   7.536  11.599  0.0308 -0.0378 -0.1363
28585W        W44719   7.356  13.301  14.895  0.2841 -0.0117 -0.2706
28586W        W44720  13.410  13.051   4.980 -0.0933  0.1521 -0.3030
28587W        W44721   9.269   5.423  12.964  0.1401 -0.0422 -0.3038
28588W        W44722   4.008   4.492   3.782  0.0774 -0.2703  0.0973
28589W        W44723  10.363   5.575   0.406  0.2383 -0.1477  0.1398
28590W        W44724   1.967   0.520   1.334  0.3285 -0.2008  0.0976
28591W        W44725   2.658   3.258  14.982  0.0309 -0.0310 -0.0887
28592W        W44726  11.398   2.635   5.097 -0.0041  0.1198  0.1682
28593W        W44727   6.116  12.102   4.936  0.2133 -0.1827  0.0211
28594W        W44728  10.701   4.265   2.478 -0.0731  0.0494 -0.0955
28595W        W44729   2.612   7.376   1.935 -0.2256  0.0198  0.0648
28596W        W44730   3.648  11.354   2.429  0.0683 -0.0629  0.2233
28597W        W44731  13.338  11.520  12.164  0.0045 -0.1769 -0.1824
28598W        W44732   9.103   3.281  14.815 -0.0074  0.0268  0.3276
28599W        W44733   5.753   3.472  14.122  0.2951 -0.1010  0.2362
28600W        W44734  10.103  15.006   0.408  0.0967 -0.5050  0.1616
28601W        W44735  13.538   2.418  13.812  0.0116 -0.1681  0.2142
28602W        W44736  15.802  17.047   0.177 -0.1991 -0.1523  0.0774
28603W        W44737  18.712  12.332   2.926 -0.2115  0.0808 -0.3137
28604W        W44738  10.732  12.946  13.301  0.0055 -0.2465  0.1400
28605W        W44739   8.421  16.736  13.762 -0.1363  0.3726  0.2030
28606W        W44740   2.130   3.167  10.606 -0.2892 -0.1619  0.0270
28607W        W44741  15.327   3.389   3.996  0.0826  0.0797  0.1542
28608W        W44742  16.158  11.000  14.892  0.2887 -0.1351 -0.2396
28609W        W44743  18.339   2.626  10.773  0.2251 -0.3602 -0.0239
28610W        W44744  15.005  12.077   3.120  0.0938  0.2342  0.0778
28611W        W44745  18.128  13.173  12.378  0.0070 -0.0472  0.0310
28612W        W44746   7.846  16.485   0.372  0.0318  0.4682  0.1925
28613W        W44747  18.523  15.838   2.989 -0.0459 -0.0401 -0.1509
28614W        W44748  18.830  18.610  13.555 -0.0364 -0.0424 -0.0411
28615W        W44749  11.060  18.339  11.292 -0.1754  0.4056 -0.1912
28616W        W44750   0.966   5.781   4.420 -0.0377  0.0289 -0.1766
28617W        W44751  14.659  10.398  13.882 -0.5350  0.1222  0.4699
28618W        W44752   5.580  12.761   0.839  0.2056 -0.1557 -0.0442
28619W        W44753  11.594   9.748   0.653  0.3225  0.1370  0.4753
28620W        W44754   8.340   5.810  11.649 -0.0726  0.0371 -0.3850
28621W        W44755  17.463  18.302  10.696 -0.1566  0.0056  0.0035
28622W        W44756  10.571  18.645  11.436  0.0168  0.0411 -0.0269
28623W        W44757  13.431   7.653   3.404  0.1735  0.1348 -0.2303
28624W        W44758  18.163   9.680  13.101 -0.0395  0.1438  0.1770
28625W        W44759  12.297   7.920   9.563  0.3029 -0.1880 -0.0910
28626W        W44760  14.468   0.675   1.111  0.1267  0.0307  0.0997
28627W        W44761  14.590  14.523   4.355  0.2184 -0.0131  0.1903
28628W        W44762   5.520   3.928  12.753 -0.0901 -0.1594  0.2515
28629W        W44763   9.680   9.542   4.038  0.1113 -0.3390  0.0098
28630W        W44764   6.364   5.129  10.470 -0.0443  0.2266  0.0444
28631W        W44765   4.242  15.443   4.467 -0.2622  0.4387 -0.1461
28632W        W44766  14.956  19.035  12.510 -0.3603  0.0883 -0.1760
28633W        W44767  17.076   1.362  10.999 -0.0104  0.0860  0.0636
28634W        W44768   4.087  16.206   3.929 -0.1690  0.0110 -0.0796
28635W        W44769   6.983   4.668   5.209  0.1703  0.0044  0.0186
28636W        W44770  17.645   1.261  12.780 -0.2921  0.1512 -0.0538
28637W        W44771  15.590  10.862   3.479 -0.1016  0.1817 -0.0600
28638W        W44772   4.313  16.998  11.422 -0.5318  0.1203  0.2892
28639W        W44773  10.411  10.644   2.298  0.1553  0.1261  0.0200
28640W        W44774   4.675  13.599   1.838  0.0381 -0.0707  0.3090
28641W        W44775   1.824   4.934   0.422  0.2817 -0.1686 -0.2630
28642W        W44776  16.384   6.070  14.920 -0.0356  0.1177 -0.2126
28643W        W44777  17.688   9.401   1.073  0.0768 -0.1549  0.1369
28644W        W44778  14.362   3.647   2.810 -0.0327  0.0076 -0.2852
28645W        W44779   1.892   8.585  13.445  0.1204 -0.3018  0.0035
28646W        W44780   7.840   2.325  11.017 -0.3011  0.1931 -0.1455
28647W        W44781  10.050  14.332  13.915 -0.3756 -0.0299 -0.1317
28648W        W44782   2.051  14.032  12.770 -0.0060  0.1017  0.0311
28649W        W44783  17.983   1.236   2.066 -0.1170 -0.0897  0.2429
28650W        W44784   5.172  12.761  13.790  0.3951  0.1980  0.2223
28651W        W44785  12.478   2.352   2.057 -0.0247  0.0061 -0.2574
28652W        W44786  12.459   3.319   1.131 -0.3514 -0.2671  0.0839
28653W        W44787   9.209  12.781  12.115  0.0639  0.1498  0.0601
28654W        W44788   1.859  15.612   2.132  0.1873 -0.2286 -0.0160
28655W        W44789  15.225   2.024   4.071  0.0206 -0.0963  0.1519
28656W        W44790   8.812  16.418   0.841 -0.2342  0.1471 -0.0844
28657W        W44791  15.332  17.161   9.207  0.2216 -0.0863 -0.1907
28658W        W44792   5.696  10.794   4.266  0.0367  0.1337 -0.1216
28659W        W44793  17.257   8.717  13.116  0.1512  0.2083  0.0307
28660W        W44794   7.791   8.244  10.332 -0.0494 -0.0734  0.0076
28661W        W44795   5.150  14.045   1.313 -0.1836 -0.1864  0.0078
28662W        W44796   5.342   9.866   4.471 -0.1183 -0.0803  0.1921
28663W        W44797  13.481   8.440  11.441  0.3472 -0.2099 -0.2965
28664W        W44798   0.819  17.510   4.212  0.0840 -0.1789  0.0478
28665W        W44799  18.336   6.359  13.239 -0.0825  0.0759 -0.1724
28666W        W44800   7.113  13.619  12.409 -0.1106  0.0518 -0.3647
28667W        W44801  18.008   4.303   4.522  0.3778  0.1773  0.3301
28668W        W44802   9.585  18.559  13.961  0.1046  0.0798 -0.0038
28669W        W44803   3.676  10.879   4.475 -0.1347  0.0522 -0.1122
28670W        W44804  15.824   1.982   1.385  0.4119 -0.0200  0.3543
28671W        W44805   8.481   1.405  12.338  0.1239 -0.2630  0.0826
28672W        W44806   6.604   7.897  11.894  0.1166  0.0368  0.0048
28673W        W44807   9.798  13.130  10.749  0.2848  0.4276  0.0411
28674W        W44808   6.956   6.901  12.888 -0.0684 -0.0057  0.0898
28675W        W44809  16.091   7.178   3.266  0.0475 -0.0802  0.3009
28676W        W44810  18.735   5.493   1.139  0.1034  0.0564 -0.0902
28677W        W44811  10.423  16.836   3.010 -0.1117  0.2159  0.1529
28678W        W44812  15.301   0.874   0.620 -0.1274 -0.0407 -0.0546
28679W        W44813  16.190  11.795  10.778  0.1391 -0.2250  0.0362
28680W        W44814   8.435   7.920  13.277 -0.1970 -0.1957 -0.3811
28681W        W44815   4.119  14.360  11.275  0.0866  0.0848  0.2279
28682W        W44816  15.912  14.156  11.142  0.0357 -0.1529  0.3728
28683W        W44817   2.807   3.401   5.250 -0.1089 -0.0563 -0.2653
28684W        W44818  15.800  14.017  13.144 -0.0361 -0.0290  0.2850
28685W        W44819   3.627   0.649   1.686 -0.1977  0.2471 -0.0257
28686W        W44820   5.732  10.573   2.268 -0.0545 -0.1419 -0.2566
28687W        W44821   3.214  18.631   4.949 -0.2660 -0.1416  0.1353
28688W        W44822   2.066  13.311  14.404  0.1014  0.1299 -0.0588
28689W        W44823  16.752  12.369   2.143  0.1196 -0.0163 -0.1029
28690W        W44824  16.494   1.791   0.803 -0.1098  0.0738 -0.5394
28691W        W44825   0.760   6.027  10.736  0.2000  0.3582  0.3397
28692W        W44826  13.386   5.683  13.019  0.0194 -0.1386 -0.0570
28693W        W44827  15.402  11.301  12.089  0.0229  0.0957  0.0161
28694W        W44828   1.961  19.190  11.923 -0.1500  0.0567 -0.0766
28695W        W44829   0.549   8.739   0.415  0.2334  0.0856 -0.0066
28696W        W44830  12.182  17.717  10.581  0.3203 -0.1795  0.0766
28697W        W44831   3.463   0.751  13.827  0.3104 -0.2663 -0.0177
28698W        W44832   5.276  11.627   1.234 -0.0558  0.1052 -0.0862
28699W        W44833   0.576  17.499   1.477 -0.0872  0.2504  0.1644
28700W        W44834  14.757  14.308   5.710  0.2631  0.2797  0.1544
28701W        W44835   2.390  10.410   0.589 -0.3192  0.2506 -0.1014
28702W        W44836  17.861  14.144  10.487  0.0142 -0.1982 -0.1162
28703W        W44837   4.268  16.931  14.180  0.4800  0.2607 -0.0876
28704W        W44838  15.176  16.482   1.433 -0.2810 -0.1257 -0.3158
28705W        W44839  19.105   9.472   5.196  0.5495  0.0524 -0.1942
28706W        W44840   2.725  10.952  14.726  0.0934 -0.1645  0.3598
28707W        W44841   6.079  14.501   2.697 -0.3616 -0.3146 -0.4180
28708W        W44842   9.749  10.573   3.252 -0.0855  0.0623 -0.0545
28709W        W44843  10.444   2.875  13.002 -0.0198 -0.0557  0.0549
28710W        W44844   7.359  18.244  14.712  0.0067  0.2386 -0.3041
28711W        W44845  12.156  14.740   1.685 -0.2569 -0.3544  0.1105
28712W        W44846  18.503  19.250  13.539 -0.0537 -0.1554  0.0085
28713W        W44847  18.140   9.359   2.769  0.0880  0.0802 -0.1117
28714W        W44848   6.447  15.080   4.031  0.0499 -0.3405  0.1084
28715W        W44849  15.213  17.108  12.111 -0.0769 -0.1115 -0.3833
28716W        W44850   2.333   5.794   0.977 -0.1711  0.1473  0.1533
28717W        W44851  17.507  12.746   5.829  0.2724  0.1247 -0.1472
28718W        W44852   2.395  18.028  11.832  0.4244 -0.3288 -0.2187
28719W        W44853  14.209   5.411   4.696 -0.2046  0.0056  0.0110
28720W        W44854   2.655  10.062   2.490 -0.0976 -0.1044  0.1884
28721W        W44855   4.512   6.798  14.849 -0.2176 -0.0300 -0.0034
28722W        W44856   7.582  15.358  12.180  0.4927 -0.1263  0.1692
28723W        W44857  17.500   7.728  10.484 -0.0286  0.2475  0.0811
28724W        W44858   2.638   2.484  13.584  0.5283  0.1783  0.2651
28725W        W44859   0.063  10.265   1.330  0.0332 -0.2877 -0.0720
28726W        W44860   3.608   6.807  14.552 -0.0408 -0.0114 -0.1190
28727W        W44861  15.636  16.603   2.720 -0.1778 -0.2398 -0.0194
28728W        W44862   2.398  18.439   0.284  0.1863 -0.2818 -0.1688
28729W        W44863   1.601  11.097   0.788 -0.1523  0.0038 -0.2061
28730W        W44864   7.470  16.679   4.683 -0.0801 -0.3576  0.0088
28731W        W44865   0.403   7.548  10.736 -0.0897 -0.2058  0.3775
28732W        W44866   5.964   0.158  12.598 -0.0572  0.4434 -0.1257
28733W        W44867   6.468  17.002   4.407  0.0573 -0.1773 -0.0684
28734W        W44868   2.583  16.001   3.566  0.5083  0.2782  0.0477
28735W        W44869  16.995   4.974  10.857  0.1249 -0.1408  0.0356
28736W        W44870  16.388  17.669   2.331 -0.1605  0.0501 -0.0344
28737W        W44871   8.476  15.329  14.713  0.1285 -0.1124 -0.0789
28738W        W44872  19.221  13.296  10.811 -0.0934  0.0498 -0.2075
28739W        W44873   3.383  16.884   4.369  0.0689  0.1025 -0.2643
28740W        W44874  18.239  18.668  11.384 -0.1344  0.2300  0.0103
28741W        W44875  19.322  10.980  14.181  0.0984  0.3579 -0.1225
28742W        W44876   9.793   6.224   0.150  0.1566 -0.0265  0.2305
28743W        W44877   4.080   6.801  12.195 -0.2588  0.0462  0.0259
28744W        W44878   9.134  18.973  14.029 -0.0056  0.1108  0.1658
28745W        W44879  16.846  17.567  13.500 -0.0417 -0.0379 -0.0258
28746W        W44880   5.084   6.940   3.505 -0.0271 -0.2240 -0.1410
28747W        W44881   3.897   9.559   3.101  0.1462 -0.1861 -0.1507
28748W        W44882   8.408  16.844   4.070  0.0141  0.3472  0.1697
28749W        W44883   8.554   1.351   2.563 -0.0515 -0.1136 -0.1142
28750W        W44884  18.645   4.958  10.865  0.0468 -0.0192 -0.2387
28751W        W44885   1.332   9.723  14.431  0.0715 -0.2063  0.2258
28752W        W44886  17.519   1.573   3.934  0.0798  0.0759 -0.2771
28753W        W44887   9.905   8.885   0.604  0.1533  0.1409  0.0221
28754W        W44888   3.521   1.470  14.616 -0.3088  0.0281 -0.0086
28755W        W44889  16.150  11.559   1.191  0.3231  0.1098  0.1378
28756W        W44890   3.618  17.562   0.735  0.0618  0.0284  0.1377
28757W        W44891  12.386   0.844   1.275  0.1700 -0.1550  0.1176
28758W        W44892   3.309   6.361  11.164 -0.5194  0.2445  0.1175
28759W        W44893  10.248  13.730  12.016  0.3108 -0.1480  0.0843
28760W        W44894  18.721  17.709   3.733 -0.2866 -0.1803  0.2183
28761W        W44895  13.910  13.893  14.385  0.0840  0.1043 -0.0771
28762W        W44896   9.079   1.629   1.854  0.1752 -0.0280 -0.0763
28763W        W44897   8.541  15.201   2.595  0.0952  0.0482  0.0809
28764W        W44898  10.440   9.733   0.990  0.1754  0.1417 -0.1904
28765W        W44899   8.296   6.342   2.279  0.1854 -0.1480  0.0559
28766W        W44900   0.429  13.255  14.608 -0.1557  0.0633  0.2381
28767W        W44901  16.270  12.410   5.025 -0.5225  0.0152 -0.0638
28768W        W44902  16.968   5.494  10.924  0.0762 -0.3472  0.0816
28769W        W44903  18.747  10.949  13.937  0.1724  0.0356 -0.1206
28770W        W44904  13.782  17.575   1.287 -0.0965 -0.2606 -0.1606
28771W        W44905   1.469   4.656  14.091  0.1493  0.0852 -0.2280
28772W        W44906  16.021  10.848   3.074  0.2697  0.1787 -0.0054
28773W        W44907  15.879   1.821  10.952 -0.0639  0.0867 -0.1978
28774W        W44908   6.190  14.741   5.177 -0.1385 -0.3275 -0.4671
28775W        W44909  12.855   8.969  10.363  0.0662 -0.1433  0.1228
28776W        W44910   1.915   6.727   3.237  0.0007 -0.1538 -0.1538
28777W        W44911  12.548  13.794   1.466 -0.0036 -0.2691  0.0275
28778W        W44912   1.847   1.281   3.862  0.0251  0.1056  0.0701
28779W        W44913   0.461   6.507  11.880  0.1697  0.0885 -0.0412
28780W        W44914  10.816  18.357  12.543 -0.0342  0.0350  0.0192
28781W        W44915  13.265  18.096   5.482  0.2390  0.0319 -0.2107
28782W        W44916   5.139   0.529   9.909  0.2899  0.2861  0.0315
28783W        W44917  12.783   0.418  11.592 -0.0309 -0.0555 -0.0649
28784W        W44918  12.540  11.225  10.019 -0.0687  0.1300  0.0231
28785W        W44919   7.713  14.188   0.987  0.0849 -0.1441  0.5086
28786W        W44920   7.102   7.441   1.662  0.2391 -0.2159 -0.2180
28787W        W44921   2.505   7.079   4.500 -0.0567  0.1349 -0.1026
28788W        W44922  12.037   2.559   1.297 -0.0012  0.1710  0.0812
28789W        W44923   8.470  14.835   1.987  0.0140 -0.2596 -0.0923
28790W        W44924  15.606   5.821  12.657 -0.2076  0.2258  0.1953
28791W        W44925  10.716  11.228   4.036  0.1962 -0.0631 -0.1520
28792W        W44926   0.527   8.264  13.214  0.2392  0.0709 -0.2436
28793W        W44927  14.870  11.720   9.436 -0.1885 -0.1066 -0.1534
28794W        W44928   6.950  10.446   1.023 -0.1975 -0.4558 -0.1000
28795W        W44929  15.289  10.226   4.312 -0.3828 -0.1996 -0.0660
28796W        W44930  13.876  10.924   0.173 -0.3807  0.1846  0.2403
28797W        W44931   9.614   7.353   2.261  0.4041 -0.0114  0.2905
28798W        W44932  18.361  18.126  14.709  0.2584  0.0799  0.0671
28799W        W44933  16.270   9.207  12.101  0.1396 -0.2338 -0.1794
28800W        W44934  11.960  12.468  13.685  0.1722 -0.1366  0.4276
28801W        W44935  10.439   3.474   5.113 -0.2833  0.1023  0.1733
28802W        W44936  18.916   8.164  14.852 -0.2243  0.3035 -0.1096
28803W        W44937  15.218   3.079  14.625 -0.1910 -0.0542  0.1180
28804W        W44938  15.423   3.606  10.533 -0.1483 -0.0144 -0.1436
28805W        W44939   1.159   6.118   1.714 -0.0903  0.1305 -0.0801
28806W        W44940   0.469   3.451  10.686 -0.0537  0.1078  0.2976
28807W        W44941   1.843  10.406   1.845  0.1119  0.0906  0.0989
28808W        W44942  14.955   9.554  11.834  0.0568 -0.0207 -0.0253
28809W        W44943  16.369  12.880   0.169 -0.1739  0.0028 -0.2595
28810W        W44944  10.696  11.365  10.560  0.2166 -0.0111 -0.0747
28811W        W44945   2.436   0.312  12.146 -0.0876 -0.1989  0.4141
28812W        W44946   1.762  14.628  13.729 -0.0942  0.3489  0.4129
28813W        W44947  14.983   8.715  12.482  0.1088 -0.1860 -0.3276
28814W        W44948   9.633   1.368  12.327  0.1574  0.0030 -0.3336
28815W        W44949  17.852   3.841  10.585 -0.0708 -0.1720 -0.1345
28816W        W44950   0.829   5.983   2.642 -0.2961  0.1361 -0.1661
28817W        W44951  12.465   7.340   0.003  0.0778  0.0593  0.2100
28818W        W44952  13.891  18.749   4.993  0.1693 -0.3588 -0.0490
28819W        W44953   6.640  19.129  13.625 -0.0288  0.3716 -0.2942
28820W        W44954   2.643   8.447  10.266 -0.1644 -0.0219  0.2774
28821W        W44955   7.587  17.078  11.438 -0.2668  0.1178 -0.3987
28822W        W44956   0.555   8.000  10.667  0.0496 -0.0836 -0.0088
28823W        W44957   9.498  10.036   0.672 -0.0628  0.2287  0.4250
28824W        W44958  12.241   5.253  12.823 -0.2201  0.2660  0.1341
28825W        W44959  13.909  11.622   2.801  0.0207  0.0626 -0.1090
28826W        W44960  15.610   3.100  14.893 -0.1044 -0.0393  0.0650
28827W        W44961  16.753  13.945  14.995  0.0167 -0.0943 -0.1749
28828W        W44962  16.705   0.608  11.311 -0.2008  0.0739  0.3720
28829W        W44963  13.971   5.151   3.811  0.0527 -0.0538 -0.1677
28830W        W44964   9.054  12.663   0.589  0.1182  0.0917 -0.0607
28831W        W44965  18.407  15.763  13.102  0.5492 -0.1290  0.0149
28832W        W44966   7.650  18.301   4.104 -0.2143  0.0289 -0.1817
28833W        W44967   2.839  16.631   1.400 -0.2038 -0.1510 -0.1298
28834W        W44968   9.732   7.847   0.653  0.1169 -0.1072  0.3989
28835W        W44969   4.657  18.286   3.831 -0.0641  0.1160 -0.0376
28836W        W44970  15.766  18.613   4.915 -0.0889 -0.3727 -0.1230
28837W        W44971  18.406  13.537  11.963  0.2441  0.4881  0.0572
28838W        W44972  17.978  11.741  12.070  0.2424  0.2215 -0.0804
28839W        W44973  17.853   4.755  14.065 -0.1665  0.0146  0.1965
28840W        W44974  13.153   3.567   2.358 -0.0883 -0.2632  0.0866
28841W        W44975   6.870  11.203   4.755 -0.0883  0.1314 -0.0777
28842W        W44976   8.861   7.907   1.176  0.0421 -0.1421  0.1342
28843W        W44977  13.981  15.865  14.057 -0.0239 -0.1327  0.2200
28844W        W44978  14.563  18.059  14.310 -0.0127  0.0238  0.0735
28845W        W44979  14.645  16.263   0.871  0.0669  0.0901 -0.1199
28846W        W44980  18.753  13.538   1.093 -0.0991  0.0302  0.1945
28847W        W44981  17.786   6.157  13.713  0.1407  0.4651  0.1982
28848W        W44982   5.323   6.705  10.642  0.5897  0.4087 -0.3851
28849W        W44983   4.320  13.449  10.757 -0.3276 -0.1946 -0.0560
28850W        W44984  15.670   5.706   1.122 -0.2698 -0.1977  0.1736
28851W        W44985  18.098   0.831   3.185 -0.2462 -0.1451  0.0666
28852W        W44986   4.368   1.029   2.940  0.1664  0.2400  0.0795
28853W        W44987   6.399   4.923   1.237 -0.0802  0.2089  0.2824
28854W        W44988   7.136  10.133   4.066 -0.1137 -0.1300 -0.0710
28855W        W44989   9.998  12.088   0.636 -0.2431 -0.3298  0.3338
28856W        W44990   5.847   1.182   1.777 -0.0898  0.0227  0.3465
28857W        W44991  12.813  16.056   1.180 -0.5685  0.0710  0.1710
28858W        W44992  14.035  14.923  11.015  0.2744 -0.3075  0.3434
28859W        W44993   3.378   2.736  10.423  0.0206 -0.4374 -0.3591
28860W        W44994   9.537  11.123   4.189  0.1240  0.0439 -0.3091
28861W        W44995  19.217   6.453  11.922 -0.0459  0.0202 -0.3558
28862W        W44996   0.077  18.916   2.266  0.4184 -0.1640  0.1317
28863W        W44997   6.057   2.561   1.317  0.4929 -0.1726 -0.0127
28864W        W44998  18.551   8.202   1.976 -0.2218 -0.0672  0.1018
28865W        W44999  16.235   3.035  11.757 -0.0701 -0.5455  0.1493
28866W        W45000   6.840  13.498   4.672 -0.2511 -0.1854  0.2492
28867W        W45001  12.381  18.257   2.301 -0.3570  0.1952  0.2766
28868W        W45002   0.933   2.045   0.328 -0.1746  0.1624  0.0836
28869W        W45003   2.891   1.279  11.355  0.1522  0.3074  0.0427
28870W        W45004  10.917  14.785   0.214  0.2556 -0.1938 -0.1814
28871W        W45005  17.892  12.226   9.569 -0.1628  0.1247 -0.1990
28872W        W45006  18.951  10.354  11.748  0.1009  0.2049 -0.1337
28873W        W45007  13.881  14.487  11.544  0.1474 -0.1666 -0.0184
28874W        W45008   8.121   3.365   2.180  0.1387  0.2206 -0.1029
28875W        W45009  12.638   7.166   4.446 -0.2686  0.0269 -0.0265
28876W        W45010  15.581  15.234  13.863 -0.0054  0.1232 -0.3333
28877W        W45011   6.093  11.691   5.208 -0.0361  0.0291 -0.4258
28878W        W45012   9.587  12.743   4.779  0.1854  0.2965 -0.0055
28879W        W45013  12.993  17.526   1.397  0.1847 -0.0716 -0.1964
28880W        W45014   9.355  16.822   4.678  0.0217  0.2743 -0.0504
28881W        W45015   0.800  11.537  14.056 -0.0356 -0.0032  0.0518
28882W        W45016  15.227  15.257   4.050 -0.1640 -0.1288 -0.0974
28883W        W45017   8.278   7.876   1.627 -0.2809 -0.0659 -0.3989
28884W        W45018   1.840  15.374   0.088 -0.0365  0.0976  0.0649
28885W        W45019  13.822   5.186  10.509  0.0451  0.0977 -0.0972
28886W        W45020  13.718   8.991   4.344 -0.1828  0.0827 -0.1088
28887W        W45021  14.000  19.210  11.732  0.1062 -0.1708  0.2403
28888W        W45022   9.354  19.132   0.729  0.1795  0.1488  0.1587
28889W        W45023   4.114  18.138  13.247 -0.1836 -0.1349 -0.0565
28890W        W45024  11.427   9.889   3.761  0.1390  0.2093  0.0087
28891W        W45025   9.257   3.244   1.684  0.3056  0.0129 -0.0219
28892W        W45026   2.525   0.707  13.691 -0.1086  0.1425 -0.1719
28893W        W45027  11.144  11.812   9.261 -0.2796  0.0405  0.0083
28894W        W45028   7.075  13.268  10.047 -0.0045  0.3128 -0.2069
28895W        W45029  11.664   3.178  11.776 -0.0446 -0.2450  0.0261
28896W        W45030   7.150  14.772  11.564  0.0289  0.1457 -0.1605
28897W        W45031   1.631  13.404  11.855  0.0878 -0.4029 -0.0391
28898W        W45032  10.175  14.724  11.623  0.0979  0.2523 -0.2652
28899W        W45033  14.760   2.176   0.429  0.0341  0.2836  0.0336
28900W        W45034  18.404   5.299   0.720 -0.1339 -0.1578  0.2536
28901W        W45035  12.681  14.196  13.966 -0.1707  0.2788 -0.2878
28902W        W45036  18.934  14.137   3.843 -0.1078  0.0526 -0.0909
28903W        W45037  16.908   9.352   3.054 -0.1392 -0.2199 -0.2673
28904W        W45038   8.961  19.256  11.842  0.1190 -0.1751  0.1109
28905W        W45039  15.925   1.718   0.826 -0.0602  0.2091 -0.2367
28906W        W45040  17.960   5.420   0.920 -0.1006 -0.1822 -0.0972
28907W        W45041   3.494   0.480   4.156 -0.1170 -0.1233  0.0157
28908W        W45042   0.577   0.934  10.679  0.2188 -0.2606  0.0614
28909W        W45043  16.000   9.303  10.691  0.0887 -0.0585 -0.3595
28910W        W45044   3.605   2.644   0.146 -0.1484 -0.2066  0.0118
28911W        W45045  17.472   2.633   0.946 -0.1153  0.1261  0.1710
28912W        W45046   0.080   1.777   0.149  0.1064 -0.2954  0.0398
28913W        W45047   9.752  17.967  11.221 -0.2179 -0.2594  0.0003
28914W        W45048   1.819   2.011   3.658  0.0455 -0.0130 -0.1528
28915W        W45049  12.451  16.436   1.996 -0.1694 -0.3775  0.0081
28916W        W45050   1.076  18.862  13.820 -0.3018  0.3316  0.2284
28917W        W45051   3.771  10.471  12.496 -0.1455 -0.1436  0.1670
28918W        W45052  12.492  14.085   0.731 -0.0979 -0.4635  0.1946
28919W        W45053  17.282  16.388  12.589  0.2140 -0.0786  0.0735
28920W        W45054   8.033  14.533  13.734 -0.0169 -0.0290  0.0666
28921W        W45055   4.205   6.027  13.337 -0.0425  0.0068  0.2891
28922W        W45056   5.119   4.175   1.344 -0.0042 -0.0406 -0.0561
28923W        W45057   0.840  16.012   2.401  0.3174  0.3831 -0.0833
28924W        W45058   8.653  10.352  10.926  0.0762 -0.2758 -0.0641
28925W        W45059  14.805  10.282   0.836 -0.3895 -0.3061  0.3493
28926W        W45060   5.453   5.268  10.961  0.1378 -0.3754  0.1643
28927W        W45061   1.431  13.377  12.387  0.2835 -0.1203 -0.4337
28928W        W45062   5.102  11.394   3.313 -0.5157  0.1335 -0.3740
28929W        W45063   7.555   4.461  11.655  0.2054 -0.1852  0.0742
28930W        W45064  12.943   8.657  12.302  0.1131  0.1124 -0.1362
28931W        W45065  10.063  15.285  14.970 -0.0464  0.1174  0.0506
28932W        W45066  11.494  15.308   4.913 -0.1917  0.3391 -0.0516
28933W        W45067  10.313   0.827  13.827 -0.1944  0.0217 -0.0365
28934W        W45068   6.351   5.647  10.652 -0.1387  0.0041 -0.0179
28935W        W45069   1.426   8.071   4.894 -0.5354 -0.2672 -0.3398
28936W        W45070   7.632   3.546   0.880 -0.3053  0.1112  0.0145
28937W        W45071  11.143  17.095   0.014  0.0682 -0.2759  0.2337
28938W        W45072   9.240  16.177  13.486 -0.1948  0.1665 -0.2068
28939W        W45073  16.138  18.537  10.939  0.3349 -0.0579  0.2236
28940W        W45074  10.625   5.844   2.174  0.1304  0.1896  0.1324
28941W        W45075   0.014  11.348  11.106  0.0112  0.1658  0.3653
28942W        W45076   3.011   9.841  12.795 -0.1478  0.1041 -0.1438
28943W        W45077   2.921   4.929   5.499 -0.0471 -0.1706 -0.4429
28944W        W45078  11.550   1.352   3.125  0.1528 -0.3273  0.0151
28945W        W45079  15.475  12.612   0.798 -0.4564  0.1003 -0.1809
28946W        W45080   4.407   7.179  11.427  0.0489  0.1833 -0.0455
28947W        W45081   3.454   6.960   1.654 -0.0774 -0.1160 -0.0317
28948W        W45082   9.065   5.801   4.598 -0.1357  0.1177 -0.3915
28949W        W45083  14.293  10.810   4.719  0.3337  0.0166  0.0921
28950W        W45084   7.893  15.045   4.702 -0.0806 -0.1859 -0.1115
28951W        W45085   2.188   0.409  10.388  0.2958 -0.3412 -0.1876
28952W        W45086   6.863   5.137   4.577 -0.3466 -0.0702  0.0670
28953W        W45087   8.392  18.287  14.918 -0.0623  0.0250  0.2066
28954W        W45088  14.426  10.763  11.066  0.0556 -0.0836  0.1102
28955W        W45089   9.187  13.738  13.006 -0.1290 -0.0964 -0.1919
28956W        W45090  17.598  14.297   2.895 -0.2638 -0.0823 -0.0819
28957W        W45091  14.048   8.092   2.549  0.2574 -0.3408  0.1656
28958W        W45092  15.561  18.285  11.544  0.3571 -0.2192 -0.1507
28959W        W45093  17.469  13.567   4.609 -0.0875  0.1157  0.1291
28960W        W45094   6.143  12.940   3.108 -0.1460 -0.0928  0.2314
28961W        W45095  12.834   0.568  12.483  0.0435  0.0637  0.1438
28962W        W45096  10.012  17.671   1.285  0.1276 -0.0088 -0.3140
28963W        W45097   7.762   9.542  13.996  0.0350 -0.1700 -0.2364
28964W        W45098   5.209  12.371  14.687  0.0826  0.1446  0.2389
28965W        W45099  13.593  11.581   3.816 -0.2813  0.1345  0.2030
28966W        W45100  18.302  14.382   0.155 -0.0740 -0.0260 -0.3284
28967W        W45101   2.488  17.144   4.295  0.2252  0.0057 -0.4253
28968W        W45102  17.641   7.525  13.581  0.1435 -0.1837  0.1221
28969W        W45103  13.533   8.816   1.692  0.0350 -0.0560  0.2632
28970W        W45104  19.016  10.942  12.578  0.2723 -0.1523  0.0429
28971W        W45105  14.510   5.634   0.009 -0.0403  0.1438 -0.0840
28972W        W45106  14.227  13.991   1.537 -0.3409 -0.0405  0.0605
28973W        W45107   6.685  13.096   2.956  0.1313 -0.0548  0.2843
28974W        W45108  15.861   9.365   4.110 -0.1325 -0.0856 -0.3806
28975W        W45109  14.129  12.595   3.224 -0.1049 -0.0430 -0.3572
28976W        W45110   8.477  16.538   2.944  0.1467 -0.0504  0.1835
28977W        W45111   4.492  16.280  13.458  0.0042 -0.2461 -0.4089
28978W        W45112   6.147   8.578  11.465  0.1182  0.0272 -0.3035
28979W        W45113   7.104   3.871  10.571 -0.1485 -0.2716  0.4052
28980W        W45114   1.442  15.588  13.330 -0.0311 -0.2558 -0.2639
28981W        W45115   1.334   3.800   3.019  0.1225  0.0889  0.0326
28982W        W45116  14.944   1.154  12.052 -0.0651  0.3939  0.2525
28983W        W45117   0.082  11.279   1.356 -0.2809  0.1757  0.0886
28984W        W45118  15.851   2.500   3.553 -0.3139  0.2059  0.3233
28985W        W45119   9.196   9.401   0.210 -0.0518 -0.1631  0.0040
28986W        W45120  14.215  11.946   1.797 -0.2033  0.2890 -0.1213
28987W        W45121  17.044   6.810   4.071 -0.2666  0.3773  0.0382
28988W        W45122  14.766  15.521  14.182 -0.3156  0.3606 -0.1056
28989W        W45123   1.150  16.739  14.984 -0.0694 -0.0651 -0.1481
28990W        W45124  12.842   9.673   0.083  0.0427  0.1880 -0.0413
28991W        W45125  18.897  14.701  10.368 -0.2010 -0.0295 -0.1326
28992W        W45126  11.772  13.737  14.637  0.0875 -0.0311 -0.1478
28993W        W45127  10.034   7.418  11.313 -0.0339 -0.0045  0.0708
28994W        W45128  10.213   7.542   0.039  0.0586 -0.0930 -0.0453
28995W        W45129  16.506  12.908  11.048 -0.0306  0.3811  0.1525
28996W        W45130   7.923  13.550  14.723  0.2458  0.3531 -0.1571
28997W        W45131  12.475   6.791   4.906  0.0780  0.0670 -0.2008
28998W        W45132   0.730   5.700   1.381 -0.0153 -0.2934 -0.3241
28999W        W45133   1.937   7.335  13.113 -0.0823 -0.0660  0.0779
29000W        W45134   0.600  17.893   3.313  0.0911 -0.2382  0.2284
29001W        W45135   3.224   2.634   1.519 -0.1761  0.3405  0.1800
29002W        W45136   0.180  16.952   4.695 -0.1662  0.1492 -0.2408
29003W        W45137  17.154   2.699   4.566  0.1844 -0.0039 -0.1963
29004W        W45138   7.014  11.691  11.724 -0.0097 -0.0506  0.0367
29005W        W45139  11.504  15.848   3.622  0.0723 -0.1808 -0.0287
29006W        W45140  15.734   1.979   0.480 -0.3062 -0.1112 -0.0221
29007W        W45141  14.835   5.442   0.886  0.2350  0.1166  0.0910
29008W        W45142   7.046  14.989   5.044 -0.1228  0.0978 -0.1498
29009W        W45143   8.214   7.151   0.191 -0.3117  0.1464  0.0346
29010W        W45144   4.300   0.542  11.663  0.2295 -0.2991  0.2422
29011W        W45145   9.281   3.740  13.792 -0.4291  0.1789  0.1790
29012W        W45146  15.591  18.300  13.536 -0.2382 -0.0764 -0.1273
29013W        W45147   0.793  11.888   1.839  0.1989 -0.3222 -0.0183
29014W        W45148   0.429  17.255   2.026  0.4217  0.0184 -0.1336
29015W        W45149   7.842   2.800   4.978  0.1094  0.2834  0.2164
29016W        W45150   5.073   6.482   3.039 -0.2160 -0.0436 -0.0119
29017W        W45151  10.786   2.028  12.029 -0.2742 -0.0773 -0.0851
29018W        W45152   5.998  10.044  13.737  0.0782 -0.3081  0.0408
29019W        W45153   8.491   6.758  11.390  0.2324  0.0301  0.2853
29020W        W45154   5.657  16.659   3.135  0.2872  0.3060 -0.2417
29021W        W45155   1.703   3.215  10.278  0.0016  0.1756 -0.1266
29022W        W45156  13.010  10.488   2.418  0.2096  0.2534 -0.1919
29023W        W45157  14.302   4.304   1.296 -0.0014  0.0770 -0.3448
29024W        W45158   4.659  16.134   4.868 -0.2186  0.3524 -0.4252
29025W        W45159  12.720  10.726  13.968  0.3485 -0.1378  0.3884
29026W        W45160   8.484  14.057  13.409  0.1677  0.0057 -0.1255
29027W        W45161   1.894   1.753  13.489  0.2921  0.1044 -0.2237
29028W        W45162   4.108   0.807   1.690  0.1141 -0.0917  0.1179
29029W        W45163   0.236  16.465   4.401 -0.1320  0.0458 -0.0822
29030W        W45164   0.429   2.148   0.277  0.1730  0.1469 -0.1903
29031W        W45165   9.290   8.448  11.544  0.0411 -0.2830 -0.0081
29032W        W45166  18.315   9.463  14.785  0.0885 -0.1268  0.3431
29033W        W45167   8.155  16.010  10.772  0.1069 -0.1373  0.1415
29034W        W45168  14.062  12.636   5.338 -0.1376 -0.0332  0.2357
29035W        W45169   6.382   3.904  14.033 -0.3745 -0.1290 -0.0126
29036W        W45170   1.526  11.236   5.164 -0.0651 -0.0731  0.0878
29037W        W45171   8.924  13.447  13.314  0.2029 -0.1056 -0.0692
29038W        W45172   4.150  14.568   3.537 -0.1447  0.0462 -0.3146
29039W        W45173   2.858   5.475  12.571 -0.0606 -0.0130 -0.1355
29040W        W45174  15.427   9.662   3.278  0.2552  0.0021 -0.1644
29041W        W45175  19.056  13.849   3.309 -0.1901 -0.2118  0.2778
29042W        W45176  13.229  13.041  14.748 -0.2488  0.1786 -0.0356
29043W        W45177   3.240  18.049  11.486  0.2610  0.1432 -0.2736
29044W        W45178   2.698  16.652   2.043 -0.1866  0.2351  0.2239
29045W        W45179   1.109   2.938   0.758  0.1630 -0.1185 -0.0432
29046W        W45180   6.796  19.192  12.285 -0.1862 -0.0029  0.2200
29047W        W45181  16.874  13.640  12.794 -0.0368 -0.0084  0.0102
29048W        W45182   8.974   8.133  11.405 -0.1586  0.4950 -0.6018
29049W        W45183  19.090  15.457  13.454 -0.2671 -0.0533 -0.1576
29050W        W45184  18.784  13.546  13.497  0.1077  0.1533 -0.0599
29051W        W45185  13.347  10.649  11.739 -0.0865  0.3724 -0.4035
29052W        W45186  13.840  16.644   0.686 -0.2637 -0.0955 -0.1132
29053W        W45187   2.480   5.941  12.532  0.1226  0.0070 -0.2346
29054W        W45188  15.250   8.327  12.680 -0.2647  0.0880 -0.0322
29055W        W45189  17.949   1.458  12.281 -0.1592  0.1411 -0.1416
29056W        W45190  15.558   3.089   4.389  0.2377 -0.1475 -0.1106
29057W        W45191  10.601  19.240   0.418  0.4656  0.2347  0.2962
29058W        W45192  15.372  11.229   3.962 -0.0375 -0.2345 -0.3301
29059W        W45193   9.393  14.052   4.593 -0.1238 -0.2013  0.2602
29060W        W45194   0.326   0.336  11.920 -0.2195 -0.1110  0.1192
29061W        W45195   8.725   2.743   2.813  0.2986  0.0055 -0.1854
29062W        W45196   1.673   3.804   3.452  0.3251 -0.2717 -0.2596
29063W        W45197  15.525  18.594  11.955  0.3906  0.0515 -0.1436
29064W        W45198   1.987   5.685  11.643  0.0974 -0.3210  0.0875
29065W        W45199   2.614  12.303  12.765 -0.0693  0.0514 -0.0476
29066W        W45200  11.086  13.229   4.420  0.0414 -0.0473  0.2246
29067W        W45201   1.577  11.035  13.638  0.0934  0.2020 -0.0636
29068W        W45202   9.473   1.288  13.411 -0.2269 -0.0065  0.1937
29069W        W45203  14.850  17.124   2.143 -0.3237 -0.0103  0.0419
29070W        W45204  11.463   7.806   0.991 -0.0024  0.0346 -0.1895
29071W        W45205   7.237   7.998   4.377 -0.1103 -0.1865 -0.0566
29072W        W45206  17.035  14.758  13.496 -0.1476  0.0877  0.0526
29073W        W45207   9.597   6.400   2.345  0.1996 -0.0890 -0.0154
29074W        W45208   5.061   5.090  10.638  0.1739  0.2099 -0.0965
29075W        W45209   1.126   5.604  12.216 -0.0019 -0.1510  0.0069
29076W        W45210  17.707   0.773   2.689 -0.3224  0.2660  0.0973
29077W        W45211  11.489   6.011   0.928  0.0498  0.0333  0.1344
29078W        W45212  15.615  12.268  13.954 -0.1487  0.1172  0.4870
29079W        W45213  13.082   0.779  13.684 -0.1176  0.2641  0.2028
29080W        W45214  10.563   1.467   4.240  0.0111 -0.0589  0.0927
29081W        W45215  17.822   8.746  12.177  0.1341 -0.0615 -0.0651
29082W        W45216   5.551   7.204  13.734  0.0558  0.1632 -0.0587
29083W        W45217   9.177   4.310   1.266  0.0076  0.1730 -0.0586
29084W        W45218   8.547  10.813  13.045 -0.2553  0.2088  0.0733
29085W        W45219  14.694  10.254   4.875  0.1595  0.1070 -0.0162
29086W        W45220   3.333   0.498   3.473 -0.3991  0.1262  0.0272
29087W        W45221  18.412  12.779   4.406 -0.3216 -0.1776  0.2647
29088W        W45222   8.712  11.793  13.085 -0.2656  0.0989  0.2591
29089W        W45223   3.150  17.991   2.103 -0.2181 -0.0331 -0.2785
29090W        W45224   8.849  13.106  14.718  0.0957  0.1273 -0.0516
29091W        W45225   4.749  12.725  10.527  0.2806  0.1361 -0.0162
29092W        W45226  15.509  14.501  10.969 -0.1375  0.1933 -0.2157
29093W        W45227   3.918  19.114  13.141 -0.3389 -0.1397 -0.1566
29094W        W45228  10.223  13.944   3.462 -0.3772  0.0352 -0.1998
29095W        W45229   2.880  15.765  13.531  0.2653  0.1365  0.1067
29096W        W45230  12.245  12.560   2.316 -0.3274  0.4171 -0.2030
29097W        W45231   7.878   8.193  11.701 -0.2424 -0.3159  0.1512
29098W        W45232   5.612   1.940   0.711 -0.1118  0.2626  0.5194
29099W        W45233   8.169  17.066   3.597  0.2753  0.2703 -0.1825
29100W        W45234  14.731  19.198   4.039  0.4418 -0.2329  0.1892
29101W        W45235   2.314   7.678   1.336  0.1353 -0.0692 -0.0527
29102W        W45236  13.520   7.615  12.877 -0.0504 -0.2014 -0.2255
29103W        W45237  12.224  16.088   0.215  0.2963 -0.1224  0.3308
29104W        W45238   6.466  15.428  12.219  0.0636 -0.3116 -0.0681
29105W        W45239   1.054  12.861  10.513 -0.2067 -0.0386 -0.3021
29106W        W45240  17.002  11.196   1.590  0.2630  0.1118 -0.3459
29107W        W45241  16.372  15.903   0.593  0.0027 -0.2559 -0.1220
29108W        W45242   5.629  15.367  14.956  0.3534  0.0879 -0.0758
29109W        W45243  17.693  17.083  13.723 -0.1149 -0.0163  0.1028
29110W        W45244   5.921   8.676   3.436 -0.0218 -0.2146 -0.0228
29111W        W45245   6.429  13.670   4.960 -0.2003 -0.0852  0.1503
29112W        W45246  19.185  13.871   4.327 -0.6090 -0.3129 -0.0147
29113W        W45247   9.970   9.745  14.134 -0.0600  0.0082  0.0487
29114W        W45248   7.751  12.763   2.301 -0.0857 -0.0116 -0.3156
29115W        W45249  16.657  18.221  10.894 -0.2391 -0.0904  0.0675
29116W        W45250   0.024   0.230   3.129  0.0245 -0.1457 -0.1372
29117W        W45251   2.636  18.530   2.593 -0.1399 -0.0015  0.0611
29118W        W45252  16.265  15.007   1.988 -0.1050 -0.1664  0.2571
29119W        W45253  15.235  10.214   2.441  0.0782  0.0770  0.1159
29120W        W45254   5.287  15.026  13.991 -0.1317 -0.0345  0.0609
29121W        W45255  17.195   8.458   4.864  0.1597 -0.2190  0.1939
29122W        W45256   5.385  15.640   3.720 -0.1547  0.1044  0.1835
29123W        W45257  16.619   4.045   0.423 -0.0071  0.0286  0.0153
29124W        W45258   0.014   2.025  13.250 -0.1133 -0.1392  0.0778
29125W        W45259   0.304  18.228   1.835 -0.0275 -0.0418  0.0021
29126W        W45260   7.191   4.386  10.405 -0.1101 -0.0840  0.2195
29127W        W45261   9.213   5.856  11.943 -0.4248  0.3114 -0.0546
29128W        W45262  11.385  14.489  12.286  0.1946 -0.1801  0.0863
29129W        W45263   1.949  18.110  12.964  0.3158 -0.1067 -0.0797
29130W        W45264  11.670  17.298  13.096  0.2046  0.1108 -0.2700
29131W        W45265   6.303   9.909  12.278 -0.1844 -0.1477  0.0434
29132W        W45266  18.914   4.200  14.548 -0.0128 -0.1672  0.0491
29133W        W45267  12.778   2.980  14.125 -0.1020  0.1835 -0.3206
29134W        W45268  11.510  17.949  14.726 -0.1132 -0.0597  0.0350
29135W        W45269   2.473   2.137   4.305  0.0682  0.1982 -0.2548
29136W        W45270  14.953   7.373   2.291  0.2449  0.1000 -0.0504
29137W        W45271  14.639   4.575  11.681 -0.1182 -0.2621 -0.3603
29138W        W45272   5.208  14.200  14.216  0.0979 -0.1652 -0.2561
29139W        W45273  14.582  13.077   4.627  0.2344 -0.1814 -0.2394
29140W        W45274   6.330  14.519  11.323 -0.1482  0.1795  0.1436
29141W        W45275   5.730   6.671  11.123 -0.0313  0.0063 -0.1177
29142W        W45276   7.394   8.179  11.298  0.2691 -0.1532  0.1888
29143W        W45277   4.098  18.450  11.614 -0.0177 -0.0779 -0.1516
29144W        W45278   2.869   5.534   1.944 -0.0247 -0.2897 -0.2751
29145W        W45279   0.836   4.729  10.899  0.1539  0.4167 -0.0827
29146W        W45280   7.340   6.972  13.494 -0.1361  0.0514  0.0571
29147W        W45281  14.600  10.642  12.910  0.0417  0.0973  0.0586
29148W        W45282  18.132   6.428   3.405  0.1485  0.1874  0.0507
29149W        W45283   1.146  16.302   3.312  0.2043 -0.1507  0.1275
29150W        W45284   9.957   2.284  12.524 -0.0350 -0.0115  0.2200
29151W        W45285   5.256  13.032  12.282 -0.0623  0.0407  0.1114
29152W        W45286   7.073  12.888  12.414  0.1738  0.3033  0.1579
29153W        W45287  15.780  18.677  12.714  0.0249 -0.2449  0.0402
29154W        W45288  17.092   7.857  14.923 -0.0668  0.2455  0.2385
29155W        W45289  12.322  10.549   3.735 -0.0487  0.1372 -0.1953
29156W        W45290   3.532  14.588   4.383  0.0175 -0.0666 -0.1994
29157W        W45291   0.647   9.333   0.908  0.0893  0.2457  0.2147
29158W        W45292  17.215  11.708   1.146  0.1746 -0.1303 -0.1697
29159W        W45293  10.169  13.912  13.402 -0.0701 -0.3135 -0.1856
29160W        W45294   9.023  14.967   2.961  0.0264 -0.0537 -0.0505
29161W        W45295   4.762  16.875  11.203 -0.1663  0.2352  0.1131
29162W        W45296  18.439  10.513  13.280  0.0929  0.1601 -0.0159
29163W        W45297  12.091   6.016  14.304 -0.0521 -0.0107  0.1046
29164W        W45298  14.339   7.782   0.124 -0.0188  0.1448 -0.0947
29165W        W45299   3.299  13.983   1.339 -0.2090 -0.1072 -0.1581
29166W        W45300  11.000   0.456   5.881  0.3174 -0.1843 -0.3300
29167W        W45301   2.919   2.458  10.426 -0.2278 -0.0765 -0.0632
29168W        W45302   6.975   4.692   2.009  0.2804 -0.3330  0.1974
29169W        W45303  14.483   1.529  11.864 -0.2181  0.1118  0.0516
29170W        W45304   4.302   6.207   3.012  0.0727 -0.2099 -0.1604
29171W        W45305  10.917   2.478  13.412 -0.0601 -0.1832  0.0611
29172W        W45306   3.828  14.669   0.231  0.0113 -0.0870 -0.0075
29173W        W45307   6.561  11.896   4.863 -0.3836 -0.2030 -0.6255
29174W        W45308  13.481  12.072  11.330 -0.1296  0.0888 -0.0818
29175W        W45309   6.217   1.061   3.200 -0.4780  0.1006  0.0539
29176W        W45310  11.576  15.447  12.502 -0.1299 -0.3469 -0.0606
29177W        W45311  17.810  16.202   0.586  0.1670  0.0160  0.1701
29178W        W45312   3.252  10.311  12.737  0.4118 -0.4147 -0.1344
29179W        W45313  18.186   4.116   2.583 -0.0554  0.2931  0.0526
29180W        W45314  18.833  16.597   4.212  0.1514  0.0634 -0.1501
29181W        W45315  15.996  12.371   0.683  0.0685  0.1083  0.0359
29182W        W45316   8.703   1.831   2.727 -0.0991  0.1512 -0.0293
29183W        W45317  13.177  10.764   3.201  0.1840 -0.0214 -0.1880
29184W        W45318  10.343   6.593   3.690 -0.2724  0.1136  0.3893
29185W        W45319   3.291   1.033   0.669  0.2331 -0.0159  0.1401
29186W        W45320   3.453  17.235   3.421 -0.0240 -0.0006  0.0641
29187W        W45321   2.236  11.565  14.224 -0.0420 -0.0529  0.0111
29188W        W45322  15.570   4.856   1.730 -0.1718  0.0835  0.1373
29189W        W45323  13.737   4.943   2.375 -0.2900 -0.1319 -0.1288
29190W        W45324   8.420   1.524  14.143  0.0995 -0.3913 -0.3167
29191W        W45325  13.241   5.450  13.780  0.0407 -0.0790  0.0406
29192W        W45326  13.816   1.159  14.597  0.0522  0.0697  0.3328
29193W        W45327  19.073  18.558   4.204 -0.0280 -0.0339  0.0366
29194W        W45328  10.856   7.226   2.666  0.0636  0.0321  0.0271
29195W        W45329   6.474  13.907   3.256 -0.1612 -0.3122  0.4566
29196W        W45330  12.316   0.798  14.202  0.2108  0.0704  0.0684
29197W        W45331  14.266  15.781  13.481 -0.0765 -0.1943 -0.0333
29198W        W45332  11.860  16.063  13.885 -0.1381  0.0454  0.1028
29199W        W45333   8.649   3.422   2.140 -0.0994  0.3191  0.0998
29200W        W45334  10.603   2.340   0.751 -0.2110  0.0917 -0.0216
29201W        W45335   9.237   8.304   0.310  0.1054  0.0540 -0.2117
29202W        W45336  13.398   6.795   2.209  0.0613 -0.3255  0.0143
29203W        W45337  14.557   9.728   2.649 -0.1608  0.0585  0.0243
29204W        W45338   9.183   1.583  12.613 -0.0373 -0.1589 -0.0953
29205W        W45339   0.862  18.546   4.380  0.1961 -0.0267  0.0469
29206W        W45340   2.826   3.087  12.046 -0.1281 -0.3918 -0.1557
29207W        W45341   1.422   0.346  14.063 -0.0056 -0.1057 -0.0486
29208W        W45342  19.064   5.507   1.921 -0.0174  0.3347  0.2693
29209W        W45343   2.929   4.454   1.221 -0.0729 -0.1629 -0.5144
29210W        W45344   9.950  12.849  12.125  0.0865 -0.2122 -0.3654
29211W        W45345   7.336  11.729   3.625 -0.0723 -0.2883 -0.1436
29212W        W45346  17.621   1.997  11.576  0.0249  0.0858 -0.2472
29213W        W45347   8.581   8.787  12.868  0.1897 -0.1202 -0.0649
29214W        W45348   2.570  10.695  12.256 -0.2113 -0.4474 -0.1091
29215W        W45349  14.644   9.789  11.568 -0.2561  0.0169 -0.2798
29216W        W45350  14.264  12.702  13.502  0.0281  0.1095 -0.1749
29217W        W45351   7.933  12.617  12.280 -0.0506  0.0356 -0.0489
29218W        W45352  11.842   1.347   2.690 -0.3217 -0.3381  0.0768
29219W        W45353   2.198   8.140   1.586 -0.1553  0.4082 -0.0444
29220W        W45354   0.310   2.994  14.477  0.2625  0.1578  0.1046
29221W        W45355   4.498  14.061   5.524  0.2470  0.3093 -0.2137
29222W        W45356   8.051   7.881   2.074  0.0612  0.2338  0.0977
29223W        W45357   8.147   8.970  13.611 -0.0567 -0.1754  0.2688
29224W        W45358   4.520  11.457   1.812 -0.0492 -0.2688  0.1367
29225W        W45359   1.134  12.097   2.713  0.0799  0.0508  0.1413
29226W        W45360   7.349   7.781   3.028 -0.1676  0.0270 -0.3546
29227W        W45361  13.734   2.952   0.873 -0.1204 -0.1811 -0.1414
29228W        W45362  16.743  14.228   4.250 -0.1140 -0.0542  0.4218
29229W        W45363   8.014  11.248   2.982 -0.1149 -0.0922 -0.2740
29230W        W45364  16.397   4.136   2.847 -0.2248 -0.2699  0.0739
29231W        W45365   6.019  18.249   0.291 -0.1977 -0.0677 -0.1321
29232W        W45366  18.660   3.813  14.727 -0.1479  0.1592 -0.1045
29233W        W45367  17.402   9.446   3.322 -0.5250 -0.0993  0.1437
29234W        W45368  18.661   0.902   2.260 -0.2743  0.0300 -0.0447
29235W        W45369  13.210   8.104   1.110 -0.1257  0.0254 -0.1025
29236W        W45370  12.680   9.075   1.521 -0.0598  0.1555  0.0034
29237W        W45371  10.952   5.012   1.121 -0.0661 -0.0842 -0.1341
29238W        W45372  13.930   0.382  13.324 -0.0445  0.1569 -0.3300
29239W        W45373  15.027   3.542  11.410  0.1713  0.3351  0.0347
29240W        W45374   6.382  19.039  12.769  0.1690 -0.2645 -0.2273
29241W        W45375  12.635  10.159   2.637 -0.0495  0.2385  0.3079
29242W        W45376   1.380  16.536   4.080  0.3537  0.1054  0.3638
29243W        W45377   1.945  13.126  10.682  0.2792 -0.0857 -0.0540
29244W        W45378  10.920  10.983  10.109  0.0304 -0.0407 -0.0164
29245W        W45379  17.345   7.480   2.713 -0.0847 -0.1023  0.1056
29246W        W45380   6.350   7.942  10.398  0.4298 -0.1366  0.3045
29247W        W45381   0.606   4.124   1.308 -0.1736 -0.0391  0.1707
29248W        W45382   7.263  15.540   1.795  0.0755 -0.2142  0.1183
29249W        W45383  10.735  18.998  11.806 -0.0012 -0.2061  0.2904
29250W        W45384  18.987  17.193   2.586  0.0709 -0.1494  0.0703
29251W        W45385   1.315   9.359  12.421  0.1650 -0.0528  0.0784
29252W        W45386  18.119   1.203   3.549  0.1476 -0.3018  0.1386
29253W        W45387  19.209  10.244   4.287 -0.2165 -0.2752 -0.5316
29254W        W45388  12.245   7.458   1.002  0.0678 -0.1965 -0.0200
29255W        W45389   0.226  14.202   1.573  0.2513  0.2262  0.1500
29256W        W45390   9.450  11.150  12.481  0.0770  0.2299 -0.2121
29257W        W45391   8.995  16.290   3.238 -0.2261 -0.1686  0.1086
29258W        W45392  15.002  18.209  10.573 -0.1363  0.3013 -0.2708
29259W        W45393   4.236  18.212   4.161  0.4161 -0.0458 -0.0610
29260W        W45394   2.275   5.209  14.322 -0.2506  0.1152  0.2169
29261W        W45395  16.029   1.330   4.726  0.2276 -0.0001 -0.0626
29262W        W45396  12.224   3.848   4.614 -0.0762  0.1232  0.0724
29263W        W45397   2.697  10.764  11.217 -0.0732 -0.1186  0.0380
29264W        W45398   0.240   3.804   9.976  0.1702 -0.1700 -0.1246
29265W        W45399  13.143   7.361   4.432  0.1203  0.1598  0.2265
29266W        W45400  13.192   9.581   2.320 -0.0721 -0.3104  0.3152
29267W        W45401  10.132   3.123   4.850 -0.1851  0.5632 -0.2057
29268W        W45402   3.492   4.388  11.483 -0.0046 -0.2412  0.0784
29269W        W45403   0.784   5.089   3.201 -0.0712  0.0173 -0.2890
29270W        W45404  15.685   6.788   1.895  0.2090  0.0183  0.1163
29271W        W45405  11.726   7.050  12.331  0.1872  0.2566 -0.1044
29272W        W45406  12.081   3.607   2.880  0.1711  0.0005  0.1146
29273W        W45407  10.629   3.492  14.116  0.2091 -0.2713  0.0724
29274W        W45408   3.192  11.649  10.682 -0.1879 -0.0956  0.2763
29275W        W45409   8.328   7.245  11.384 -0.1113  0.0061 -0.2651
29276W        W45410   3.529  15.749  14.381 -0.1803 -0.2453  0.0650
29277W        W45411  12.388   7.539  14.065 -0.1996 -0.1074  0.1599
29278W        W45412   3.127   1.660  14.920  0.0931  0.2309 -0.1680
29279W        W45413  12.603  17.431   2.969  0.1648 -0.0249  0.0980
29280W        W45414  10.589  18.831   5.030  0.0063  0.1030  0.0447
29281W        W45415   0.307   6.860   1.588  0.3956  0.1425 -0.3969
29282W        W45416  13.349   1.333  14.476 -0.3553 -0.0229 -0.1189
29283W        W45417  11.523  15.571  12.963  0.3158  0.2175  0.2586
29284W        W45418   0.267   3.784   1.609  0.1229  0.1080 -0.1476
29285W        W45419   0.136   3.749  12.851  0.0891  0.2024  0.3804
29286W        W45420   2.178   6.464  13.630  0.4178  0.0832  0.2232
29287W        W45421  10.832  10.910   2.545 -0.3329  0.0018  0.0130
29288W        W45422   1.342  16.588  10.757 -0.0876 -0.0500 -0.0964
29289W        W45423   0.674   6.090   1.679 -0.0406 -0.1183  0.1250
29290W        W45424  12.530   4.915  14.080 -0.0580 -0.1523 -0.2218
29291W        W45425  19.255   4.996  12.504  0.0871 -0.0851 -0.1909
29292W        W45426  11.782  17.827  13.904 -0.4884  0.0266  0.1001
29293W        W45427  10.747  10.479   1.047 -0.0102 -0.0360  0.1408
29294W        W45428  14.297   8.987   0.968  0.0461  0.0205  0.1600
29295W        W45429   6.954  10.472  14.703 -0.3659 -0.1139 -0.1584
29296W        W45430   0.610  18.917  10.901 -0.1705  0.3813 -0.1187
29297W        W45431   8.894  11.958   1.754  0.4183  0.1378 -0.1177
29298W        W45432  13.368   1.691  13.515 -0.1578 -0.0443  0.0980
29299W        W45433   4.824   6.192  13.997  0.2477  0.0652  0.1280
29300W        W45434   6.975   4.960   3.157 -0.2680  0.0862 -0.1234
29301W        W45435  16.455   3.543  11.690 -0.0364 -0.0678 -0.2234
29302W        W45436   6.272  10.621   4.494  0.1304  0.0152  0.0170
29303W        W45437   8.388   3.810  14.193  0.3848 -0.2001  0.0718
29304W        W45438   6.236   2.572  11.485 -0.1282  0.2853 -0.1021
29305W        W45439  18.261   3.352   3.831  0.0068 -0.0256 -0.0909
29306W        W45440   6.147   7.532  10.630  0.1290  0.3042  0.0782
29307W        W45441  15.177  17.700   4.786 -0.1447 -0.0124  0.0176
29308W        W45442   6.634   8.634  11.473  0.0837 -0.2849 -0.0636
29309W        W45443  11.794   0.305   3.175 -0.1656  0.2042 -0.0086
29310W        W45444   2.202  15.846   1.874 -0.0255  0.2549  0.0557
29311W        W45445   9.650  17.710  12.073  0.1798  0.1640 -0.1395
29312W        W45446   8.251  18.845   6.003  0.3259  0.1302  0.1647
29313W        W45447  11.022  12.659  13.580 -0.1663  0.3365 -0.1133
29314W        W45448   5.154  13.053   9.772 -0.0589  0.2073 -0.1237
29315W        W45449  11.923  13.938   3.366 -0.3366 -0.2437 -0.4910
29316W        W45450  17.025   4.845   9.404 -0.0187  0.0531  0.0607
29317W        W45451   9.795  18.870   3.146  0.1217  0.3634 -0.2308
29318W        W45452  13.257  18.627   3.460  0.0527 -0.2391 -0.1984
29319W        W45453   6.853  12.015   5.650  0.3283  0.2332 -0.0767
29320W        W45454   9.560  16.100  14.853  0.1949  0.1954  0.0633
29321W        W45455   2.385  14.289  10.000  0.2535  0.0202 -0.6976
29322W        W45456  14.787  18.734  13.725 -0.1595  0.0316  0.0433
29323W        W45457  18.708  11.851  10.601  0.2484 -0.0252  0.1486
29324W        W45458  16.277  16.699   5.014  0.3076 -0.3326 -0.2675
29325W        W45459   3.334   2.045  13.219 -0.2194 -0.2134 -0.1499
29326W        W45460   2.643  17.508   1.605 -0.0046  0.3141  0.0777
29327W        W45461  11.375  17.409  13.461  0.1700  0.0722 -0.0606
29328W        W45462   0.034   7.929   0.755  0.2822  0.2316  0.2110
29329W        W45463   9.938   8.592  13.072  0.0812 -0.0200  0.0492
29330W        W45464  14.509   0.103  10.388 -0.0620  0.2702  0.0300
29331W        W45465  16.246  14.586   4.834  0.2075 -0.1069  0.2377
29332W        W45466  19.089  15.060  11.574  0.1171 -0.0079 -0.2836
29333W        W45467   7.859   9.387  14.478  0.3708  0.3041 -0.2581
29334W        W45468   6.502  18.833  10.424  0.0398  0.2071  0.2280
29335W        W45469   1.307   9.769   4.094 -0.1775  0.2163 -0.0871
29336W        W45470   7.513   9.805   0.756  0.1664 -0.0102 -0.1514
29337W        W45471   2.188   5.271   1.187  0.1387  0.1248  0.0830
29338W        W45472   6.316  16.793  13.531  0.0756 -0.0318  0.4627
29339W        W45473  15.426   2.614  14.120  0.1862  0.0805 -0.1492
29340W        W45474  17.435   6.723   1.330  0.0638 -0.1359 -0.0815
29341W        W45475   3.073  14.731  13.631  0.0289 -0.0563 -0.2438
29342W        W45476   4.555  12.160  11.256 -0.0661  0.0511  0.1781
29343W        W45477   7.253   7.614  14.189 -0.0430  0.0929  0.2020
29344W        W45478  13.734   5.710  10.446  0.3297  0.5760  0.2240
29345W        W45479  16.687   2.241   2.058 -0.1613 -0.0432  0.0714
29346W        W45480  16.913  10.160  10.486 -0.2847  0.2152  0.1233
29347W        W45481  15.512   2.040   0.066  0.3112  0.1294 -0.0578
29348W        W45482  17.424   0.043  13.780  0.3562  0.0094  0.1203
29349W        W45483   0.759   1.087  11.621 -0.3347 -0.0483 -0.0356
29350W        W45484  17.463  10.941   4.020 -0.2390 -0.1317 -0.1176
29351W        W45485   4.635  12.752   5.484 -0.1084  0.3016  0.0243
29352W        W45486  18.249  16.669  11.877  0.0687  0.1961  0.1493
29353W        W45487   0.252   6.923   5.630  0.3847 -0.1017 -0.0869
29354W        W45488  10.850  11.641  13.358 -0.2811  0.0153 -0.0140
29355W        W45489   2.000  12.318   0.048 -0.0378  0.1065  0.0103
29356W        W45490  15.709   6.759   2.515  0.1778  0.4822 -0.3927
29357W        W45491  17.738  13.213  12.762  0.1485  0.1088 -0.1810
29358W        W45492  15.588  18.858   2.139 -0.1425  0.3529  0.0568
29359W        W45493  11.348   5.482   5.372 -0.1402  0.2187 -0.0580
29360W        W45494   7.686   0.608   0.051 -0.2305  0.4079 -0.2440
29361W        W45495  10.955   6.839   4.824 -0.0854 -0.3036  0.1705
29362W        W45496   5.798   0.609   4.782  0.1045 -0.0707 -0.0028
29363W        W45497   4.819   9.164   3.310  0.2519 -0.0336  0.2681
29364W        W45498  14.135  12.187   1.343  0.2174 -0.0878  0.1583
29365W        W45499   5.093   1.600  13.182  0.3547  0.1341 -0.3521
29366W        W45500  15.827  16.230  13.737 -0.0759 -0.3163  0.1836
29367W        W45501  17.054   0.220   3.148 -0.0052  0.0683 -0.0420
29368W        W45502   1.949   2.242  13.842 -0.1906 -0.0171  0.0237
29369W        W45503   2.574  17.655   3.058 -0.1153 -0.1574 -0.0284
29370W        W45504  17.217   4.526  11.198  0.1666  0.0748  0.2566
29371W        W45505  13.485   8.125  14.217  0.2011 -0.0789 -0.0220
29372W        W45506   1.041   2.254  13.377  0.1046 -0.0739 -0.0639
29373W        W45507  14.933   4.785   1.732  0.1109 -0.0432  0.3951
29374W        W45508  11.065  10.180   9.784  0.1588  0.0425  0.5764
29375W        W45509  18.547   1.824  12.082  0.0754 -0.0227  0.0841
29376W        W45510   9.149  10.406  13.252  0.2869  0.2778  0.1212
29377W        W45511   2.957   0.297   2.141 -0.0602 -0.3003  0.1308
29378W        W45512   3.693  10.040   2.308 -0.0864 -0.0645 -0.3726
29379W        W45513   0.894  17.563   0.504  0.0947 -0.0900  0.1142
29380W        W45514   6.705  14.576   4.882  0.3197  0.0686  0.2274
29381W        W45515   8.001   5.458   1.805 -0.2767  0.4873  0.1638
29382W        W45516   1.482  15.205   3.120 -0.0457  0.1936 -0.1801
29383W        W45517   4.547   4.405   1.777 -0.0884 -0.0027  0.0379
29384W        W45518  17.125   4.082  13.705  0.1159 -0.1053  0.3675
29385W        W45519   1.859  10.509  13.973 -0.0936 -0.2718 -0.3172
29386W        W45520   4.078   8.370  11.498  0.1198  0.0335  0.2036
29387W        W45521   3.680   4.187   4.911 -0.1992  0.1300 -0.0018
29388W        W45522   7.841  12.417   0.722  0.0133 -0.1037  0.0183
29389W        W45523   2.909  16.946   0.629  0.0331 -0.3845  0.1097
29390W        W45524   5.767  14.854  12.601 -0.1914  0.2036 -0.0896
29391W        W45525  15.509  16.795  14.594  0.0850 -0.0733 -0.0698
29392W        W45526   5.657   8.505  11.593  0.1763 -0.0761 -0.3029
29393W        W45527  18.348   3.934   4.615  0.1378  0.0755  0.0444
29394W        W45528  10.433  13.583  12.471 -0.1597 -0.1365 -0.0914
29395W        W45529  15.242  13.050  11.921  0.1446  0.3239 -0.2606
29396W        W45530  13.831   0.856  11.979 -0.0902  0.1885 -0.0702
29397W        W45531   2.919   8.720  11.146 -0.1133  0.0692  0.0929
29398W        W45532  18.224   9.580  12.542 -0.0548 -0.1499 -0.1907
29399W        W45533  11.081   7.693   2.701  0.4099 -0.0876  0.2278
29400W        W45534  18.054  18.832  10.437  0.1883  0.1425 -0.0988
29401W        W45535   0.834   4.080   0.389  0.2745 -0.0735  0.0937
29402W        W45536   0.045  13.966  12.891 -0.0563  0.1396  0.0515
29403W        W45537   7.191  19.241  11.967  0.1180 -0.2330 -0.2310
29404W        W45538   8.100  13.266  11.335  0.1847  0.2258 -0.0417
29405W        W45539   7.137  12.776   9.916  0.1560 -0.0511  0.1941
29406W        W45540   0.799  14.922   0.979 -0.1036  0.0863  0.2202
29407W        W45541  14.982   4.258   2.327 -0.2217  0.0157 -0.0394
29408W        W45542   4.435   5.431   3.823  0.0131  0.5324 -0.0288
29409W        W45543   7.549   4.293   3.253 -0.0785  0.2627  0.1361
29410W        W45544  17.879  19.047   1.239 -0.1859  0.1167 -0.0820
29411W        W45545   4.785  12.446  13.923  0.1325 -0.3577 -0.1093
29412W        W45546  18.880   9.591   1.726 -0.1202 -0.0355 -0.1473
29413W        W45547  18.276  13.729   1.215 -0.0571  0.2877 -0.0654
29414W        W45548  16.204   4.559   2.280  0.0896  0.1853  0.0483
29415W        W45549  19.025  10.663  12.156 -0.0791 -0.4610  0.1796
29416W        W45550  13.606   4.703  11.206  0.0257 -0.2406  0.0093
29417W        W45551   1.850  10.574  12.431  0.1175  0.2237  0.0673
29418W        W45552  12.118   5.432   3.273 -0.0667  0.1638  0.1826
29419W        W45553   2.639   6.133   9.583  0.1534  0.0373  0.1702
29420W        W45554  18.273   5.359  11.367 -0.1643 -0.1482  0.1881
29421W        W45555   5.700   6.890   0.252 -0.1243 -0.1981 -0.1286
29422W        W45556   2.476   9.241  14.880 -0.0322 -0.2202  0.1361
29423W        W45557  12.132  15.736   3.693  0.1827 -0.2964  0.3720
29424W        W45558   1.631   1.685   2.360  0.2272 -0.0449  0.0082
29425W        W45559  15.472  16.652  12.312 -0.3436 -0.2403 -0.4015
29426W        W45560   3.643   3.152   0.133  0.0811  0.1526  0.2553
29427W        W45561   6.493  12.760   1.973 -0.0525  0.0601 -0.0742
29428W        W45562  13.345   8.841  14.855 -0.1442  0.1833  0.0243
29429W        W45563  16.277   8.755  12.815 -0.3897  0.0048 -0.1131
29430W        W45564  13.017  18.564  12.537 -0.1125  0.0675 -0.2193
29431W        W45565  18.446  15.694  14.898  0.2712  0.0884  0.0200
29432W        W45566   1.562   2.129   1.625 -0.0109  0.0319  0.0157
29433W        W45567  12.166  13.316  10.939 -0.2499  0.2734 -0.2842
29434W        W45568   2.538   0.147   0.281 -0.0515 -0.1177 -0.1628
29435W        W45569   9.863  17.924   3.590  0.1331  0.0747  0.1576
29436W        W45570   3.445   9.794   0.315 -0.4069 -0.1029 -0.0640
29437W        W45571   3.868   8.860  10.767  0.0888  0.0545 -0.1338
29438W        W45572   9.457  14.219   0.690  0.1014  0.0414 -0.1510
29439W        W45573  16.867   5.848   2.159 -0.0769  0.2269  0.2227
29440W        W45574  14.041   3.796   4.067 -0.0648 -0.1743 -0.2182
29441W        W45575  18.004  13.968  14.216  0.0668  0.1000 -0.2035
29442W        W45576   4.465   5.164  13.778 -0.3889 -0.0964 -0.1547
29443W        W45577  10.082  11.382  11.169  0.2586 -0.2275 -0.0974
29444W        W45578   0.835   9.660   1.322 -0.0516  0.1620 -0.2065
29445W        W45579  11.626  14.807   1.867  0.1731  0.1799  0.2427
29446W        W45580   0.079  17.465   4.320 -0.1266 -0.1357  0.0272
29447W        W45581   2.983   1.576  10.914 -0.1415  0.0949  0.0272
29448W        W45582  17.173   2.386   5.032 -0.2407 -0.2146  0.0281
29449W        W45583  14.678  12.164  12.814 -0.1829 -0.1287  0.1758
29450W        W45584  15.105   0.743   2.599  0.1659  0.0116  0.1065
29451W        W45585  11.776   8.109   2.224 -0.0270 -0.0878 -0.1100
29452W        W45586   2.162  13.817  11.283  0.0052  0.1658  0.0371
29453W        W45587  12.731  12.358   3.672 -0.3379 -0.1331  0.0043
29454W        W45588  12.046   2.769  11.541 -0.1081 -0.0153 -0.0154
29455W        W45589  17.553   6.132   0.509  0.0827 -0.2839  0.1431
29456W        W45590  11.692   9.825   2.431 -0.2387  0.0212  0.0918
29457W        W45591   8.304   8.298   3.888 -0.0482  0.2036  0.1706
29458W        W45592  18.728  15.947  12.617 -0.2255 -0.2609  0.0649
29459W        W45593   3.193  16.087  13.046 -0.1555  0.1297 -0.0190
29460W        W45594  17.888  18.324  10.467 -0.3744 -0.2328  0.1447
29461W        W45595   5.451   2.838  14.578  0.0305  0.0887  0.3077
29462W        W45596  12.627  17.365   9.973 -0.1820 -0.1019  0.2280
29463W        W45597  17.406   2.815   4.081  0.3567  0.2479  0.0424
29464W        W45598  18.021   9.552   4.637 -0.0443  0.1091 -0.0675
29465W        W45599  11.391   5.141   1.947 -0.1977 -0.0533  0.2058
29466W        W45600  14.145   0.120   2.361 -0.0417  0.0737  0.0370
29467W        W45601  15.424   1.420  13.034 -0.0157 -0.1496 -0.2403
29468W        W45602  17.396   4.716  10.479  0.2140 -0.0016  0.2692
29469W        W45603   4.851   9.007   0.243  0.0062 -0.0008 -0.2303
29470W        W45604  11.308   9.420  11.330  0.3509  0.0549  0.0095
29471W        W45605   6.704  14.033   5.228  0.1824  0.0813 -0.2651
29472W        W45606   4.839  13.441  13.256 -0.0377  0.1605 -0.4406
29473W        W45607   8.524  10.729   4.059 -0.0928  0.0521 -0.2305
29474W        W45608   8.859  15.639   2.034 -0.2726 -0.0946  0.2054
29475W        W45609  12.625  11.416  10.981 -0.1521  0.1153  0.0273
29476W        W45610  11.397   3.770  12.448 -0.3974  0.0633  0.0402
29477W        W45611   6.472   3.080   3.856 -0.0642  0.5590  0.2230
29478W        W45612  16.161   7.744  12.774  0.0558  0.2406  0.2917
29479W        W45613  14.229  17.902  13.836 -0.1272  0.0117  0.1221
29480W        W45614  17.239  11.947  12.598  0.1020 -0.2759  0.1943
29481W        W45615   0.441  17.163   4.142  0.2319 -0.0441  0.1112
29482W        W45616   1.750  16.892  10.719  0.1192 -0.5822  0.0328
29483W        W45617  12.005  18.142   5.960  0.2849 -0.2039  0.2276
29484W        W45618   3.238  13.963  14.225 -0.0787  0.1434 -0.1661
29485W        W45619  14.197   3.251   2.193  0.0154 -0.5026 -0.0395
29486W        W45620  13.956  11.630   4.245  0.0367  0.0738 -0.1756
29487W        W45621  17.507   6.140   3.468  0.0131  0.1368 -0.0681
29488W        W45622   2.055   2.317   5.139  0.0336  0.1570 -0.2249
29489W        W45623   0.251   0.736  11.513 -0.0007 -0.1911 -0.2937
29490W        W45624   0.713  13.834  13.361 -0.1363 -0.1488 -0.1407
29491W        W45625   5.218  17.589  12.735 -0.4231 -0.1496 -0.0233
29492W        W45626  10.968  14.856   2.646  0.4244  0.0995 -0.0345
29493W        W45627   1.919  15.363  11.487  0.1186  0.0828  0.0277
29494W        W45628  15.176   2.671  11.919 -0.2954 -0.1533  0.1761
29495W        W45629   1.722   4.353  14.900 -0.2713  0.1860  0.1676
29496W        W45630  16.613   5.615  13.674 -0.3266 -0.0372 -0.2288
29497W        W45631  15.628   8.378  11.977 -0.2597 -0.0485  0.2617
29498W        W45632  17.141  10.610  10.977  0.0185  0.1353  0.1074
29499W        W45633   9.696  18.362  13.306  0.1436 -0.2521 -0.1651
29500W        W45634  13.122   3.602  12.515 -0.3236 -0.0515  0.1703
29501W        W45635  16.789   0.006  11.892  0.2110  0.1331 -0.0708
29502W        W45636  10.579   8.973  11.117 -0.1816 -0.2293 -0.2125
29503W        W45637   7.274   4.061   0.716  0.3292 -0.0311  0.1090
29504W        W45638   8.679  11.427  10.352 -0.0939 -0.0128 -0.0719
29505W        W45639  15.572  11.308   0.776 -0.5028 -0.3197 -0.1358
29506W        W45640  18.806  10.924  10.624 -0.2037  0.0607  0.1736
29507W        W45641   0.475  12.931  14.178  0.0013  0.0533 -0.0301
29508W        W45642  10.043   2.842  10.902  0.0723 -0.0933 -0.1871
29509W        W45643  12.843   3.348  14.445  0.0925 -0.1098  0.0153
29510W        W45644   7.689   0.861  12.660 -0.1126  0.0806  0.0409
29511W        W45645  15.399  15.855  12.750  0.1051  0.1077 -0.0791
29512W        W45646  11.209   6.277   2.682  0.2199 -0.3284 -0.0180
29513W        W45647  15.317   8.505  10.457 -0.3214 -0.0189  0.0448
29514W        W45648   2.488  19.073  14.728 -0.1187 -0.3338  0.3539
29515W        W45649   8.285  18.709  14.373 -0.0801  0.0716 -0.2176
29516W        W45650  11.041   6.803   3.523  0.0819 -0.0072 -0.2768
29517W        W45651  10.383   1.501  13.048 -0.0156  0.0451  0.3748
29518W        W45652  15.214  18.841   2.559  0.3734  0.2607  0.2315
29519W        W45653  12.885   9.524  14.084 -0.1080  0.1169 -0.0141
29520W        W45654  14.447  16.034  11.549  0.1401 -0.2378 -0.1711
29521W        W45655   9.462  14.078   4.018 -0.0666 -0.4243 -0.0736
29522W        W45656  13.011  13.308  13.463 -0.0491  0.4618 -0.0778
29523W        W45657  10.507  10.681   3.038  0.0617 -0.0837  0.0183
29524W        W45658   0.464   4.308  10.034 -0.1799  0.2224 -0.3810
29525W        W45659   5.859   7.972   1.648  0.1782 -0.1971 -0.1779
29526W        W45660   3.384  16.258   0.885 -0.0543  0.3042  0.0689
29527W        W45661  16.585  13.231   1.847 -0.0603  0.2885  0.1080
29528W        W45662  19.178   2.082   2.713  0.1911  0.2291  0.1297
29529W        W45663   4.817   7.841  10.937 -0.1885 -0.3014 -0.3102
29530W        W45664   1.352   5.828   5.385 -0.0792  0.1947 -0.2018
29531W        W45665  11.088   5.117   4.991 -0.2292 -0.2940  0.0416
29532W        W45666  18.877   5.375   0.530 -0.0752  0.1835 -0.1016
29533W        W45667  13.318  11.795  11.750 -0.5207  0.2754 -0.0405
29534W        W45668   6.837  16.696   4.430 -0.0920  0.2236 -0.1226
29535W        W45669  10.575   9.165  13.791 -0.2810  0.1828  0.0130
29536W        W45670  12.530   3.639   0.487  0.1367 -0.4511  0.4480
29537W        W45671  14.521   9.222  11.708 -0.0406 -0.2995 -0.2631
29538W        W45672   3.592   2.461   0.727 -0.1371 -0.0635 -0.0675
29539W        W45673  16.867  11.585  12.728 -0.0739  0.0113 -0.4146
29540W        W45674   8.481   0.173  14.286  0.0841 -0.2740 -0.2431
29541W        W45675   0.242   0.612   2.479 -0.0516 -0.0788 -0.0104
29542W        W45676   3.133   5.548   2.449 -0.1116 -0.2537 -0.0936
29543W        W45677  14.444  15.485   0.819 -0.0927 -0.1630  0.1536
29544W        W45678  10.125   0.461   3.537 -0.1071 -0.1001 -0.2626
29545W        W45679   8.140  13.340   5.185  0.3075  0.1917 -0.1264
29546W        W45680   4.611   9.703  11.364  0.1852 -0.1626 -0.1224
29547W        W45681   7.949   3.835   3.605 -0.0076  0.3087 -0.0151
29548W        W45682  19.117   7.057  11.052 -0.2108  0.0378  0.4108
29549W        W45683  12.436   3.070  12.936 -0.1205 -0.2300 -0.4435
29550W        W45684  14.779   9.483  11.189  0.1730 -0.1285 -0.3206
29551W        W45685   2.119   5.816  14.291 -0.1874  0.0403  0.0322
29552W        W45686  13.845  12.441   4.433 -0.1155  0.1694 -0.0405
29553W        W45687   7.315  10.285  13.545 -0.1726  0.0605 -0.3253
29554W        W45688   8.105  14.925   2.550 -0.0949 -0.1355 -0.0241
29555W        W45689   1.700  13.890   3.112 -0.1103  0.0010  0.1925
29556W        W45690   5.251   2.276  13.611 -0.0061  0.0717  0.3525
29557W        W45691  14.577  11.025   2.043 -0.0106 -0.0058  0.0330
29558W        W45692  15.561  15.825   4.824 -0.0081 -0.0943 -0.5616
29559W        W45693  16.217  11.056  12.005 -0.0944 -0.0017  0.2552
29560W        W45694  17.851  13.571  13.765  0.0412  0.2099  0.2983
29561W        W45695  11.319   8.966  14.556 -0.1667 -0.3505 -0.3553
29562W        W45696   0.708   0.176  13.610 -0.3623 -0.0647 -0.1078
29563W        W45697   3.611  18.081  14.375 -0.0825  0.0702  0.0052
29564W        W45698   5.448   8.509  10.721  0.0411  0.1974  0.0454
29565W        W45699   1.574   7.714   2.497  0.0694 -0.2291 -0.3748
29566W        W45700   2.313  11.303   2.215  0.0369  0.1178 -0.0713
29567W        W45701   6.119  19.212  11.531 -0.2275  0.3498 -0.1878
29568W        W45702   8.284  19.106   1.770  0.0311 -0.3143 -0.0625
29569W        W45703   3.282   3.326   2.088  0.1891  0.1140  0.2240
29570W        W45704   6.014   3.356  11.958 -0.2663 -0.1685  0.2225
29571W        W45705   6.400  15.335  14.155 -0.3469 -0.2183 -0.1815
29572W        W45706  18.430   9.543   4.392 -0.0840  0.2975 -0.2718
29573W        W45707  17.423  11.272   4.897  0.0935 -0.1994 -0.0742
29574W        W45708   2.649   4.430  14.708  0.1485  0.3061 -0.0597
29575W        W45709   3.511  12.801  13.058 -0.0094 -0.1223 -0.1530
29576W        W45710  16.868   9.087   4.439 -0.0454  0.0889 -0.0688
29577W        W45711  13.993   0.571   1.349 -0.2546 -0.2267  0.0737
29578W        W45712  12.826  14.956   2.834 -0.2331 -0.1888 -0.1774
29579W        W45713   1.699  17.288   0.335  0.2440 -0.0113 -0.2141
29580W        W45714   1.237  14.246   0.292 -0.1206 -0.0408  0.0103
29581W        W45715   8.424  12.738  13.111  0.0315 -0.2105  0.0754
29582W        W45716   2.632   6.282  13.411 -0.1613 -0.0746  0.0704
29583W        W45717  17.548   2.924  11.262  0.1595 -0.1958 -0.0043
29584W        W45718  12.263   5.848   0.325  0.0746  0.0293  0.1007
29585W        W45719  16.495  15.581   1.675  0.0423  0.0826  0.3069
29586W        W45720   4.755  14.219   5.021  0.1586  0.1997  0.1536
29587W        W45721   8.675   2.520  14.983  0.0870  0.0055 -0.2536
29588W        W45722   8.079   8.837   2.804  0.2600  0.3181  0.4444
29589W        W45723   8.473  11.063   0.625  0.0594  0.0586  0.0441
29590W        W45724  18.071  11.745   3.809 -0.5476  0.0329  0.1913
29591W        W45725   1.545   3.192   4.840 -0.0370 -0.0773  0.2529
29592W        W45726   7.447   7.611   1.009 -0.2211  0.1487 -0.0112
29593W        W45727  15.439   5.452  12.420 -0.0110  0.0287 -0.2256
29594W        W45728   3.442   0.626   9.843  0.0713  0.3412 -0.1621
29595W        W45729  16.831   3.554  10.740 -0.2909 -0.0722 -0.1293
29596W        W45730  18.516   7.293   4.169  0.0457  0.0985  0.1476
29597W        W45731  17.190   1.282  13.049  0.0495  0.1403 -0.1176
29598W        W45732   4.619   0.879   4.038 -0.0915 -0.0943  0.1804
29599W        W45733   4.945  14.646   0.603  0.2648 -0.2359  0.1114
29600W        W45734   1.219  17.202   0.366  0.0063  0.1274  0.1540
29601W        W45735   4.075  13.487  11.467  0.2131 -0.1651 -0.1462
29602W        W45736  13.759   0.433   2.253  0.1246 -0.0211 -0.0915
29603W        W45737   1.425   8.965  10.786  0.2718 -0.4293  0.1104
29604W        W45738  13.355   0.597   5.560  0.0602 -0.0339 -0.0269
29605W        W45739   4.118   5.367   0.281  0.1162  0.2515 -0.1575
29606W        W45740  13.884  11.745   0.485  0.3802 -0.0686 -0.1689
29607W        W45741  16.825  16.742  12.553 -0.0729 -0.3035  0.2327
29608W        W45742  13.373   3.748  13.898 -0.0741 -0.1806  0.0731
29609W        W45743   3.171  18.860   1.767  0.0622 -0.1341  0.0143
29610W        W45744   9.588  12.134  14.827  0.1829 -0.2394  0.2444
29611W        W45745  14.412   6.419  12.229  0.1147 -0.2499 -0.2077
29612W        W45746  10.568  14.619   2.915  0.0280 -0.1573  0.0745
29613W        W45747  17.052  10.585  13.380  0.1171  0.0088 -0.1759
29614W        W45748  15.640  10.929  10.479  0.2848  0.2631 -0.2499
29615W        W45749  13.769   6.438  10.717  0.2355 -0.2886  0.1787
29616W        W45750   2.261  14.682   3.310  0.1247  0.0373 -0.0489
29617W        W45751   0.727  17.706   1.024  0.1075 -0.0255  0.3463
29618W        W45752   9.923   1.696   4.940 -0.0185 -0.1498  0.0070
29619W        W45753  17.571  12.470  10.701  0.1387  0.0924  0.1458
29620W        W45754   7.722   6.014  12.322 -0.0913 -0.1903  0.3677
29621W        W45755   5.048   2.332   0.922  0.0222 -0.3844 -0.1007
29622W        W45756  13.521  18.464  14.114 -0.2120 -0.0258  0.0696
29623W        W45757  12.790   6.211   5.572 -0.2054  0.0800  0.0008
29624W        W45758  10.882   7.226   1.962 -0.0814  0.1068  0.0747
29625W        W45759  16.914  19.042  11.026 -0.0893  0.0299  0.0525
29626W        W45760   1.712  17.508   3.909 -0.0411 -0.2456 -0.0271
29627W        W45761   8.965   6.952   2.745 -0.1106  0.0451 -0.0322
29628W        W45762  18.558  18.892  13.095  0.0653  0.1893 -0.1431
29629W        W45763   0.248  17.641  10.583 -0.0113  0.1537  0.0604
29630W        W45764   4.321   1.687   1.310  0.0040 -0.2464 -0.2995
29631W        W45765  13.563   5.326  13.385  0.2488 -0.2252  0.0070
29632W        W45766  15.103   4.955   3.082  0.0759 -0.4348  0.1837
29633W        W45767  19.150  14.330  12.176  0.2228  0.2704 -0.1446
29634W        W45768  11.419   0.920   4.560  0.1177  0.0410 -0.0365
29635W        W45769  19.038  16.165   1.390 -0.0208 -0.0109 -0.3065
29636W        W45770   0.759  11.869  11.408  0.2405 -0.0805  0.1725
29637W        W45771  16.621  16.791  11.137 -0.0432 -0.1299 -0.3383
29638W        W45772   0.288  13.105   0.061 -0.0539  0.0884 -0.3477
29639W        W45773   4.598  11.710   3.937  0.0599 -0.2068  0.2171
29640W        W45774   6.151  15.225  13.381  0.1810  0.3190 -0.1725
29641W        W45775  13.895  16.187   4.670 -0.1995  0.1751 -0.0543
29642W        W45776   0.109   3.132  14.968  0.0173 -0.0674 -0.0848
29643W        W45777   6.817  18.491  14.858 -0.0757  0.0773  0.2331
29644W        W45778  11.423   2.710  12.890 -0.0739  0.0286 -0.0544
29645W        W45779  13.287   8.758   4.249 -0.0694 -0.0305 -0.0563
29646W        W45780  18.937  18.158  13.331  0.1152  0.1841 -0.0470
29647W        W45781   5.393   3.323  10.672  0.0589 -0.0147  0.2635
29648W        W45782  13.477  13.056   3.705 -0.0449 -0.2678 -0.0256
29649W        W45783   8.575  19.016  13.345 -0.0447 -0.0414  0.2559
29650W        W45784   1.720   9.820   1.744 -0.1924 -0.0487 -0.3112
29651W        W45785  13.466   6.063   1.018 -0.1799 -0.2694 -0.2161
29652W        W45786  17.481   6.629  13.378 -0.1532  0.2090  0.2206
29653W        W45787   1.850  17.237  12.504  0.0767  0.2496  0.1366
29654W        W45788   7.106  17.176  14.963  0.0019 -0.2882 -0.0981
29655W        W45789  12.482   6.605  12.061  0.1279 -0.0265  0.3409
29656W        W45790   0.981   1.883  12.935 -0.0146 -0.2568  0.0734
29657W        W45791   6.819  14.769   1.421 -0.1261  0.0043  0.0787
29658W        W45792   7.346   6.892   0.780 -0.0698 -0.0130  0.0141
29659W        W45793  18.357   1.827  13.974 -0.0274  0.2709  0.1271
29660W        W45794   0.788  16.365   3.758 -0.0931  0.0953 -0.0081
29661W        W45795  16.071  14.866   2.695  0.1985  0.1578  0.0181
29662W        W45796   1.263  12.507   3.996  0.3717  0.3240  0.2392
29663W        W45797   2.721  16.254   0.454 -0.1592  0.1299 -0.0993
29664W        W45798   7.231   6.220  12.293  0.1216  0.0797 -0.0929
29665W        W45799   0.220   8.273   2.909 -0.3431 -0.2034  0.1038
29666W        W45800  17.635  17.118   2.928  0.0015  0.0185 -0.1942
29667W        W45801  18.855   0.239  13.889  0.0446 -0.0608 -0.0955
29668W        W45802  13.358  10.956   1.034  0.0812  0.2229  0.0331
29669W        W45803  11.241  15.154  13.914 -0.3139 -0.0515  0.0953
29670W        W45804  15.537  16.036  11.735  0.2652  0.3074 -0.2024
29671W        W45805  18.458   9.026   4.844  0.0552  0.0951 -0.3248
29672W        W45806  10.968  10.499   2.249  0.2380  0.0667 -0.0588
29673W        W45807   1.169  16.682   2.981  0.1518  0.0469  0.0306
29674W        W45808   5.834   6.084   0.226  0.2061  0.2733 -0.0034
29675W        W45809  18.840  14.765  10.912 -0.1804  0.1573 -0.1268
29676W        W45810  18.605   2.733  12.025 -0.0146  0.0880  0.2392
29677W        W45811   4.035  17.461   1.176 -0.2872  0.1458 -0.1717
29678W        W45812  17.267   1.012   2.562 -0.2684 -0.0229  0.1260
29679W        W45813  10.620   4.817   4.094  0.0938 -0.1480 -0.0710
29680W        W45814   8.538  12.299   3.998 -0.2472  0.1303  0.0029
29681W        W45815   3.682  14.008   1.018  0.0974  0.0038 -0.2163
29682W        W45816   7.440   0.476   4.011 -0.1265  0.2371 -0.0011
29683W        W45817   3.001   2.560  13.157 -0.1922  0.2184 -0.4056
29684W        W45818   7.731  17.350   2.215 -0.0758 -0.1336 -0.0155
29685W        W45819   4.804   9.601   3.012  0.1910  0.1613 -0.0535
29686W        W45820  14.508   7.160   2.008  0.1178  0.2720 -0.0137
29687W        W45821   4.977   3.165   2.271 -0.0371  0.1637  0.3179
29688W        W45822   0.774  14.923   2.662  0.1105 -0.0127  0.1673
29689W        W45823  17.228   8.126   5.243 -0.0692 -0.0503  0.3739
29690W        W45824  18.536   2.297  11.057  0.0677  0.0085  0.2473
29691W        W45825   3.357  15.721  13.878  0.1441  0.1587  0.1838
29692W        W45826   5.363   6.489   2.583  0.2302  0.1360 -0.1920
29693W        W45827   5.016   7.214  13.915  0.3515 -0.1624  0.2618
29694W        W45828  17.564   5.180   4.763  0.3183  0.1026 -0.0109
29695W        W45829   3.908  13.959  10.732 -0.2262 -0.0600 -0.1189
29696W        W45830   4.760   7.509   2.940  0.1754  0.1891 -0.2548
29697W        W45831  10.030   3.388   1.005  0.1984  0.0371  0.0728
29698W        W45832   5.223  17.998  13.015  0.1879  0.1631  0.0812
29699W        W45833  16.373   1.820  13.990  0.2918  0.1144 -0.2824
29700W        W45834   8.536  15.827   4.041 -0.1539 -0.0698 -0.0445
29701W        W45835   7.227  13.926  11.832  0.0643  0.1167 -0.1123
29702W        W45836   7.629  13.405  11.145 -0.0680 -0.0690  0.1159
29703W        W45837  13.338  17.463  11.588 -0.0055  0.0109  0.0758
29704W        W45838  10.110  13.714   4.875  0.2735 -0.0945  0.0450
29705W        W45839   4.539  16.500  14.145 -0.0056  0.1286 -0.0513
29706W        W45840   2.594  14.836   1.775 -0.2644  0.2578 -0.3510
29707W        W45841   0.443  14.237  13.537  0.0715 -0.1222 -0.1744
29708W        W45842  13.669  10.233   3.570 -0.3656  0.0149  0.0340
29709W        W45843   8.616  16.438  14.152 -0.3666  0.2540  0.1063
29710W        W45844   6.562  19.263   4.777  0.2788  0.1889  0.1081
29711W        W45845  17.957  10.765  14.786 -0.5034 -0.1379 -0.3970
29712W        W45846   0.239   1.004  14.622  0.2826  0.0007  0.1914
29713W        W45847   4.204   5.961   3.970  0.0557  0.0279 -0.0459
29714W        W45848   5.336   5.283   1.389 -0.1975  0.1316 -0.0443
29715W        W45849  13.970  12.266   0.432  0.2910  0.0927 -0.1366
29716W        W45850   2.273   9.877   1.175 -0.1005 -0.0754  0.5282
29717W        W45851  13.981   5.174  13.133 -0.1058 -0.1082  0.2223
29718W        W45852   2.749   0.253  14.431 -0.2173 -0.4944 -0.1163
29719W        W45853  16.970  18.848   8.584  0.0467 -0.1220 -0.0449
29720W        W45854  17.092   2.955   3.333 -0.0732 -0.2524  0.1390
29721W        W45855  11.705  17.299   0.798  0.0274 -0.0094 -0.0909
29722W        W45856  17.595  16.168  12.947 -0.0310 -0.2164 -0.1082
29723W        W45857   6.548   1.966   2.030 -0.1111  0.1565  0.0283
29724W        W45858   1.173  12.493  10.237  0.0707  0.0174  0.4385
29725W        W45859   4.900   9.866  12.801  0.2413  0.2161 -0.1279
29726W        W45860  15.546   6.652   1.315 -0.3001 -0.1189  0.0216
29727W        W45861   9.955   4.013   0.088  0.2611 -0.1490 -0.1356
29728W        W45862   3.991  13.095   2.806 -0.0170 -0.1160 -0.3618
29729W        W45863  18.579   1.347   3.767  0.1853 -0.0741 -0.0491
29730W        W45864   7.558   9.889   4.104  0.1892 -0.0417  0.2650
29731W        W45865   2.154  10.114   1.628 -0.0115  0.0939 -0.1166
29732W        W45866  10.373  17.986  12.572 -0.1663  0.0139 -0.2183
29733W        W45867   8.633  11.157   3.774  0.1196  0.1751  0.0748
29734W        W45868   9.941   6.553   5.789 -0.0603  0.0438  0.2737
29735W        W45869  15.509  16.243  14.171  0.4089  0.1074  0.1794
29736W        W45870  16.600  11.692  13.808 -0.2144 -0.0904 -0.0903
29737W        W45871  16.068   0.629  12.712 -0.3582  0.2869 -0.1298
29738W        W45872  12.324   9.909   0.122  0.0490  0.1130 -0.0636
29739W        W45873  19.235  12.646   1.702 -0.2382 -0.0007  0.2194
29740W        W45874  18.073   0.594  12.461 -0.2249 -0.2355 -0.1428
29741W        W45875   2.938  12.362  11.360  0.0283  0.1421 -0.0386
29742W        W45876   2.843   4.859   3.429 -0.0718  0.2369 -0.2497
29743W        W45877  18.748   1.556  14.979 -0.1705 -0.0103 -0.2276
29744W        W45878   3.991  15.011   4.748  0.2136 -0.1130  0.1363
29745W        W45879   6.854  16.005  10.508  0.1065  0.2004  0.1811
29746W        W45880  16.845  12.331   4.199  0.6469 -0.3449  0.1435
29747W        W45881   7.484  17.923  12.950 -0.0076 -0.1419  0.0083
29748W        W45882  10.430  17.142   1.098 -0.3592  0.2862  0.2122
29749W        W45883  17.558   9.736  11.303  0.0914 -0.1621  0.0134
29750W        W45884   5.430   5.908  12.793 -0.1738  0.0605  0.2749
29751W        W45885  12.442   5.072   3.311 -0.3766  0.2557 -0.1971
29752W        W45886  17.513   0.222   2.926 -0.0937  0.1096 -0.1193
29753W        W45887   0.315  14.751   0.118 -0.0845 -0.0496 -0.0876
29754W        W45888   1.937   0.645  13.829 -0.2933 -0.3990  0.0871
29755W        W45889   1.844  11.124   2.444 -0.3058 -0.3725 -0.0444
29756W        W45890  18.685   9.237   2.922 -0.0541  0.2733  0.1285
29757W        W45891  18.134   1.848   0.136  0.2701 -0.2492 -0.0192
29758W        W45892  14.400  14.881  12.726 -0.2073  0.0763 -0.1040
29759W        W45893  19.066   1.969   5.046  0.0490  0.0254 -0.4260
29760W        W45894   2.335   8.932   4.433  0.0923  0.0497 -0.0040
29761W        W45895  10.986   8.456  10.955 -0.1425 -0.1399 -0.0088
29762W        W45896  10.522   6.766  14.266  0.2837 -0.0373 -0.1297
29763W        W45897   5.447   9.374   1.613  0.4153 -0.3684  0.3648
29764W        W45898   4.677   7.696  13.872 -0.1333 -0.0542 -0.1304
29765W        W45899   6.293  15.956   0.949 -0.2735 -0.2290 -0.4256
29766W        W45900  15.820  12.967   0.885  0.0206 -0.1616  0.0258
29767W        W45901   2.223   3.766  10.378  0.2142  0.2076 -0.2161
29768W        W45902   2.335   4.066  11.233  0.1438  0.0066  0.2286
29769W        W45903  10.903   4.917   4.440 -0.1609  0.2842  0.0128
29770W        W45904   8.838  17.395  11.390 -0.3016  0.1052 -0.3851
29771W        W45905   1.154   3.290  14.932 -0.1964 -0.1242  0.0040
29772W        W45906   6.248   7.597   4.178 -0.0358  0.0690  0.1900
29773W        W45907   0.201   5.514  12.435  0.0367  0.1915 -0.1474
29774W        W45908   1.461   2.472   3.099 -0.1361 -0.4070 -0.1008
29775W        W45909   8.389  11.806   1.709  0.0526 -0.1254  0.0865
29776W        W45910  15.775   0.723  11.658  0.1277 -0.1633 -0.0791
29777W        W45911   7.141  11.499  12.391  0.2049 -0.0077 -0.2735
29778W        W45912   6.239  17.667  13.991  0.0308  0.1674  0.2292
29779W        W45913   1.312  10.596  14.628 -0.3060 -0.0260  0.0979
29780W        W45914   1.999  15.144   2.410 -0.0719 -0.0984  0.1128
29781W        W45915  17.430  15.715   4.641  0.3150  0.2350 -0.2596
29782W        W45916  19.010  11.681  13.081  0.1735 -0.0212  0.1135
29783W        W45917  14.432  13.497  12.997  0.2870 -0.0053  0.2665
29784W        W45918   3.862   1.794   9.907  0.1858 -0.0035  0.2264
29785W        W45919   8.713  10.550  10.456 -0.0797 -0.0038  0.1315
29786W        W45920   5.601  15.844  12.373  0.0776  0.0209 -0.0575
29787W        W45921  13.303   6.731   0.278 -0.0168  0.2055  0.1056
29788W        W45922  15.358  18.147  14.980  0.0207 -0.1641  0.1290
29789W        W45923   5.716  10.002   1.033  0.0928  0.1891  0.2690
29790W        W45924   0.374  10.740   2.772  0.0769  0.4213 -0.1366
29791W        W45925  11.991   2.522   4.528  0.1147  0.0072 -0.1676
29792W        W45926  14.193   8.907  12.706 -0.0196 -0.1719 -0.3077
29793W        W45927   4.917  14.665   4.744 -0.4807 -0.1692 -0.3167
29794W        W45928   2.530  11.088   0.696 -0.0528 -0.1017 -0.1306
29795W        W45929  12.937  11.312  12.484  0.0637 -0.0793 -0.0407
29796W        W45930   6.875  17.776  14.200  0.2618 -0.0291 -0.1091
29797W        W45931  12.202   9.154  12.166 -0.2467  0.0327 -0.0486
29798W        W45932   6.096  14.005   3.601 -0.0892 -0.2300 -0.2100
29799W        W45933   2.550   1.242   0.828  0.1419  0.2190  0.1853
29800W        W45934  11.723   9.226  11.042  0.2214  0.0367  0.0509
29801W        W45935   9.459   6.828   4.830  0.2504  0.0022 -0.1746
29802W        W45936   4.127  11.968   3.557 -0.0459  0.1595  0.0672
29803W        W45937  15.044  17.473  13.985  0.2921 -0.2797 -0.1369
29804W        W45938   6.381  13.279  13.499  0.1414 -0.2061 -0.0560
29805W        W45939  10.511  14.140   2.483  0.0265  0.2656  0.4605
29806W        W45940   1.036  17.113  13.818 -0.0162 -0.0456  0.0449
29807W        W45941   3.704  14.854   3.883  0.3682 -0.3602 -0.0477
29808W        W45942  11.472  12.470  13.331 -0.1373  0.0091  0.2440
29809W        W45943   8.657   3.190  12.658 -0.1748 -0.0401  0.4205
29810W        W45944   7.895   4.435   0.337 -0.0992  0.2466 -0.0255
29811W        W45945   4.585  18.221   4.524 -0.0866 -0.0088 -0.2647
29812W        W45946   5.811  16.752   1.989  0.0307 -0.0737  0.0992
29813W        W45947  16.480  12.510   3.490 -0.0139 -0.3197 -0.0449
29814W        W45948  17.592  17.079   2.047 -0.0864 -0.0461 -0.1383
29815W        W45949   2.620  14.200   4.254 -0.1584  0.1953  0.0587
29816W        W45950   1.041  18.828  10.263  0.0552  0.2377 -0.4367
29817W        W45951   0.224  11.025  13.378  0.1258 -0.1924  0.1261
29818W        W45952  16.220   7.840   4.046 -0.3158  0.0545  0.4421
29819W        W45953   2.792  17.366  12.596 -0.1954  0.1683  0.0491
29820W        W45954   3.019  14.023   3.977  0.1559  0.1911  0.0957
29821W        W45955   1.886   1.834   0.088  0.1599 -0.0393 -0.2059
29822W        W45956   1.290  11.446   1.110 -0.4092  0.2885  0.0589
29823W        W45957   8.310   4.164   2.817 -0.1741  0.1726 -0.0742
29824W        W45958  15.385  11.250   5.612 -0.1386  0.1069  0.2234
29825W        W45959  12.107   8.862   0.369  0.2519 -0.1131 -0.3276
29826W        W45960  13.828  16.994   3.402 -0.2869 -0.0561 -0.2050
29827W        W45961   2.105  15.483  14.105 -0.0685  0.1261 -0.1213
29828W        W45962   6.100  17.268   3.547  0.0157 -0.1842  0.0562
29829W        W45963  17.115   6.949  13.248  0.5611 -0.0921 -0.1614
29830W        W45964  10.482  18.109   5.784  0.0379  0.2626  0.3119
29831W        W45965   8.828   2.938  13.880  0.2521  0.0261  0.0540
29832W        W45966  12.035   3.843  13.277  0.2451 -0.0892 -0.0975
29833W        W45967   1.376   9.179   0.183 -0.1162  0.3643 -0.1541
29834W        W45968   1.079  17.575  13.953 -0.1056  0.0942 -0.3182
29835W        W45969  10.502  17.435   2.332 -0.2392 -0.2982 -0.0645
29836W        W45970  13.382   5.365   0.256 -0.4146  0.0732  0.1767
29837W        W45971  14.370  11.044  12.070 -0.0438  0.1050  0.0101
29838W        W45972   7.151   9.004  12.797 -0.0550  0.1051  0.0393
29839W        W45973  11.250   7.418   3.086  0.1666  0.1255  0.0843
29840W        W45974  10.543   0.480  11.235  0.0078  0.1997 -0.1274
29841W        W45975   9.256   1.104   2.036  0.2429  0.0191 -0.0998
29842W        W45976   4.079  10.456   3.884 -0.1735  0.1491 -0.0037
29843W        W45977   2.286  10.529  11.457  0.1274 -0.0122 -0.0915
29844W        W45978   0.797   4.925   4.643  0.0736  0.2760  0.2531
29845W        W45979   7.843   7.907  10.860 -0.1980 -0.2316  0.0050
29846W        W45980  13.464  10.330   3.134 -0.0145  0.0091 -0.0073
29847W        W45981  15.903  12.562   1.154  0.0386 -0.1717 -0.0826
29848W        W45982  16.998  11.182   5.173 -0.0220 -0.1042  0.2406
29849W        W45983  14.298   1.186   2.750  0.0795 -0.0423  0.1408
29850W        W45984   6.151   2.350   2.670 -0.1881  0.0522 -0.2630
29851W        W45985   3.763   7.547   3.862 -0.0417  0.1763 -0.0326
29852W        W45986  14.125  12.339   4.056 -0.0314 -0.0820  0.3054
29853W        W45987  12.038   0.186  13.558  0.1399  0.4870 -0.2152
29854W        W45988   8.517  12.617   1.087  0.1424  0.0179 -0.1622
29855W        W45989  10.778  13.048   0.998  0.2911  0.1871  0.1911
29856W        W45990   6.261  11.930   1.506 -0.2149  0.0732 -0.0679
29857W        W45991   0.790  13.446   3.188  0.0396  0.3717 -0.0277
29858W        W45992  11.529  18.528   5.063 -0.0160 -0.0054  0.0486
29859W        W45993   3.288   4.464   9.213  0.2181  0.0846 -0.2253
29860W        W45994   9.986  11.742  10.308  0.0735 -0.1714 -0.0077
29861W        W45995   3.274   0.803   1.201  0.3028 -0.1540  0.0986
29862W        W45996  18.125  17.181  11.720 -0.3296 -0.4233 -0.2884
29863W        W45997   9.042   4.786   5.104  0.0394  0.1983 -0.1320
29864W        W45998  10.495  10.797   3.684  0.1207  0.3222  0.0666
29865W        W45999  10.022   4.184  13.171 -0.1594  0.1038 -0.2254
29866W        W46000   3.193  12.990  14.779  0.0590 -0.3462 -0.2086
29867W        W46001  19.248  11.400  12.711 -0.1859 -0.2121  0.0939
29868W        W46002  16.798   7.805   0.994 -0.1617  0.2249  0.0539
29869W        W46003  18.495  13.625   4.308 -0.0933  0.2104  0.1786
29870W        W46004   1.696   6.190   3.218 -0.4218  0.3283  0.5259
29871W        W46005   1.869  11.415   0.041 -0.1432 -0.0288  0.2789
29872W        W46006   8.718  11.522   1.987 -0.3046  0.0887 -0.2146
29873W        W46007   3.521  16.317  11.431 -0.1668 -0.0456 -0.0894
29874W        W46008   8.961   1.890  11.903  0.2378  0.3588  0.3903
29875W        W46009  16.079  18.312  11.928 -0.1379 -0.4306  0.2713
29876W        W46010   5.713   7.635  13.544 -0.2277  0.2652  0.1756
29877W        W46011  16.965   7.774   9.759 -0.0411  0.2232 -0.1143
29878W        W46012  14.622  17.983  10.168 -0.2468  0.0784  0.2131
29879W        W46013  11.884  16.947   4.172 -0.2992 -0.0883 -0.1520
29880W        W46014   5.946  10.030   2.466  0.0443  0.1465 -0.0429
29881W        W46015   4.020  10.834  12.207  0.3163  0.0273 -0.2011
29882W        W46016  13.864  19.281   5.134  0.0767  0.0303  0.4836
29883W        W46017   5.528  10.865  13.504 -0.0340  0.1376  0.1719
29884W        W46018   0.559   4.964   5.111 -0.0880 -0.1716 -0.3147
29885W        W46019   8.966   2.977   1.379 -0.2026 -0.1155  0.0180
29886W        W46020  16.040   5.626  11.448  0.0983 -0.0125  0.3004
29887W        W46021  10.130  16.939  14.164 -0.0219 -0.3094  0.2486
29888W        W46022   2.181   9.725   2.512 -0.0104 -0.1513 -0.1130
29889W        W46023   5.132   3.993   0.731  0.1257 -0.1423 -0.3160
29890W        W46024  16.696  10.635   3.848  0.1044  0.1608  0.0497
29891W        W46025  10.124   1.439  14.618  0.2900 -0.2943  0.4544
29892W        W46026   1.260   8.548   0.727  0.2061 -0.0395 -0.1751
29893W        W46027  13.615  13.269   3.167 -0.4122  0.1866  0.3232
29894W        W46028   9.554  13.606  11.419  0.3210 -0.0806 -0.0809
29895W        W46029  10.781   8.077  12.085 -0.0753 -0.1162  0.2997
29896W        W46030   9.906   1.211  12.904 -0.0309 -0.0454 -0.0610
29897W        W46031  10.224  14.633   2.465 -0.2719 -0.0206 -0.0428
29898W        W46032   5.962   3.381   0.173  0.2103  0.3366 -0.3439
29899W        W46033  16.558  19.255   4.149  0.2209  0.0157  0.2871
29900W        W46034  10.630   1.837   3.888 -0.1615  0.3409 -0.2443
29901W        W46035   3.271  10.671   9.719 -0.3534 -0.0489 -0.0996
29902W        W46036  12.874   6.082   4.994  0.3119 -0.0492 -0.0158
29903W        W46037  10.675   8.045  10.654 -0.0199 -0.2167 -0.0031
29904W        W46038   0.122   7.289  13.592 -0.1720  0.3737  0.0658
29905W        W46039  14.226   4.089  14.154  0.0724  0.0409  0.0232
29906W        W46040  12.801   5.331   4.539 -0.0777  0.0895  0.3116
29907W        W46041  13.187   9.916  13.736  0.1481  0.1497 -0.1663
29908W        W46042  17.267   8.813   4.281 -0.5767 -0.0787  0.1249
29909W        W46043  10.460   9.659  13.441 -0.1988 -0.0932 -0.0321
29910W        W46044  16.775  15.730  13.922 -0.0661  0.0582 -0.2594
29911W        W46045  18.113  11.847   5.316  0.5043 -0.0820 -0.1332
29912W        W46046   7.865   9.319  11.268  0.0270 -0.2936 -0.0421
29913W        W46047  18.441  10.577  10.391  0.1280  0.1147 -0.1708
29914W        W46048  19.197   9.492   3.822  0.4962 -0.2039  0.2537
29915W        W46049   3.873   1.011  11.080 -0.3620 -0.4328 -0.3831
29916W        W46050  13.226  10.942  14.200  0.2319 -0.1012  0.4497
29917W        W46051   6.950   2.879  11.792 -0.4110 -0.0352 -0.0149
29918W        W46052  11.326   6.959   5.192 -0.1919  0.1551  0.1511
29919W        W46053   9.953  18.262   3.951  0.2680 -0.0023  0.3957
29920W        W46054  10.831   0.198  13.233 -0.1341  0.1829  0.1507
29921W        W46055   3.349  11.681   4.201 -0.0958 -0.3478 -0.0880
29922W        W46056   6.021  19.301   3.751 -0.1673  0.0935  0.3515
29923W        W46057   8.267   3.195  11.173 -0.0050  0.0929  0.1967
29924W        W46058   4.986   3.604   1.292 -0.2296 -0.0433  0.0114
29925W        W46059  16.988  14.061   0.388 -0.3835 -0.1963 -0.0995
29926W        W46060   0.350  15.194   1.328  0.5134  0.1033 -0.3547
29927W        W46061   0.454  12.687   3.590  0.2087 -0.0099 -0.2870
29928W        W46062  17.334  15.298   4.959  0.0722 -0.1614 -0.0288
29929W        W46063   3.183  12.224  12.846 -0.0820 -0.2743 -0.4806
29930W        W46064   1.078  17.397  14.624 -0.1685  0.2021  0.2552
29931W        W46065   0.259  12.133  13.628 -0.1760 -0.3217  0.1046
29932W        W46066   2.127  17.229   3.817  0.0510 -0.0409  0.0408
29933W        W46067  10.063  15.457   2.238 -0.0552  0.1883 -0.0628
29934W        W46068  18.203  17.364   0.376  0.1039  0.0293  0.1140
29935W        W46069   1.781   5.477  11.226  0.1556 -0.0866 -0.2631
29936W        W46070   0.209  10.641  11.857 -0.4037 -0.0191 -0.2652
29937W        W46071  13.758  14.789  13.806 -0.1005 -0.0339 -0.0854
29938W        W46072   5.584  19.180  13.350 -0.4197 -0.4244  0.0776
29939W        W46073   0.094   7.581   4.670  0.0478 -0.0729 -0.2978
29940W        W46074   2.753  18.623   1.190  0.1684 -0.3481  0.0181
29941W        W46075   8.597   9.588  12.231 -0.0817  0.0542  0.2015
29942W        W46076   1.120  10.640  12.784  0.0490 -0.0551  0.2668
29943W        W46077   0.603  11.396  12.891  0.0836 -0.0396  0.0914
29944W        W46078   8.153   1.674   1.945 -0.2136 -0.1551  0.1430
29945W        W46079  14.072  12.890  11.670  0.1253  0.3516 -0.2864
29946W        W46080   5.027  11.691  11.769 -0.0338  0.2495 -0.1902
29947W        W46081   9.478  11.950  14.385 -0.2552 -0.0110 -0.0017
29948W        W46082   5.881  10.392  11.076  0.0325 -0.1690 -0.0094
29949W        W46083   6.207   9.414  11.229 -0.1121  0.0345 -0.3848
29950W        W46084   4.702  10.051   2.823 -0.1321  0.1701  0.1341
29951W        W46085  17.728   9.590  10.230  0.1129 -0.2103  0.2041
29952W        W46086  15.916   9.002  13.015 -0.0479 -0.3847  0.1408
29953W        W46087   3.280  12.122  10.536 -0.2365  0.2163  0.0369
29954W        W46088   1.182   5.858   1.072  0.1316  0.0113  0.3071
29955W        W46089  17.994  12.784   9.188  0.1752  0.0154 -0.0205
29956W        W46090  16.017   1.007  14.405  0.0018  0.0992 -0.2369
29957W        W46091  12.286   7.793   4.244  0.0541 -0.1628 -0.1624
29958W        W46092   1.494   6.135   9.277 -0.1043 -0.1690 -0.0282
29959W        W46093  13.524  14.800  10.245 -0.1273 -0.0147 -0.0804
29960W        W46094   7.482   1.968  10.994  0.0797  0.2152 -0.1068
29961W        W46095   4.214  16.014   3.369 -0.0210 -0.0882 -0.2338
29962W        W46096   4.590   3.225   0.657 -0.0990 -0.2006 -0.3470
29963W        W46097  10.665   6.704   2.764  0.1352  0.2524  0.1029
29964W        W46098  14.594  11.015   2.968 -0.0666 -0.1152  0.1364
29965W        W46099   4.095   7.335  12.854  0.0934 -0.0983  0.2742
29966W        W46100  12.937   9.070  14.409 -0.2503  0.0174 -0.0602
29967W        W46101  11.472  11.844  12.445 -0.0712 -0.0427  0.1814
29968W        W46102  13.421  18.449   1.325  0.1420  0.0748  0.0162
29969W        W46103  14.453   3.472   1.860  0.2595  0.0010  0.1564
29970W        W46104   6.363  10.605  14.573 -0.0734 -0.2552 -0.0017
29971W        W46105  12.738   7.052  11.911 -0.0867  0.4357 -0.0681
29972W        W46106   5.547  17.290  11.128 -0.0288 -0.0273  0.3533
29973W        W46107  13.094  18.220   4.453 -0.2359  0.0739  0.4182
29974W        W46108   3.862   9.322   0.928 -0.0704  0.1879 -0.4576
29975W        W46109  18.124   6.945   0.049  0.0432 -0.0458 -0.0960
29976W        W46110  19.218  12.170  13.960  0.2522  0.0550  0.1053
29977W        W46111  13.058   9.764  11.906 -0.2028  0.2868 -0.1114
29978W        W46112   1.175   4.668  11.945  0.3439  0.3523 -0.0509
29979W        W46113   9.640   3.267  14.568  0.0581  0.2585  0.3600
29980W        W46114  19.275  18.958  12.861 -0.0312 -0.1399 -0.3407
29981W        W46115  14.098  15.902   2.475  0.0492 -0.0708 -0.0300
29982W        W46116  18.545   5.243   5.125  0.0863 -0.1960 -0.2268
29983W        W46117  16.872  15.328   0.719 -0.0029 -0.0690  0.1135
29984W        W46118   0.466  12.908  10.444 -0.0199 -0.3006 -0.2045
29985W        W46119   4.889  18.908   2.226 -0.2126  0.1936 -0.0134
29986W        W46120   9.485  10.085  12.982 -0.1625  0.0302 -0.0099
29987W        W46121   0.690  11.405  10.154 -0.0062  0.3419  0.1534
29988W        W46122  18.783   0.763   9.997 -0.2217 -0.4018 -0.2454
29989W        W46123  14.491   2.880   0.747  0.2114 -0.1109 -0.0055
29990W        W46124   2.090   2.685  13.582 -0.3135  0.1696 -0.2667
29991W        W46125  11.196  11.801   0.188 -0.1275 -0.3477  0.0576
29992W        W46126   9.153  11.567   4.290 -0.1495  0.0254 -0.2386
29993W        W46127  17.312  16.743  10.754  0.2527  0.0277  0.0580
29994W        W46128  13.819  16.221   9.174  0.2811 -0.1140  0.1265
29995W        W46129   8.013  11.298  14.898  0.0286 -0.1894 -0.2269
29996W        W46130  10.883   5.618  12.588  0.2081  0.3614 -0.0301
29997W        W46131  10.343   6.576   2.326 -0.2808 -0.0555  0.1403
29998W        W46132   4.998   1.094   3.864  0.1027 -0.0703  0.2369
29999W        W46133   7.170  10.999   3.085  0.1956  0.1157  0.1398
30000W        W46134  15.681  14.339  12.788  0.0089  0.0561  0.4241
30001W        W46135   9.254  15.204  13.278 -0.1121 -0.2907 -0.1322
30002W        W46136   5.325   7.759   4.262 -0.2791  0.0757 -0.0647
30003W        W46137   1.031   3.290   1.318  0.3862  0.0369  0.0484
30004W        W46138  15.689   7.975   3.416  0.1486 -0.1859 -0.3816
30005W        W46139   1.112   0.706   1.517 -0.1117  0.1602 -0.0371
30006W        W46140  16.954  16.286  12.026 -0.1594 -0.0567  0.1442
30007W        W46141   4.710  15.588   4.616 -0.1961 -0.1319 -0.1095
30008W        W46142   2.987   0.583  10.650  0.0787 -0.1686  0.0028
30009W        W46143   0.498  15.455  11.262 -0.1422  0.1446 -0.0290
30010W        W46144  12.495   9.531  13.072 -0.1391  0.2588 -0.2674
30011W        W46145   3.298  11.626   1.367  0.2758  0.1944 -0.0722
30012W        W46146  13.393   0.782  14.188 -0.1575 -0.0179  0.1885
30013W        W46147  10.315  10.643  12.952  0.1561  0.2602  0.1950
30014W        W46148  13.502  14.395   3.891  0.1682 -0.1288 -0.2840
30015W        W46149  17.964  19.326   0.851 -0.2524 -0.2408 -0.3368
30016W        W46150   4.307   7.891  13.647 -0.3124  0.2996  0.1475
30017W        W46151  15.071   8.877  12.994  0.1230  0.1614 -0.2383
30018W        W46152  18.795   8.586  11.798  0.1890  0.0308 -0.0494
30019W        W46153  16.343   9.470  11.434 -0.2901  0.0868  0.2456
30020W        W46154  12.787  11.690   0.630  0.1720  0.1455 -0.2488
30021W        W46155   5.853  15.930   4.080  0.2997  0.0462 -0.0647
30022W        W46156   4.730  17.656  14.673  0.1792 -0.1385  0.2099
30023W        W46157  13.720  16.659   2.986  0.0155 -0.2215  0.0782
30024W        W46158  16.293  12.804   0.744  0.0853 -0.1604 -0.1578
30025W        W46159   9.021   5.445  12.228 -0.1787  0.2005 -0.1581
30026W        W46160  14.117  17.006  14.066 -0.1501 -0.2046  0.2660
30027W        W46161   1.104  16.755   1.114  0.1696  0.2402 -0.1991
30028W        W46162  13.868   5.719   4.210  0.1699  0.2155 -0.0904
30029W        W46163   3.589  14.439  14.235 -0.0759  0.1633  0.2332
30030W        W46164  10.595   7.244  14.903 -0.0880  0.0505 -0.0456
30031W        W46165   8.915  15.144  11.511 -0.1239 -0.0010 -0.3017
30032W        W46166   0.788  16.469   0.324  0.3260  0.2234 -0.0887
30033W        W46167  18.360   5.102   2.460  0.2321 -0.2639 -0.0814
30034W        W46168   7.157  13.200  14.320 -0.2449  0.1405 -0.4760
30035W        W46169   5.502   9.148   3.699  0.1446 -0.1475 -0.0886
30036W        W46170  17.882  13.643   0.161  0.1036 -0.4137 -0.3059
30037W        W46171   1.217   8.029   1.463  0.1834  0.3703 -0.2206
30038W        W46172  13.809   4.483   2.620  0.1491  0.0262  0.0898
30039W        W46173   7.153  14.475   2.438 -0.0749 -0.0756  0.5162
30040W        W46174   9.400  19.066   4.656  0.1528  0.2050  0.0166
30041W        W46175   2.714  11.691   0.051 -0.0517 -0.1120 -0.3292
30042W        W46176   4.969  17.703   4.514 -0.0718 -0.1347 -0.0723
30043W        W46177   2.863   2.746  11.236  0.2170  0.3385  0.2223
30044W        W46178   2.092   6.888   4.231  0.1728  0.1950  0.0417
30045W        W46179   4.739  17.128   3.137  0.1047  0.1223 -0.4852
30046W        W46180   6.456  16.519  14.399  0.3305  0.0707 -0.2649
30047W        W46181   6.567  17.176   1.952 -0.1550 -0.2225 -0.0866
30048W        W46182   0.200  10.736   0.445 -0.3370  0.1946 -0.0443
30049W        W46183   7.853   7.542   3.276 -0.2623 -0.0158  0.1709
30050W        W46184  16.854  10.457   1.605  0.1628 -0.2802  0.2450
30051W        W46185   7.656   9.117  12.725  0.0076  0.0231  0.2246
30052W        W46186   5.227   7.788  10.365  0.2291 -0.1818  0.2950
30053W        W46187  18.049  10.111  14.969 -0.1255  0.3219  0.2188
30054W        W46188   2.471  13.802  10.834 -0.1977 -0.1719  0.0659
30055W        W46189   9.457   1.198  10.746 -0.3064 -0.0859 -0.1440
30056W        W46190   5.840  15.820   0.746  0.1063  0.1428 -0.1739
30057W        W46191   8.622   2.872  11.060  0.0326  0.2999 -0.2233
30058W        W46192  11.750  14.330   0.244 -0.0837  0.0281  0.1991
30059W        W46193   1.178   3.831   0.598  0.0119 -0.0611  0.0247
30060W        W46194  18.469  14.441  13.534  0.1641  0.0813 -0.2239
30061W        W46195   2.536  18.392  12.227  0.0757 -0.3639 -0.0851
30062W        W46196  11.435  12.968   0.968 -0.2079 -0.2753 -0.1238
30063W        W46197  18.927  15.778   2.245 -0.0428 -0.0141 -0.1709
30064W        W46198  16.260  17.852  10.286  0.0062 -0.1472  0.1505
30065W        W46199   3.564  14.738   5.500 -0.2138  0.0361 -0.2516
30066W        W46200  10.728   8.826   0.500  0.1118  0.1039 -0.2181
30067W        W46201  10.405  18.672  13.461 -0.2596 -0.0022 -0.0717
30068W        W46202   4.914  15.948   2.876 -0.3005 -0.2521 -0.0350
30069W        W46203   7.040  17.809  13.379  0.2702  0.2427 -0.1542
30070W        W46204  17.168   4.742  14.945  0.3559  0.1241  0.1028
30071W        W46205   3.109   7.603   0.754  0.3045 -0.0689  0.0738
30072W        W46206  11.702  11.500   0.716 -0.2023  0.0225  0.1404
30073W        W46207   5.628  16.180  12.768 -0.4722 -0.1258 -0.2147
30074W        W46208  10.968   5.291  14.888  0.1296  0.3995  0.0375
30075W        W46209  16.750   9.771   5.018  0.0804  0.2074 -0.1830
30076W        W46210   6.792  10.506   4.021  0.1847  0.1875  0.0701
30077W        W46211   1.064   1.577   9.819 -0.1807 -0.1943  0.2624
30078W        W46212  18.247  15.717   9.603  0.3556 -0.2392  0.0686
30079W        W46213   3.656  11.095   5.451  0.0803 -0.3549 -0.0190
30080W        W46214  11.052  10.712  10.958  0.1281 -0.3747 -0.0841
30081W        W46215  14.384   5.449   3.597 -0.0039  0.0321 -0.0628
30082W        W46216   1.312   5.025   0.113  0.2060 -0.1719 -0.2482
30083W        W46217  13.607  10.043   4.027  0.0988 -0.1566  0.0284
30084W        W46218   0.106  10.741   5.119  0.1294  0.1585  0.3639
30085W        W46219  19.191  15.393  10.875 -0.1369  0.0959 -0.3559
30086W        W46220   9.475  18.842   2.349 -0.2823 -0.0438  0.6278
30087W        W46221   2.065  13.629   0.521 -0.3324  0.1362  0.0245
30088W        W46222  14.601  16.461  10.864 -0.0391 -0.0485  0.0713
30089W        W46223   5.830   6.640   2.424 -0.2315  0.2235  0.1452
30090W        W46224  14.885   5.807   3.085 -0.4080 -0.3741  0.1236
30091W        W46225   5.143   6.047  11.372  0.0320 -0.1142 -0.1801
30092W        W46226  13.457  12.586   0.956 -0.1349 -0.1991 -0.0785
30093W        W46227   5.417  10.475   0.870  0.0311 -0.3071  0.1019
30094W        W46228   9.604   9.956  13.874 -0.3815  0.2895 -0.2623
30095W        W46229   6.600  15.626   3.163 -0.2019  0.0143 -0.7064
30096W        W46230   7.995  14.161   3.685 -0.3370 -0.1560  0.0889
30097W        W46231  16.342   7.682  10.355 -0.0966  0.0282  0.3439
30098W        W46232  14.637   2.701   2.918  0.3577  0.1316  0.0515
30099W        W46233  10.507  15.583   4.123 -0.2715  0.1380 -0.0687
30100W        W46234   9.578  14.064  13.895 -0.1429 -0.1272  0.2317
30101W        W46235  14.450  16.252  13.687  0.1550 -0.1288 -0.1025
30102W        W46236  15.875  15.650  13.497  0.0827 -0.2944 -0.1515
30103W        W46237   3.255   2.092  10.627 -0.2508  0.3958 -0.2030
30104W        W46238   4.241  14.802  12.211  0.2610 -0.2051  0.0234
30105W        W46239  12.355   6.358   1.938  0.2594 -0.0156  0.3248
30106W        W46240  16.914  12.607   2.561  0.4109  0.3333 -0.4299
30107W        W46241  11.005   0.865   5.029 -0.0064 -0.0878 -0.0375
30108W        W46242   8.321   1.859   4.648 -0.4768 -0.1130 -0.1202
30109W        W46243   9.409  14.777  12.308 -0.1020  0.0840  0.0378
30110W        W46244  12.882  11.377  12.016  0.1068 -0.1121  0.0621
30111W        W46245   2.184  18.597   3.948 -0.2971 -0.0968  0.0857
30112W        W46246  13.667   7.513   0.169  0.3960 -0.2326  0.1588
30113W        W46247   9.161  15.731   4.829 -0.2068 -0.1532  0.2000
30114W        W46248  16.452   5.565   0.708  0.2689 -0.0290 -0.2776
30115W        W46249  14.579  12.305  11.723 -0.0265  0.1416 -0.0051
30116W        W46250  13.654  19.261   0.838  0.2872  0.1046  0.1075
30117W        W46251  11.055   6.504  12.873  0.2506  0.3051  0.0764
30118W        W46252   5.379  16.617  12.984  0.2181  0.4125 -0.0281
30119W        W46253  11.660  15.873   1.874  0.2612 -0.1905  0.0847
30120W        W46254   6.601  12.556  13.107  0.2394  0.1439  0.0690
30121W        W46255  13.715  16.191  14.316 -0.0638  0.0720  0.0439
30122W        W46256   5.996   4.827  11.739  0.4320 -0.2479 -0.0901
30123W        W46257   0.027  15.009   4.288  0.1617  0.3617 -0.1964
30124W        W46258   2.876   0.369   1.641  0.1357  0.3569 -0.3177
30125W        W46259  12.491  14.749  11.819 -0.1726 -0.2838  0.1500
30126W        W46260   9.824   5.174   4.644  0.2531  0.0741 -0.1025
30127W        W46261   6.719  13.944   4.553  0.1539  0.2772 -0.1502
30128W        W46262   7.167   7.246   4.969 -0.1682  0.1485  0.1108
30129W        W46263  14.619  14.781   2.559  0.2697 -0.2303 -0.0953
30130W        W46264   5.517   3.023  14.061  0.1361 -0.1617 -0.0527
30131W        W46265  12.894   8.975   4.061  0.0636 -0.1384 -0.1292
30132W        W46266  15.050  13.096  13.656 -0.0578 -0.1409  0.1103
30133W        W46267  15.150  11.046  10.102  0.2070  0.1778 -0.1139
30134W        W46268  16.907  13.422  13.698  0.1234  0.0365 -0.1793
30135W        W46269  16.744  18.501   0.535  0.0350 -0.0031  0.5367
30136W        W46270  12.238  18.670   0.536 -0.0044 -0.1500  0.2459
30137W        W46271   9.040   8.691  14.098  0.4127  0.1623 -0.2504
30138W        W46272   0.969  11.506   2.789 -0.4096 -0.2526  0.1324
30139W        W46273  11.867  13.643  11.226  0.2971  0.0965 -0.1700
30140W        W46274   4.361   3.922   4.921  0.1391 -0.1516  0.1788
30141W        W46275   8.310   1.660   3.020 -0.0334 -0.1022 -0.0258
30142W        W46276  11.226  15.872  12.351 -0.1475 -0.1080  0.2471
30143W        W46277  15.744  13.248   4.938 -0.1171 -0.5412 -0.0878
30144W        W46278  10.018  13.178   2.809  0.0912  0.3313 -0.1179
30145W        W46279   6.565  17.012   2.693  0.1472 -0.1764  0.0608
30146W        W46280  16.484  11.835   4.309 -0.0846  0.2139  0.1887
30147W        W46281   2.827  10.173  13.165 -0.2989  0.0309 -0.4566
30148W        W46282  10.819  17.764   5.000 -0.0104 -0.0149  0.1583
30149W        W46283  17.096   3.384  12.720 -0.0210  0.0849 -0.2429
30150W        W46284   9.127  17.367   4.811  0.0092  0.3893  0.2479
30151W        W46285  16.212   9.520  14.146  0.1876 -0.0670 -0.3335
30152W        W46286   3.528   6.056  13.978 -0.1176  0.2487  0.1007
30153W        W46287   3.345  16.383   0.068 -0.3855 -0.0490  0.0063
30154W        W46288  14.915  18.356   4.067 -0.0339  0.1252  0.4010
30155W        W46289  17.123   2.900  13.588 -0.1791  0.0191 -0.2257
30156W        W46290   4.275   1.490   1.822  0.1264 -0.0492  0.3358
30157W        W46291   2.607  15.714   1.623  0.5309 -0.0827  0.1405
30158W        W46292   3.484  13.948  13.622  0.1538 -0.2096  0.1110
30159W        W46293   4.455  10.149  10.973 -0.3371  0.1676 -0.0256
30160W        W46294   4.980   7.997   0.768  0.0624 -0.0689 -0.0445
30161W        W46295  15.605  16.241   0.295 -0.2375  0.0326  0.1269
30162W        W46296   5.507  14.138   3.516  0.0271  0.1492  0.1848
30163W        W46297   4.586   9.242  14.835  0.2421 -0.1143  0.1094
30164W        W46298   9.298   3.544   0.277 -0.1024 -0.0445  0.2465
30165W        W46299  11.493  15.731  14.714  0.2734 -0.2227  0.3092
30166W        W46300   4.997  15.518   1.218 -0.0533 -0.4414  0.1040
30167W        W46301  10.849  16.370   0.085 -0.1180  0.3622 -0.5277
30168W        W46302   3.030   6.247  13.980 -0.1878 -0.0216 -0.1322
30169W        W46303  18.708  12.121  13.955  0.0433  0.2904  0.1462
30170W        W46304  11.698  10.816  15.008 -0.2001 -0.2561  0.2619
30171W        W46305   3.035   7.668  12.653 -0.2277 -0.4377  0.1511
30172W        W46306  15.511   3.568   3.606 -0.0417  0.1853  0.0932
30173W        W46307   1.421   4.378   3.731  0.1188 -0.0525  0.0688
30174W        W46308   2.115   9.919   4.530 -0.1169  0.3264  0.0456
30175W        W46309   8.181   8.538  13.883 -0.0330 -0.0758  0.0451
30176W        W46310  16.319  17.306   2.712  0.1376 -0.3246  0.1708
30177W        W46311  17.408  12.322   9.694  0.1105 -0.0602 -0.1029
30178W        W46312  10.542  16.292   1.453 -0.0513 -0.0603  0.1255
30179W        W46313   0.566  18.783   2.678 -0.0572  0.2899  0.1405
30180W        W46314  12.775  13.718   5.390  0.0830  0.1335  0.1155
30181W        W46315   1.176  17.505   0.930 -0.0149  0.0631  0.0356
30182W        W46316   7.857   3.183  12.557 -0.1175  0.3238  0.2883
30183W        W46317   4.915   2.981  10.551 -0.0388  0.2243  0.2659
30184W        W46318  14.239  18.741  11.524  0.0430 -0.1248  0.0015
30185W        W46319   3.009   0.419   3.045 -0.4312 -0.2234  0.3068
30186W        W46320  15.562  10.115   1.949 -0.3062  0.0624  0.0008
30187W        W46321  17.473  14.862  13.851 -0.0442  0.0944 -0.0365
30188W        W46322  10.591  11.564  11.013  0.0832 -0.3355 -0.0837
30189W        W46323   1.187   9.203   2.974  0.1066 -0.0330  0.2731
30190W        W46324  18.679  11.307  11.515  0.0541 -0.2576  0.0984
30191W        W46325  10.181   4.686  13.355 -0.1612 -0.1570  0.4545
30192W        W46326  11.937  11.029   2.773 -0.1095 -0.0163 -0.0400
30193W        W46327  10.214   7.634   3.293  0.1166 -0.1102  0.0310
30194W        W46328  15.089   8.301  14.806  0.2351  0.0736 -0.3361
30195W        W46329   2.470   2.966   1.295  0.1813 -0.2082 -0.2130
30196W        W46330   7.196   9.179  10.408 -0.2478 -0.3417 -0.3281
30197W        W46331  10.374   4.088  11.401  0.2309  0.1252 -0.1524
30198W        W46332   8.987   7.669   3.815  0.1979  0.0013  0.1357
30199W        W46333   3.690   5.100  12.968  0.4068 -0.0578  0.2054
30200W        W46334   6.521  10.384   3.661  0.2384  0.1340  0.1370
30201W        W46335   1.931  14.581   0.983 -0.0772 -0.2935  0.3937
30202W        W46336   5.607   4.207  12.306  0.1061  0.0752 -0.2046
30203W        W46337  10.823   9.141   2.742 -0.4670  0.0583 -0.0219
30204W        W46338   3.716   4.274  12.822  0.0115  0.0918  0.0855
30205W        W46339   2.610   5.975   3.729 -0.2316  0.0593 -0.5073
30206W        W46340   7.243  15.315  14.089  0.2421 -0.4168  0.0453
30207W        W46341   2.422  11.009  13.275 -0.1127 -0.1902 -0.0928
30208W        W46342  17.669  12.751   2.646  0.0393 -0.4953  0.0451
30209W        W46343  10.027  18.533   2.926 -0.3999  0.0698  0.0802
30210W        W46344   0.933  14.264  11.811  0.2207  0.0911 -0.1253
30211W        W46345  18.351   1.686   3.296 -0.4420  0.2294  0.2945
30212W        W46346  13.006   6.892   4.580 -0.0287 -0.2164 -0.1791
30213W        W46347  13.833   3.301   3.109  0.1544 -0.0617 -0.0635
30214W        W46348  15.940   7.031   3.734 -0.1136 -0.3875 -0.0353
30215W        W46349  18.542  14.523  14.524 -0.2768  0.1964  0.0908
30216W        W46350  11.083   5.646   4.975 -0.4372  0.1026 -0.0219
30217W        W46351  14.764  17.544   4.497 -0.1947  0.0461  0.1418
30218W        W46352  10.345  14.774   1.452 -0.1147 -0.0682  0.1253
30219W        W46353   9.794   0.031   4.758  0.2433  0.0032 -0.1323
30220W        W46354   0.433  10.101  12.879  0.1624  0.0491 -0.1479
30221W        W46355   7.841   8.303   0.466  0.1905  0.2900  0.2169
30222W        W46356  16.641  12.102  10.520  0.0261 -0.1818 -0.1416
30223W        W46357   6.376   4.024   0.538 -0.2172  0.2961 -0.0729
30224W        W46358  19.290  16.969  12.846 -0.0883  0.1444  0.0947
30225W        W46359   2.602  10.992   3.035  0.1028 -0.0598  0.0388
30226W        W46360  18.201  13.109   2.412  0.1049  0.1446  0.2925
30227W        W46361  15.901   1.807   4.829  0.0104 -0.3958 -0.1062
30228W        W46362   4.614   6.853  12.772  0.2335  0.3645  0.0928
30229W        W46363  13.073   7.414  11.219 -0.2260  0.0689  0.1537
30230W        W46364  10.556   3.077  13.855  0.0041  0.3787  0.1330
30231W        W46365   0.936   5.277   4.147  0.0680  0.2329 -0.2672
30232W        W46366  14.873   2.478   1.013 -0.1113  0.1854  0.0116
30233W        W46367  12.774  18.456   3.691 -0.0538 -0.5269  0.1494
30234W        W46368  15.313   2.394  13.109  0.2424  0.1736  0.2655
30235W        W46369   0.747   8.512  12.353 -0.3383  0.0893 -0.0910
30236W        W46370   7.234   8.755   3.506 -0.3369  0.2441  0.0299
30237W        W46371  17.495   9.908  14.480 -0.0950  0.0880  0.2256
30238W        W46372  13.633  11.836   1.708  0.2350  0.3635 -0.0866
30239W        W46373   8.260   0.910   2.035 -0.0528 -0.0364  0.3891
30240W        W46374   2.227  16.938  10.278  0.0369  0.0169  0.1329
30241W        W46375   6.696  17.098  13.542 -0.1671 -0.2448 -0.2234
30242W        W46376  14.326  11.087  12.868 -0.2049  0.2735  0.3508
30243W        W46377   6.609  18.171  13.333  0.0376  0.0258 -0.0611
30244W        W46378  11.676   8.220  11.858  0.0344 -0.0167 -0.0148
30245W        W46379  13.269   8.276   4.018 -0.2118  0.3005 -0.4295
30246W        W46380   1.294  10.641  11.666 -0.1137 -0.5278 -0.0845
30247W        W46381  14.832  13.138  10.977 -0.2541 -0.0044  0.1927
30248W        W46382  14.969   0.309   2.822  0.0895 -0.1173 -0.3911
30249W        W46383  11.648   4.724   0.527  0.2538  0.2823  0.2116
30250W        W46384  14.113   7.504  13.607  0.0892  0.0389 -0.1775
30251W        W46385  17.227  10.756   1.371  0.2703  0.2211 -0.2054
30252W        W46386   5.202  15.545   4.647 -0.0012 -0.2826 -0.2766
30253W        W46387   6.150  12.437   3.154  0.1614  0.3340 -0.1689
30254W        W46388   6.735   5.384  10.767  0.0530  0.2740 -0.1775
30255W        W46389  19.032  11.111   5.116  0.2210  0.2230 -0.3036
30256W        W46390  10.015  13.365  13.472 -0.1442 -0.1038 -0.2974
30257W        W46391  11.522  19.128   4.442  0.0394  0.0573  0.0362
30258W        W46392   7.158   4.110  12.370 -0.0046 -0.1087 -0.2497
30259W        W46393  11.452   3.404   1.849  0.1056  0.0053 -0.1354
30260W        W46394  10.147  15.548  11.276 -0.0414 -0.0178 -0.1571
30261W        W46395  13.289  11.463  13.853  0.1882 -0.1634  0.1218
30262W        W46396  12.759   8.510   1.550 -0.3202 -0.2039 -0.0898
30263W        W46397  18.927  12.823   4.308  0.3698  0.0769  0.0511
30264W        W46398  10.221  10.253  13.188  0.0765  0.0295 -0.3702
30265W        W46399   6.338  17.264   3.978 -0.0756  0.0970  0.1925
30266W        W46400  16.680   1.730  12.577  0.0485 -0.1224 -0.2699
30267W        W46401  12.859   4.287  10.626  0.0799  0.3229 -0.0790
30268W        W46402   1.757  12.883   1.921  0.1970  0.1683  0.3332
30269W        W46403   6.085   1.046  14.488 -0.0391 -0.0680 -0.1655
30270W        W46404  17.838   7.360  10.216  0.1443 -0.2128 -0.2240
30271W        W46405   6.658   9.294   4.316 -0.2124 -0.3313 -0.1171
30272W        W46406  15.532  13.837   0.162 -0.0150  0.2504 -0.3295
30273W        W46407  10.263  14.513   4.459 -0.1223 -0.4070 -0.3117
30274W        W46408  16.052   6.557  11.653  0.0729 -0.1165  0.0317
30275W        W46409   7.564  14.501  11.716  0.1160  0.1900  0.3718
30276W        W46410  18.454  16.978  12.221  0.0291  0.4049  0.3060
30277W        W46411  17.980  16.558   5.191  0.0034 -0.0851 -0.0215
30278W        W46412   9.816   9.477   3.298 -0.0416 -0.0711 -0.0577
30279W        W46413  11.364   9.910  14.633 -0.1357  0.1601 -0.1174
30280W        W46414  15.178  18.548   1.950 -0.0529 -0.0104 -0.3192
30281W        W46415   9.248  19.241   6.012 -0.0654 -0.2804 -0.2533
30282W        W46416   2.666  17.687  13.320  0.1078 -0.0822 -0.1791
30283W        W46417   4.091  11.186   1.831  0.3266  0.0772 -0.0812
30284W        W46418   3.587   2.671   3.478  0.2043  0.0983 -0.1065
30285W        W46419  16.800   6.559  12.444 -0.0955  0.1041  0.3333
30286W        W46420   0.563   2.965   1.301 -0.0402  0.1836  0.2713
30287W        W46421   0.852  10.465   2.683  0.0566 -0.1258 -0.2255
30288W        W46422   5.138  16.843   1.313  0.4062  0.1130 -0.1020
30289W        W46423   5.862  11.949  13.489 -0.1692  0.3043 -0.2681
30290W        W46424  14.534  18.385  10.429 -0.1192  0.0705  0.1813
30291W        W46425   2.360   4.745  14.972  0.3137  0.2064  0.0156
30292W        W46426   4.696  16.902  10.622 -0.2531  0.1094  0.0539
30293W        W46427   3.552   3.428  14.260 -0.0835 -0.1039 -0.2513
30294W        W46428  11.633   1.445  12.330  0.0933 -0.1222  0.0208
30295W        W46429   4.673  13.690  12.846  0.0758  0.2410 -0.1724
30296W        W46430   3.119  16.912  13.895 -0.0999  0.0633  0.1892
30297W        W46431  13.941  17.165  13.196  0.0244 -0.0068  0.2084
30298W        W46432  18.586   9.617  10.818  0.1367 -0.0301 -0.1948
30299W        W46433  12.674   9.549  12.120  0.1495  0.3054 -0.1929
30300W        W46434   4.699  12.491   2.817 -0.0601  0.2704 -0.1570
30301W        W46435  13.723  16.316  13.072  0.0301 -0.2536 -0.3045
30302W        W46436  14.170  14.817  10.418 -0.0521 -0.3612 -0.3955
30303W        W46437   5.862  12.741  11.543 -0.3132  0.1618 -0.3031
30304W        W46438  14.828   4.305   1.807 -0.1528 -0.2082 -0.2899
30305W        W46439   5.354   8.928   0.228 -0.1608 -0.0690  0.1324
30306W        W46440   1.978   1.826  14.071 -0.2060 -0.2365  0.3732
30307W        W46441   8.939   7.774  11.729 -0.1387  0.0738  0.0468
30308W        W46442   3.741  14.923   3.385  0.1784  0.0969 -0.3912
30309W        W46443  13.745   3.610  13.216  0.0515 -0.1939  0.0341
30310W        W46444   7.476   4.489  13.003 -0.1337  0.2688 -0.0818
30311W        W46445   7.852  17.378   0.706 -0.0436  0.1540  0.1616
30312W        W46446   5.119   8.744  10.294  0.3483  0.0108 -0.2661
30313W        W46447  12.433   7.834   1.587 -0.0250  0.0481  0.4708
30314W        W46448   8.056   6.621  11.575  0.1256 -0.1418 -0.0782
30315W        W46449  17.901  11.435  10.197  0.1105 -0.0667 -0.3300
30316W        W46450  16.749  11.535   5.497  0.0854  0.3310  0.2275
30317W        W46451  17.245  14.117  11.551  0.0441  0.4354  0.0772
30318W        W46452  18.731   6.429  11.712 -0.2838 -0.3515  0.0300
30319W        W46453  17.152   8.745   0.910  0.2108  0.3171 -0.2300
30320W        W46454  13.967   6.174   2.726  0.0226  0.1707  0.0030
30321W        W46455   2.436  11.458   3.109 -0.0060  0.0565 -0.3500
30322W        W46456   7.604   7.358  13.319  0.0582  0.0304  0.1843
30323W        W46457  11.926  14.227   4.200 -0.2896  0.1007  0.0714
30324W        W46458  17.302   2.918   1.313  0.2033  0.2964  0.0414
30325W        W46459   2.187  10.973  12.114 -0.1153  0.2568 -0.1030
30326W        W46460  11.020   5.482   2.031 -0.0958 -0.1325 -0.1361
30327W        W46461   3.019   2.754  13.708 -0.0019  0.0581  0.6877
30328W        W46462   9.151  11.818   2.728 -0.4395 -0.2373  0.2140
30329W        W46463  12.204  12.616  12.409  0.0235  0.1998 -0.3486
30330W        W46464   1.704  10.748  10.287 -0.0947  0.2193  0.1501
30331W        W46465   6.715   9.296   5.430 -0.2211  0.0871 -0.0882
30332W        W46466  12.392  16.669   2.497 -0.0470  0.3831 -0.1716
30333W        W46467   4.372  13.200   1.963  0.2391 -0.2851 -0.1175
30334W        W46468   8.561  11.493  13.558  0.1443 -0.1178 -0.3818
30335W        W46469   6.555   7.375  11.761  0.0125  0.0279  0.2044
30336W        W46470  13.841  18.455   1.685 -0.0496  0.0137 -0.1378
30337W        W46471   0.933   4.169  12.534  0.1155  0.1756 -0.0618
30338W        W46472  17.598   4.868  11.059  0.2482 -0.0482 -0.1644
30339W        W46473   4.417  10.036   1.162  0.0383  0.1811  0.2083
30340W        W46474   4.328   5.587  10.344 -0.2154  0.3069 -0.0327
30341W        W46475   1.566   6.037   1.325 -0.0761 -0.0256 -0.0398
30342W        W46476   4.531  14.569   3.888 -0.3709  0.1523  0.0635
30343W        W46477  17.844   2.008  12.152 -0.0924  0.1128  0.0313
30344W        W46478   4.106   6.204   0.798  0.2498 -0.0232 -0.3333
30345W        W46479   2.762   8.125  12.651  0.0731 -0.2741  0.0480
30346W        W46480   1.819   8.724  12.707 -0.2633 -0.0203  0.1314
30347W        W46481  10.633  18.758   4.119 -0.0830  0.1258  0.1635
30348W        W46482   7.182  15.078  10.504 -0.4035 -0.2772 -0.3886
30349W        W46483   2.942   4.198   2.312  0.1975 -0.4228  0.0841
30350W        W46484   1.941  10.181  11.223  0.0316 -0.0571  0.2179
30351W        W46485   0.104  15.406   4.769  0.1684  0.0903 -0.1542
30352W        W46486  18.898   9.032  11.521 -0.2394 -0.1252  0.1855
30353W        W46487  17.331  19.187  14.610  0.1080 -0.0859  0.3720
30354W        W46488  15.806   8.646  10.611 -0.0708 -0.0642 -0.0320
30355W        W46489  19.289  11.692  14.280 -0.0248 -0.0378  0.1138
30356W        W46490   2.121  14.577  14.734 -0.1795 -0.1193  0.0264
30357W        W46491  10.829   3.064  14.262 -0.1684 -0.0980  0.1816
30358W        W46492  14.000  13.705   3.950 -0.0170  0.0400  0.0649
30359W        W46493   6.706  14.149   2.172  0.1999  0.0272  0.1344
30360W        W46494   2.449   7.181   4.008 -0.3273 -0.0920 -0.0521
30361W        W46495  19.167  10.016  10.564 -0.0499  0.1480 -0.1069
30362W        W46496   7.596  13.737   1.096 -0.1151 -0.3061  0.2322
30363W        W46497   3.408   3.548  12.539 -0.0418 -0.2039 -0.1605
30364W        W46498  14.490   3.385  12.199 -0.1370 -0.0268  0.3579
30365W        W46499  11.121   0.543   4.551  0.3538  0.0768 -0.2809
30366W        W46500   4.538  18.633   0.381 -0.5197  0.2220 -0.1153
30367W        W46501   6.225  11.529   4.726  0.3441  0.0133 -0.1568
30368W        W46502  16.503  19.300   2.551  0.2195  0.1953  0.2975
30369W        W46503  12.371   5.357   9.813  0.3964 -0.0831  0.2372
30370W        W46504  17.212  16.071   3.842 -0.0584 -0.2568 -0.0354
30371W        W46505  17.201   5.816   4.001 -0.3150 -0.2546 -0.1475
30372W        W46506   5.819  10.043  11.997 -0.0543  0.5636 -0.0809
30373W        W46507   4.180  12.314  13.004 -0.0095  0.0128 -0.0201
30374W        W46508   8.235  13.292   3.656  0.1152 -0.1209  0.1010
30375W        W46509  11.240  16.213  14.701 -0.0483 -0.0239 -0.0204
30376W        W46510   3.579  16.302   1.695 -0.1523  0.1081  0.5122
30377W        W46511   4.335   3.136  13.596 -0.0042  0.2176  0.0460
30378W        W46512  17.588  15.480   1.851 -0.0786 -0.0102 -0.3455
30379W        W46513  15.682  12.368   5.375  0.1086 -0.0679  0.1636
30380W        W46514   6.052   9.453   0.250 -0.4491 -0.1471 -0.0807
30381W        W46515   9.479  12.646   3.919 -0.2256 -0.1684  0.1510
30382W        W46516   5.589   6.194  14.235  0.2760 -0.0924 -0.1614
30383W        W46517  15.053  10.102   5.227  0.4542 -0.1407 -0.1225
30384W        W46518  10.927   4.250   1.702 -0.0448 -0.1103 -0.0281
30385W        W46519  19.313  16.566  12.332 -0.0422 -0.5808 -0.2893
30386W        W46520  18.368   7.769  12.734  0.2749  0.1871 -0.1042
30387W        W46521  16.144   4.542  13.331  0.1294 -0.2259 -0.0052
30388W        W46522  11.742   1.153  10.139  0.0481  0.0833 -0.0677
30389W        W46523   4.968   9.672   4.099  0.4169 -0.1389  0.2779
30390W        W46524  11.488   1.175   1.001 -0.1623  0.0362 -0.1829
30391W        W46525  11.170  18.567   1.089 -0.1581  0.1497  0.0558
30392W        W46526  11.870  10.749  12.075  0.0542 -0.2667 -0.1145
30393W        W46527  15.249  10.113   3.270  0.0018 -0.0745  0.2496
30394W        W46528   7.558  10.393   2.973  0.0563  0.1924  0.1248
30395W        W46529   8.889   3.654   2.481 -0.1459 -0.1219  0.1567
30396W        W46530   0.734  17.842  10.450  0.0335 -0.0422  0.1370
30397W        W46531   8.397  18.296  12.462 -0.4463  0.1318 -0.0834
30398W        W46532  18.679   8.349  10.080 -0.1173 -0.0561 -0.1054
30399W        W46533   3.748   2.080   9.482 -0.3294  0.1846 -0.2218
30400W        W46534   9.853  18.417  11.028 -0.4429  0.1768  0.0918
30401W        W46535  16.208   5.909   5.129  0.0915  0.1261  0.0703
30402W        W46536  18.801   2.673  11.197 -0.0429  0.0561 -0.0264
30403W        W46537   9.829   9.516  12.668 -0.0849  0.1676 -0.2443
30404W        W46538   3.804   7.727  13.498  0.1294 -0.0451 -0.1341
30405W        W46539  14.087  17.492  12.827 -0.0774 -0.1011  0.1094
30406W        W46540   0.679   7.620   1.554  0.5036  0.0420  0.3634
30407W        W46541  17.975  18.827   0.022 -0.0171 -0.0470  0.0872
30408W        W46542   1.534   2.663   0.105  0.1584  0.1078 -0.3203
30409W        W46543   6.835   1.970  12.403  0.1419 -0.0761 -0.2180
30410W        W46544   5.712   8.372   3.851  0.0299 -0.0989 -0.0357
30411W        W46545  12.512   3.051  12.089 -0.4653  0.0287 -0.2379
30412W        W46546   0.037  10.360  14.083  0.0934 -0.0118  0.2104
30413W        W46547  13.027   8.790   2.762  0.4695  0.0074 -0.0953
30414W        W46548  12.851   7.803  13.853  0.0039 -0.0401 -0.1758
30415W        W46549   9.202  11.812  13.922 -0.1036  0.0810 -0.2149
30416W        W46550  17.110   9.138   1.219  0.2328  0.3229 -0.0952
30417W        W46551   8.009  18.018  11.522  0.2943  0.0370  0.4765
30418W        W46552   6.075   6.299   0.865  0.1553 -0.0229 -0.2568
30419W        W46553   1.216  11.939  11.738 -0.1647  0.1631 -0.0161
30420W        W46554  17.809  11.021   0.556  0.3342  0.0139  0.0246
30421W        W46555   8.570   7.554   4.051 -0.0181 -0.0499 -0.0584
30422W        W46556   8.606   3.639   5.855  0.1751  0.4447  0.4491
30423W        W46557   6.486  10.776  13.939 -0.3070 -0.0160 -0.1340
30424W        W46558  13.023   2.977  13.108  0.2591  0.2436  0.1040
30425W        W46559   5.582  15.819  13.088  0.3360  0.0805  0.1152
30426W        W46560  16.314   6.293  12.979  0.1729 -0.3021 -0.3520
30427W        W46561   1.039  12.042   4.128 -0.1471  0.2615  0.1538
30428W        W46562  12.286   1.153   0.892 -0.2675 -0.0433  0.1354
30429W        W46563   4.888  15.211  10.748  0.1504 -0.2364  0.0476
30430W        W46564   3.407  14.091   4.252  0.0538  0.3237 -0.2362
30431W        W46565   5.988   1.729   3.362 -0.3442 -0.0336 -0.1570
30432W        W46566   7.538  13.984  11.310 -0.3631 -0.0352  0.1943
30433W        W46567   7.742   1.794   0.804 -0.3400  0.3041 -0.0550
30434W        W46568   9.076   3.036  11.109  0.2291 -0.1477 -0.2256
30435W        W46569   0.063   7.665  12.943 -0.1631  0.4697  0.2148
30436W        W46570   5.735   6.648  14.343  0.2846  0.0051 -0.3007
30437W        W46571  10.598  16.693   4.749 -0.1511  0.2546  0.1829
30438W        W46572   9.438   7.859   4.255  0.1735  0.1311  0.1064
30439W        W46573   3.839   0.838  12.984 -0.0191  0.0934  0.0450
30440W        W46574  14.429  11.602   4.256  0.2547  0.1360 -0.0558
30441W        W46575  14.109  18.186   2.195 -0.0094 -0.2848 -0.1835
30442W        W46576  10.883   4.106  11.239 -0.2464 -0.1212 -0.1507
30443W        W46577   2.683   8.632   4.261  0.1844  0.1033 -0.1010
30444W        W46578   0.561   4.201  11.610  0.1072 -0.0045  0.1389
30445W        W46579  16.467  16.302  11.263 -0.3317  0.0260  0.2188
30446W        W46580   8.861   0.975  10.775 -0.1408  0.1209  0.0167
30447W        W46581   6.089   1.293   9.707  0.2491 -0.2075 -0.0249
30448W        W46582   1.302   8.667   3.165  0.0706  0.3607 -0.3437
30449W        W46583  14.706   2.554   3.745 -0.1378  0.1160  0.1569
30450W        W46584   6.313  11.275  13.857 -0.1545 -0.0225 -0.0172
30451W        W46585  15.174   4.059   1.187 -0.1766  0.4064  0.3521
30452W        W46586   8.801  18.252  13.819 -0.0818 -0.2542  0.0168
30453W        W46587   5.438   1.890  11.277  0.0785 -0.0837 -0.2529
30454W        W46588  17.564   3.081  14.797 -0.0449 -0.1939  0.0426
30455W        W46589  10.504   6.114  14.509  0.0900 -0.1188  0.0500
30456W        W46590   3.424   0.971  14.754  0.0261  0.1682 -0.5712
30457W        W46591   6.888   8.115  13.619  0.0729  0.1250  0.2956
30458W        W46592  16.190   6.134  11.248 -0.2845  0.0271  0.0782
30459W        W46593   6.130   8.142  12.216 -0.3213  0.1977  0.2345
30460W        W46594  13.581   4.591   3.714  0.0607 -0.0134 -0.3137
30461W        W46595   5.269  18.617  11.824  0.0148 -0.1078 -0.2683
30462W        W46596   1.896   0.681  10.824 -0.3085 -0.1875 -0.0746
30463W        W46597   9.300   9.832  11.762  0.3605  0.2862 -0.2202
30464W        W46598  13.561  14.360  11.944  0.0195 -0.1152 -0.3470
30465W        W46599  16.790  11.756   1.965  0.2819  0.0551  0.3633
30466W        W46600   4.442   6.929   1.238 -0.0624 -0.0828 -0.0859
30467W        W46601   8.906  10.376   4.292  0.2305 -0.0014  0.0683
30468W        W46602   9.731  17.269   3.845  0.0337  0.0540  0.1854
30469W        W46603  10.368  10.984  10.346  0.1503  0.0038 -0.1452
30470W        W46604   1.803  13.010   5.854  0.0206 -0.0099 -0.2352
30471W        W46605   4.108   5.484   4.178  0.2816 -0.0385  0.1500
30472W        W46606   1.134  10.953   0.553  0.0532 -0.0080 -0.0826
30473W        W46607   1.350   4.200   2.190  0.2422  0.0304  0.0936
30474W        W46608   2.661   6.608   9.788  0.1487 -0.4378  0.0898
30475W        W46609  12.778   4.368   1.810 -0.1603 -0.2077 -0.1033
30476W        W46610   7.886  18.390  14.691  0.3239 -0.1557  0.1430
30477W        W46611  10.043  18.239   1.886 -0.1319  0.1457 -0.1783
30478W        W46612  13.190   9.590  14.790 -0.0534  0.0465  0.0743
30479W        W46613   9.567  16.452  13.090  0.1553 -0.3176  0.0937
30480W        W46614  17.777  18.473  11.355  0.0979  0.0407  0.2056
30481W        W46615  15.731  12.723  13.707 -0.3972  0.0556  0.0213
30482W        W46616  17.075   3.643  10.173  0.3388 -0.0236 -0.2442
30483W        W46617   6.910   8.381   3.633 -0.1608  0.1330 -0.1321
30484W        W46618  15.654   0.417  13.467  0.2526 -0.1744  0.0250
30485W        W46619  12.002   1.377   4.071  0.0485 -0.0295  0.1209
30486W        W46620   8.777   3.858  13.146  0.3716 -0.1524  0.0095
30487W        W46621  17.702  13.192  10.453 -0.1177  0.0341 -0.1373
30488W        W46622   6.019   9.324   3.890  0.1642 -0.1496  0.6210
30489W        W46623  10.371   4.174  14.894 -0.0964  0.2377 -0.1545
30490W        W46624   0.836  12.867   0.572 -0.0497 -0.1121  0.1593
30491W        W46625   1.670  12.930  11.488  0.2311 -0.1418  0.3322
30492W        W46626   0.806   4.936  12.261  0.2485  0.0927  0.3016
30493W        W46627   6.613  13.131  12.318  0.3338 -0.0929 -0.2016
30494W        W46628   5.161  12.666  12.760 -0.0473  0.1262 -0.1055
30495W        W46629  17.543   9.493  10.724  0.0826  0.3416  0.0948
30496W        W46630   6.634   1.475  12.470  0.1354 -0.0054  0.3625
30497W        W46631  16.152   3.510  12.946 -0.4451  0.2077 -0.0641
30498W        W46632   8.442   0.213   3.256 -0.0992  0.1449  0.0104
30499W        W46633   7.143   5.032  12.257 -0.0630  0.0895 -0.0576
30500W        W46634   5.205   5.887  14.147  0.1420  0.1581 -0.1560
30501W        W46635   9.882  14.544   0.296 -0.2577 -0.1304 -0.1233
30502W        W46636  11.059  11.580   0.646 -0.0574  0.0411  0.0973
30503W        W46637   7.642   5.077   4.888 -0.1396 -0.0652  0.1708
30504W        W46638   2.761   7.381   4.806  0.0869 -0.0446 -0.0445
30505W        W46639  14.557  14.518  14.815  0.0802 -0.1119  0.3910
30506W        W46640  18.311  12.150  13.524  0.6221  0.0429 -0.0146
30507W        W46641  10.237   7.302  12.096 -0.1039  0.0259 -0.1586
30508W        W46642   2.518   6.357   1.028  0.1602  0.0089  0.0751
30509W        W46643  12.741  14.102  12.403  0.0563  0.0570 -0.2770
30510W        W46644  14.293   4.568  12.072  0.1787  0.0805 -0.0780
30511W        W46645  14.901   8.567   0.699 -0.2483 -0.0357 -0.2771
30512W        W46646   4.843   1.882   4.192 -0.0458 -0.0706  0.1780
30513W        W46647   0.679   2.980   2.083 -0.1433 -0.2126  0.3779
30514W        W46648   0.055   3.923   9.421 -0.1785  0.2126 -0.0354
30515W        W46649   1.174  14.926   1.350  0.3031  0.2317 -0.4177
30516W        W46650   0.659   3.788  11.229  0.0684 -0.1677  0.2737
30517W        W46651  17.393  14.955  10.756 -0.1355  0.1178 -0.0883
30518W        W46652   6.494   0.949  10.943  0.0020  0.1387 -0.0864
30519W        W46653   7.129   6.048   4.835  0.1477  0.0462 -0.1899
30520W        W46654  15.692   9.602   2.586  0.0897 -0.1077 -0.3161
30521W        W46655  16.429   5.450  14.311  0.1040  0.1465  0.0024
30522W        W46656   9.898   3.925  13.672  0.2568  0.0526 -0.0852
30523W        W46657  15.192  19.061  13.850  0.1040  0.0486 -0.0843
30524W        W46658   3.081   5.887  12.402  0.0296 -0.3620  0.0405
30525W        W46659   0.674   8.549  12.834  0.3108 -0.3196 -0.1308
30526W        W46660   7.346   0.553  13.619 -0.0240 -0.0727 -0.0783
30527W        W46661  15.454  15.091  12.020 -0.3445  0.2797 -0.0762
30528W        W46662  13.141   3.309  13.954  0.2487  0.0127 -0.0015
30529W        W46663   4.563  18.513  11.413 -0.2180 -0.1355 -0.2672
30530W        W46664  13.692   1.267  12.968 -0.0734  0.1940  0.1548
30531W        W46665  10.000  12.172   1.131  0.0899  0.0782 -0.0719
30532W        W46666  12.038   6.319  13.077  0.4905  0.0828 -0.1995
30533W        W46667   3.571   2.627  13.885 -0.1764 -0.0446 -0.2790
30534W        W46668  17.966  13.970   2.119 -0.0690  0.1517  0.0739
30535W        W46669  18.782  15.727  10.599  0.0100  0.2813  0.0186
30536W        W46670   3.425  16.647  12.269 -0.2696 -0.0418  0.1757
30537W        W46671  16.913   8.403   3.027 -0.0463 -0.1353  0.1452
30538W        W46672  15.713  10.831  13.834  0.0608  0.1158  0.0148
30539W        W46673   5.395   4.364   0.974  0.2047  0.1135  0.1219
30540W        W46674  17.725   4.479   1.462  0.0542 -0.2841 -0.1632
30541W        W46675  18.996   2.094  10.581 -0.1811 -0.1384  0.1110
30542W        W46676   2.108  18.614  13.567  0.0768 -0.4645 -0.2123
30543W        W46677  16.768  13.645   0.771 -0.1084 -0.3848 -0.1871
30544W        W46678   8.383   8.837   2.416 -0.3672  0.0501 -0.0612
30545W        W46679  16.024  13.339   0.307 -0.2464 -0.2149 -0.0829
30546W        W46680   1.797   7.618  13.591 -0.0901  0.0167 -0.1946
30547W        W46681  14.385  19.215   2.013 -0.2552  0.0390 -0.2083
30548W        W46682  16.764  12.351  14.487  0.2165  0.0248 -0.1875
30549W        W46683   4.189   8.506   0.731 -0.0873 -0.1532 -0.1291
30550W        W46684  16.458  12.929   5.631  0.0757 -0.2877  0.0743
30551W        W46685   3.670  16.762  13.110 -0.0732 -0.2191 -0.2045
30552W        W46686  16.814   7.447  11.604  0.0900  0.3366 -0.1570
30553W        W46687  10.666  10.844  13.826  0.0462 -0.1272  0.0306
30554W        W46688   0.112   8.173  11.467 -0.1186 -0.0467 -0.2085
30555W        W46689  17.302  11.860   9.506 -0.0952 -0.0028  0.0469
30556W        W46690  16.984   4.764   4.262  0.0096 -0.0237  0.0803
30557W        W46691  13.150  17.075   0.195 -0.0482 -0.0579  0.1387
30558W        W46692   4.503   3.683  11.346  0.2921  0.0112 -0.0232
30559W        W46693  12.342   1.752   4.123 -0.0608 -0.1826 -0.2611
30560W        W46694  13.927  10.970  11.933 -0.4573 -0.0487 -0.1132
30561W        W46695   6.734  17.483   0.152  0.3320 -0.0684  0.0672
30562W        W46696   2.617   5.688   3.250 -0.1019  0.1349 -0.0986
30563W        W46697  16.995  18.505   2.305 -0.6063  0.4069 -0.3316
30564W        W46698  13.938   6.537  12.583  0.2179 -0.0582 -0.1227
30565W        W46699   2.802   2.264   3.362  0.1724 -0.0184  0.0826
30566W        W46700   4.508   0.366   3.779 -0.0020 -0.0811 -0.2459
30567W        W46701  16.111   9.273  12.601 -0.1389  0.1343 -0.3364
30568W        W46702   2.108   4.895  10.131 -0.1718 -0.0120 -0.0248
30569W        W46703   1.284   9.361  11.252 -0.1091 -0.1435  0.4428
30570W        W46704   7.918  11.578  11.406  0.1822  0.0314  0.3751
30571W        W46705   1.744   7.162  10.572  0.1506  0.0491  0.1114
30572W        W46706   3.363   4.671  10.408 -0.0816 -0.0493  0.1677
30573W        W46707   7.868   5.018   3.032 -0.0702 -0.2896 -0.1913
30574W        W46708  15.440  11.232   2.655  0.2203 -0.0182 -0.0584
30575W        W46709  14.448  19.024  12.254  0.0486  0.2137 -0.3554
30576W        W46710   9.243   2.182   4.080 -0.2188  0.0215  0.0551
30577W        W46711  10.834   8.594  11.494  0.2164 -0.3422 -0.2368
30578W        W46712  17.925   7.829  10.172 -0.0141  0.2538  0.0421
30579W        W46713   3.075  10.564  14.700 -0.2180 -0.2916  0.3179
30580W        W46714   7.911  18.957   0.912 -0.1408  0.0114 -0.0463
30581W        W46715   7.228  17.589   0.170 -0.0800 -0.0546  0.1738
30582W        W46716  13.128   0.130   4.998 -0.0593  0.1966 -0.1531
30583W        W46717  13.594  11.551   4.741  0.2041  0.0203  0.1608
30584W        W46718   9.006   5.521   3.523  0.0067 -0.0635 -0.1847
30585W        W46719   8.482   4.503   5.136 -0.1939  0.2871 -0.2833
30586W        W46720   1.983  18.237  13.925 -0.1614  0.2099 -0.1851
30587W        W46721  12.613  11.518   3.891  0.1032 -0.5884 -0.0940
30588W        W46722   1.364  16.363  12.597  0.1029 -0.3345  0.0070
30589W        W46723  14.893   4.290  14.921 -0.2931 -0.4147 -0.1296
30590W        W46724   5.322   3.435   2.710 -0.3259 -0.0458  0.1694
30591W        W46725  15.502   2.469  12.201 -0.1873  0.1103 -0.1396
30592W        W46726  13.382  11.144   3.485 -0.1935  0.3596  0.1444
30593W        W46727  19.237   7.687   3.656 -0.2333  0.0880  0.0085
30594W        W46728   7.975   9.926  13.634 -0.1500  0.0014 -0.1961
30595W        W46729   4.698  16.418  11.570 -0.0909 -0.1834  0.0869
30596W        W46730  16.541   5.046  13.476  0.0324 -0.4348  0.0829
30597W        W46731  17.488   6.655   2.195  0.0043 -0.2016  0.3633
30598W        W46732  13.052   3.728   3.773  0.0861 -0.0418 -0.0876
30599W        W46733  15.503   6.966  13.511 -0.1763  0.1182  0.2462
30600W        W46734   0.462   7.495   0.130 -0.3064  0.1821 -0.1876
30601W        W46735  12.315  12.106   0.820  0.3184  0.0882 -0.0387
30602W        W46736   3.384  18.327  12.948 -0.2367  0.0765 -0.1514
30603W        W46737  12.484   4.220  12.321  0.0079  0.0733  0.0843
30604W        W46738  14.745   5.875  14.263  0.0840  0.0215  0.1934
30605W        W46739   7.708   1.819   0.251  0.0372  0.1343 -0.0687
30606W        W46740  13.000   8.171  12.866  0.2847 -0.0807 -0.3222
30607W        W46741   3.770  12.988   3.636  0.0551  0.1207  0.1670
30608W        W46742   3.787  13.134  11.657  0.0203 -0.1306  0.1005
30609W        W46743  15.848   7.667   0.616 -0.1025 -0.0014  0.0131
30610W        W46744   2.325   1.337   3.489  0.0029 -0.0649  0.1868
30611W        W46745  17.328  10.267   0.675 -0.0138 -0.0341  0.1884
30612W        W46746   6.287   0.643  11.265  0.0329 -0.2937 -0.0085
30613W        W46747  10.540  17.997   0.687  0.1911 -0.2394 -0.0537
30614W        W46748   2.900  15.017  11.950 -0.1997  0.2599 -0.1301
30615W        W46749   7.974  11.479  13.842 -0.2267  0.0741 -0.2126
30616W        W46750   7.034   1.633   2.348 -0.0513 -0.0119  0.1013
30617W        W46751  13.500  15.656   1.763  0.2926  0.0667 -0.2063
30618W        W46752   1.844   0.329   0.627 -0.0749 -0.0062 -0.0442
30619W        W46753  13.808   9.297  11.087 -0.1255 -0.0686  0.1974
30620W        W46754  17.600  10.452  11.426 -0.3134  0.0084  0.0107
30621W        W46755   0.626  15.609   3.966  0.1703 -0.2161 -0.0925
30622W        W46756   4.417  14.033  10.699  0.0079 -0.1237  0.0150
30623W        W46757   7.030  10.957  13.157 -0.1422  0.4178  0.4338
30624W        W46758  11.397   4.242  12.653  0.0923 -0.0097  0.1218
30625W        W46759   0.136  15.556   5.278 -0.0977  0.0939  0.1492
30626W        W46760  14.379   2.157   2.296  0.0707 -0.0420 -0.0493
30627W        W46761  11.010   6.253  10.731 -0.2446 -0.2192 -0.2131
30628W        W46762   3.508  11.759  12.669  0.0410  0.1448  0.0227
30629W        W46763   6.481   9.139  10.984 -0.0466 -0.0025 -0.0434
30630W        W46764  14.856   6.453  11.651  0.0380 -0.0347 -0.1397
30631W        W46765   9.095   9.284   0.938  0.0749 -0.0678  0.0370
30632W        W46766   1.255   2.259   1.053 -0.0740  0.2412 -0.1333
30633W        W46767  14.384  16.047   3.856  0.0140 -0.3000 -0.0414
30634W        W46768   7.517   7.835  10.230  0.2578 -0.1485  0.1716
30635W        W46769  10.201   6.026   2.351 -0.0384  0.1025 -0.0920
30636W        W46770  16.769  12.094  12.655 -0.2764 -0.0593  0.2553
30637W        W46771   7.288   0.076   5.729  0.0930 -0.1591 -0.1837
30638W        W46772   6.499   9.623  11.599  0.2352 -0.3998  0.2662
30639W        W46773   7.483   0.132   0.179 -0.1252  0.1055  0.2995
30640W        W46774  11.328  13.272   3.343 -0.0107 -0.0996  0.4601
30641W        W46775  14.773   9.766   4.955 -0.1011 -0.1786  0.0723
30642W        W46776   0.336   2.671  12.018  0.3433  0.2574  0.1843
30643W        W46777   5.952  14.445   5.832  0.4340  0.0030 -0.1697
30644W        W46778  16.507  19.050   0.017 -0.0593  0.0000  0.3154
30645W        W46779  10.645   7.957   3.516  0.0223  0.0323  0.3087
30646W        W46780   6.758  12.794   2.425  0.0612 -0.2950  0.3339
30647W        W46781  15.075  13.285   4.634  0.2912  0.1636 -0.1911
30648W        W46782  14.131  18.728  12.037 -0.1414  0.0318 -0.1696
30649W        W46783   4.641   7.069   2.234 -0.0862 -0.1492 -0.1440
30650W        W46784   9.864  18.076   2.563  0.1601 -0.0056  0.1504
30651W        W46785  13.052  13.029  10.771  0.1907  0.5232  0.2038
30652W        W46786   4.973  11.603  12.737 -0.2103 -0.3414  0.1542
30653W        W46787  17.690   9.641   3.730  0.2853  0.3045  0.0717
30654W        W46788  10.214   6.581   0.248  0.2007  0.0898  0.1044
30655W        W46789  19.001   4.249   2.033 -0.0275 -0.1906 -0.1038
30656W        W46790  17.737   6.858   2.540  0.1961  0.3223  0.1728
30657W        W46791   9.112   5.847   0.857 -0.0540  0.1018  0.3229
30658W        W46792  10.027   2.712   5.201 -0.1275  0.0932  0.0214
30659W        W46793   0.104   1.248   1.188 -0.0609 -0.4197 -0.2709
30660W        W46794   9.296  14.707   9.651 -0.0630 -0.1325  0.0829
30661W        W46795  18.884   4.519   1.072  0.0659  0.3061 -0.3272
30662W        W46796   1.935  16.748   3.782 -0.3422  0.0128 -0.1871
30663W        W46797   5.811  14.190   4.817 -0.3356 -0.2423  0.0181
30664W        W46798   8.917   0.419   3.378  0.0377 -0.0056 -0.2424
30665W        W46799   4.727   4.114   2.150 -0.0491  0.2256  0.1436
30666W        W46800   8.775  13.450   4.377  0.0634  0.0265  0.1819
30667W        W46801   0.785  12.629   1.028 -0.1161  0.0618  0.0443
30668W        W46802  10.240   9.560   4.113 -0.0352 -0.1529 -0.0610
30669W        W46803   8.296   1.557   3.535  0.0448 -0.0070  0.0410
30670W        W46804  17.917   0.197   4.426 -0.2075 -0.3186  0.1648
30671W        W46805   1.970  18.902  13.968 -0.0457 -0.3617  0.2282
30672W        W46806   3.082   5.778  11.096 -0.0229  0.1211  0.0793
30673W        W46807  14.229   3.429  13.720  0.0503  0.0518  0.2817
30674W        W46808   9.247  18.343   9.756 -0.3569  0.2226  0.1430
30675W        W46809  14.409   5.822   3.252  0.1522 -0.0092 -0.0793
30676W        W46810   0.660  17.190   0.948  0.1196 -0.2214  0.1268
30677W        W46811   0.485  19.312   1.781  0.2076  0.1045 -0.1342
30678W        W46812  17.822  18.894   0.561  0.0119  0.2531 -0.1340
30679W        W46813  16.578   0.199   1.625  0.2212  0.0065 -0.1253
30680W        W46814   7.108  11.885   2.720 -0.0787  0.2377 -0.0335
30681W        W46815  16.334  17.055  14.048  0.3229  0.2641 -0.2556
30682W        W46816   6.967   4.364  11.474  0.3316 -0.1620 -0.0857
30683W        W46817  15.810  10.016   2.376  0.1958 -0.0207 -0.2982
30684W        W46818  15.366  15.777  12.211 -0.1176 -0.0212  0.0261
30685W        W46819   5.502  14.469  12.424 -0.1782 -0.0661 -0.1743
30686W        W46820  14.091   7.753   3.866 -0.3590 -0.2373 -0.2809
30687W        W46821  13.352   8.485  13.390 -0.0595 -0.1052  0.2554
30688W        W46822   6.537  19.091   2.989 -0.4254  0.0415  0.0115
30689W        W46823  11.335  11.788  12.983 -0.4988  0.1976  0.0327
30690W        W46824  18.193  11.859  10.854  0.2617 -0.2203 -0.1690
30691W        W46825  18.678   0.636  14.665  0.0987 -0.1076  0.0330
30692W        W46826  11.360  13.257  10.151 -0.2776  0.0391  0.1799
30693W        W46827  11.484   4.324   0.111 -0.0926  0.0637 -0.0449
30694W        W46828  17.230   4.443  13.375  0.0188 -0.0987  0.0234
30695W        W46829  17.882  12.712   4.203 -0.2548 -0.0397 -0.0544
30696W        W46830   8.661   2.527  14.219  0.2675 -0.0119 -0.1604
30697W        W46831   2.371   3.316  10.139  0.0787  0.1797 -0.0382
30698W        W46832   8.337   6.773   1.223  0.0758 -0.1052 -0.0517
30699W        W46833  11.240  15.706   2.597 -0.0246 -0.4516 -0.1660
30700W        W46834  10.085   3.417  13.666  0.0167 -0.2263 -0.0271
30701W        W46835   6.849   4.053  10.217  0.0295  0.1680  0.3875
30702W        W46836   6.303  13.988  13.022  0.1073 -0.0798  0.1514
30703W        W46837   1.897   2.844   0.426  0.0613  0.0290 -0.0648
30704W        W46838  16.732   9.159  11.256  0.0733 -0.3122  0.1262
30705W        W46839   6.856   8.688  12.390  0.0428  0.2083  0.1544
30706W        W46840   4.149  17.937  14.584 -0.0246 -0.0493  0.2030
30707W        W46841   9.556   8.861  10.141  0.2540 -0.0845 -0.0400
30708W        W46842  11.537  13.391  14.996  0.2158 -0.0691  0.1313
30709W        W46843  15.494  16.503  11.398 -0.1029  0.0139 -0.2157
30710W        W46844   6.434  18.071  10.861 -0.0487 -0.1265  0.0417
30711W        W46845   1.150   0.049   3.070  0.0814  0.2105 -0.1713
30712W        W46846   7.341  17.055   2.091 -0.0493 -0.2462 -0.1616
30713W        W46847   9.009  14.440  10.017  0.4388  0.1373  0.1444
30714W        W46848   9.579  11.371  10.480 -0.2403 -0.0966 -0.0501
30715W        W46849  14.595   6.808  12.486 -0.2096 -0.1872 -0.0939
30716W        W46850  16.473  10.756  10.698 -0.1257 -0.0600 -0.0403
30717W        W46851  13.005   3.080   1.400 -0.2839 -0.2502 -0.0415
30718W        W46852  18.763   2.550   3.549 -0.0389 -0.0823  0.2010
30719W        W46853  14.647  16.113  12.104  0.0357 -0.0931  0.2923
30720W        W46854   4.392  12.436  10.760 -0.0377  0.0366 -0.0117
30721W        W46855  18.996   0.515   1.435 -0.0398  0.0653 -0.1418
30722W        W46856  19.334  19.106   0.546  0.0190 -0.0171  0.3326
30723W        W46857  18.290   3.437   0.032 -0.2232  0.0934  0.0625
30724W        W46858  11.713  14.685  10.621  0.0446 -0.3110  0.3502
30725W        W46859   9.634   5.425  11.923  0.3211  0.3047 -0.0916
30726W        W46860   0.821   9.173   0.450 -0.2569  0.2806 -0.2414
30727W        W46861   6.448   4.715  12.158 -0.1721 -0.0160 -0.3408
30728W        W46862  15.567   8.689  12.831  0.0052  0.1895  0.1595
30729W        W46863   0.222   3.699   3.980 -0.2169  0.1709  0.3781
30730W        W46864   5.890  10.877   3.638  0.2313  0.0471 -0.2526
30731W        W46865   2.389  18.203  12.806  0.0185 -0.2977 -0.2604
30732W        W46866  15.325   3.726   2.109 -0.2374  0.0261 -0.0673
30733W        W46867   9.761   3.789   1.206  0.0211 -0.1455 -0.1529
30734W        W46868   9.022   0.206  14.531  0.2383 -0.0405 -0.1882
30735W        W46869   9.868  14.470   2.049  0.3852 -0.1265  0.2813
30736W        W46870   2.109   1.085   2.407 -0.1418  0.1515  0.5063
30737W        W46871  19.307   8.020   2.418 -0.0129 -0.2878 -0.0638
30738W        W46872  14.139  10.096   3.842  0.0198  0.0684  0.4545
30739W        W46873  11.651   0.465   4.997 -0.2325  0.1876  0.2849
30740W        W46874  13.840  13.778  12.438  0.0237 -0.0149  0.1506
30741W        W46875  16.469   6.993   3.570 -0.0693  0.1399  0.4325
30742W        W46876   2.588  17.580  14.389 -0.2943 -0.0506  0.2284
30743W        W46877   4.410   7.637  10.465 -0.0316  0.1019  0.1617
30744W        W46878   7.834  18.385  11.816 -0.2957  0.1362 -0.0561
30745W        W46879  18.837   0.101  10.080  0.1585  0.2021  0.2075
30746W        W46880   2.670   3.725  10.164 -0.1104  0.0684 -0.3458
30747W        W46881  14.224  11.912   0.827 -0.0081 -0.1708  0.1059
30748W        W46882   0.880   5.548  10.771 -0.4610  0.0208 -0.1276
30749W        W46883  15.291   0.287   4.323 -0.0067 -0.0367 -0.3231
30750W        W46884   1.561  13.402   3.319 -0.2802 -0.1711  0.1285
30751W        W46885  11.510  16.400  11.591 -0.2696  0.1449 -0.0640
30752W        W46886  11.944  13.971  10.188 -0.1545 -0.0282 -0.1521
30753W        W46887  18.989  12.786   2.866  0.1723  0.2416 -0.0344
30754W        W46888   2.443   1.396   1.679 -0.2859 -0.2883 -0.0378
30755W        W46889  10.556  18.176  12.125 -0.2417  0.2646 -0.1438
30756W        W46890  13.069  17.662   3.924  0.1115  0.0430 -0.1884
30757W        W46891   0.169   2.409   2.508 -0.0497 -0.1932  0.0555
30758W        W46892  17.927   2.448  10.396  0.1936  0.0449 -0.0839
30759W        W46893   0.247  19.228  14.815  0.1259 -0.1575  0.0691
30760W        W46894   4.236  14.049   3.746 -0.3556  0.1044 -0.0337
30761W        W46895   0.309  16.129   3.686 -0.0909 -0.3520 -0.0050
30762W        W46896   0.413   0.083  10.880 -0.0868 -0.1560  0.0192
30763W        W46897   2.640  18.198   5.497 -0.0142  0.0273 -0.0003
30764W        W46898  19.333  14.669   0.674 -0.0472  0.1125  0.1825
30765W        W46899  11.533   6.992   3.486 -0.1420  0.1375  0.0246
30766W        W46900   1.430  19.007   4.972 -0.3038  0.0592  0.0468
30767W        W46901   3.962   0.141  11.465  0.2218  0.0470  0.0737
30768W        W46902   2.396   8.109   3.764  0.0099 -0.3620 -0.3672
30769W        W46903   4.904   5.665   3.345 -0.2595 -0.0126  0.2817
30770W        W46904   1.791   8.291   3.886 -0.0836 -0.2406  0.2716
30771W        W46905   8.275   5.332   4.889  0.0406 -0.2833 -0.0013
30772W        W46906  13.527   7.366  12.461 -0.1393 -0.0793  0.1528
30773W        W46907  11.590   8.893   1.056  0.0128  0.0692  0.1101
30774W        W46908   2.167   0.641   0.749  0.0823  0.3103 -0.0291
30775W        W46909  19.240   6.677   2.009 -0.3973  0.2576  0.2618
30776W        W46910  17.472   5.645   3.559  0.0605 -0.0712  0.0714
30777W        W46911  15.863   8.815   4.905  0.0537  0.0957  0.0173
30778W        W46912  15.211  12.105  14.273  0.1332  0.1883 -0.1305
30779W        W46913  15.278   9.925  13.648 -0.1644  0.0560 -0.2105
30780W        W46914   7.685   2.930  13.102 -0.1934  0.2327 -0.1205
30781W        W46915  11.306   1.955   1.464  0.1230  0.0305 -0.2659
30782W        W46916  19.029  10.041  13.999  0.1845 -0.1095 -0.0501
30783W        W46917  12.716  16.910  14.205 -0.1414  0.0721  0.1398
30784W        W46918   7.734   8.399  12.222 -0.3176  0.3476  0.0996
30785W        W46919  14.527  15.539   4.960  0.1888  0.1752  0.1129
30786W        W46920  15.296   3.846  11.779  0.0068 -0.1761  0.1682
30787W        W46921   6.304   8.283  14.591  0.0164 -0.0931  0.0337
30788W        W46922  14.912   7.831  11.371  0.2998 -0.1726  0.2428
30789W        W46923   2.756   3.897   0.636  0.1279  0.0544 -0.0100
30790W        W46924   3.918  18.130  11.989  0.1118 -0.1684 -0.0043
30791W        W46925  16.574  14.607   2.670 -0.1119 -0.2643  0.0091
30792W        W46926  15.608   3.599  11.039 -0.1545 -0.3400  0.1529
30793W        W46927   5.940  12.621  14.955  0.0151  0.3425  0.1781
30794W        W46928   7.440   4.912   2.111  0.0866 -0.1437 -0.0323
30795W        W46929   1.709  18.744  11.785  0.0293  0.0582  0.2773
30796W        W46930  12.729   3.398  14.950  0.1181 -0.0924  0.3990
30797W        W46931  16.740  17.647  10.137 -0.0218  0.2553 -0.3773
30798W        W46932   2.204  11.851  14.777 -0.0458 -0.0439 -0.2748
30799W        W46933  10.070   6.330  11.942 -0.1214  0.3970 -0.0864
30800W        W46934  18.168   8.486  10.000 -0.0342 -0.0968 -0.3863
30801W        W46935  14.937  19.134   1.250 -0.0790  0.0687 -0.1788
30802W        W46936   0.254   8.269  14.056 -0.0019  0.0957  0.1639
30803W        W46937   8.043   0.786  13.874 -0.0536  0.0478  0.0629
30804W        W46938  18.264  13.389  12.855 -0.0901 -0.0777  0.0396
30805W        W46939  12.719   5.653   0.478  0.1264 -0.0953 -0.0436
30806W        W46940   4.326   3.023   1.106  0.3147  0.1671 -0.0435
30807W        W46941   8.719  17.414   2.956 -0.1694 -0.2682  0.3317
30808W        W46942  17.370   7.829   2.076 -0.0745 -0.3152  0.2841
30809W        W46943   1.721   5.066  11.826 -0.2640  0.0409  0.3966
30810W        W46944  17.959  11.040   3.265 -0.0497  0.2533 -0.0378
30811W        W46945  18.081  16.999   4.121 -0.0068  0.0262  0.0956
30812W        W46946   2.542   6.383   1.498 -0.3848  0.1767  0.2343
30813W        W46947   3.076   5.070   0.577 -0.5497 -0.1922 -0.0329
30814W        W46948  14.278   2.914   3.254 -0.5171  0.1938  0.3033
30815W        W46949   9.439  13.830   1.528  0.4114  0.0185 -0.1030
30816W        W46950  12.770   3.199  13.455 -0.4448 -0.2248 -0.2813
30817W        W46951   2.886   3.160  12.610 -0.2229  0.0708 -0.0436
30818W        W46952   7.722   6.228  11.019  0.1206  0.1274  0.1256
30819W        W46953   7.664  11.381  10.259 -0.1479 -0.4488  0.2667
30820W        W46954   8.846  14.458   4.995  0.1796  0.0124 -0.1127
30821W        W46955  10.980   7.199   1.493  0.0358  0.4074 -0.0071
30822W        W46956   7.055   5.394   3.395  0.0135 -0.1999  0.0443
30823W        W46957  16.113   1.784  10.523  0.1896 -0.0286 -0.0484
30824W        W46958  13.948  13.612   1.393  0.0803 -0.2429 -0.1427
30825W        W46959   7.663   1.448  12.919  0.1242 -0.1695  0.2035
30826W        W46960   3.151  17.677   1.234 -0.1214 -0.1857 -0.3688
30827W        W46961   9.130  13.506   5.203  0.2722 -0.0075  0.1315
30828W        W46962   4.138  14.462  11.847 -0.3720 -0.1275 -0.2755
30829W        W46963   0.520   2.912  12.877  0.1589 -0.0588  0.1365
30830W        W46964  18.158  13.499  13.346  0.2644 -0.0584 -0.1608
30831W        W46965  17.663   8.983   0.012  0.0511 -0.1177  0.1384
30832W        W46966   1.521   3.012   1.208  0.0629  0.1994 -0.1485
30833W        W46967   4.952  15.928  11.417  0.1336  0.1662 -0.1814
30834W        W46968   2.704  11.818   3.960  0.0457  0.0532  0.2827
30835W        W46969   2.325  15.360   1.226  0.1363  0.1199 -0.2969
30836W        W46970   5.917   5.761  13.923 -0.1065  0.3315  0.2154
30837W        W46971  13.439   5.108   3.578  0.0772 -0.0327  0.0267
30838W        W46972  16.424   5.635  11.036  0.2149  0.4249 -0.0428
30839W        W46973  19.147   6.514  14.034  0.1750 -0.3637 -0.0014
30840W        W46974   9.439   5.502   0.832  0.0729 -0.1675  0.3209
30841W        W46975  19.107  19.119  14.535 -0.3026  0.2299 -0.0355
30842W        W46976  17.428  13.850   2.427 -0.0045 -0.0983  0.2152
30843W        W46977   1.775  10.392   5.091 -0.1650  0.0225 -0.1412
30844W        W46978  16.293   1.237   1.151 -0.0742 -0.0871  0.0729
30845W        W46979   7.822  18.945   2.421  0.0200  0.0654 -0.2329
30846W        W46980  14.181   6.385   3.115 -0.0663 -0.6087 -0.1542
30847W        W46981  16.511   7.679  14.336  0.0064 -0.1219  0.0432
30848W        W46982   3.567  16.936   2.324  0.2328 -0.1582 -0.4095
30849W        W46983   0.675   7.668  10.234  0.0713 -0.1962 -0.0268
30850W        W46984   5.853  13.550   1.048  0.0403  0.4294  0.0392
30851W        W46985  12.018  11.834  10.408  0.3462  0.1876 -0.2653
30852W        W46986   1.487   9.519   0.577  0.1003  0.1162 -0.2142
30853W        W46987  17.374  15.298  13.522  0.0347  0.0382 -0.2168
30854W        W46988  16.112   4.932  12.610 -0.2655  0.0792  0.0968
30855W        W46989  14.747   3.484   3.890 -0.0268  0.0004 -0.5976
30856W        W46990   7.339  10.122  10.491 -0.0278  0.1179 -0.1139
30857W        W46991  10.940  11.161  13.524 -0.0359  0.1481  0.1760
30858W        W46992   4.912  16.426   5.235  0.2701 -0.3934  0.2100
30859W        W46993   1.220   3.337   2.973  0.3090  0.1624  0.2742
30860W        W46994   6.112   2.173  10.570  0.1454  0.1475  0.0190
30861W        W46995  15.904   9.132   2.640 -0.0374 -0.2611 -0.1741
30862W        W46996   7.997  14.004  12.287 -0.3731 -0.1216  0.0380
30863W        W46997  15.659  19.171  11.975  0.0609  0.1917 -0.0824
30864W        W46998  15.319  11.813  12.244 -0.1405  0.3035 -0.2227
30865W        W46999   8.912  10.986  10.300 -0.3376 -0.1750 -0.0136
30866W        W47000   7.298  12.772   0.091 -0.2502 -0.1536 -0.2097
30867W        W47001  10.602  18.010   2.797  0.1788 -0.4342  0.0238
30868W        W47002  11.023  18.364   1.883  0.0195 -0.2573 -0.0119
30869W        W47003  13.623   6.645  14.948 -0.4015  0.4400  0.2052
30870W        W47004   8.105   4.655   0.764 -0.2924  0.1443  0.1159
30871W        W47005  13.541  15.768  10.962 -0.2550 -0.3146 -0.0737
30872W        W47006  16.361  10.604   3.393 -0.1269  0.0067 -0.1889
30873W        W47007  17.527   9.346   4.494 -0.2333  0.0593 -0.3776
30874W        W47008  17.365   4.729   3.864  0.2207 -0.0752 -0.2685
30875W        W47009  19.332  17.525  14.754 -0.0176  0.1884  0.2159
30876W        W47010   3.480   5.208   0.910 -0.1040 -0.0892 -0.2296
30877W        W47011  13.098   5.328   0.692 -0.1574  0.1007  0.1804
30878W        W47012   5.852  10.786   4.731  0.1414 -0.4379  0.1635
30879W        W47013   5.800  17.918   0.620  0.0063 -0.1576 -0.2920
30880W        W47014  13.492  16.477  11.461 -0.1389 -0.1822  0.1325
30881W        W47015   4.583   2.037   2.107  0.0513  0.2294  0.2539
30882W        W47016   8.911   0.197   1.941 -0.1226 -0.1216 -0.0664
30883W        W47017   0.536  18.011   0.643 -0.4569  0.0151 -0.1439
30884W        W47018  15.691   6.595   3.786 -0.1564  0.1673 -0.0681
30885W        W47019   3.479  17.262   9.845 -0.0016 -0.1492 -0.1825
30886W        W47020  18.806  15.282   2.494  0.2244 -0.4520  0.1005
30887W        W47021  16.528  11.906  14.795 -0.1017  0.1580  0.0243
30888W        W47022   8.791   7.386  11.186  0.1136 -0.1047  0.2269
30889W        W47023  10.695  14.327  11.457 -0.0554 -0.1175  0.1383
30890W        W47024   0.822   7.335  11.489  0.2634 -0.4481  0.1752
30891W        W47025   1.939  16.349  12.546  0.0186 -0.3320 -0.1943
30892W        W47026   1.137  17.470   2.936  0.0002  0.2149  0.0779
30893W        W47027  13.159   7.098  10.532  0.1041 -0.0572  0.4583
30894W        W47028  19.289   4.436  11.497  0.0887  0.2115 -0.0407
30895W        W47029  18.230  16.211   2.927  0.1629  0.1241 -0.2542
30896W        W47030   1.989  19.113  14.832  0.0853  0.2157 -0.0881
30897W        W47031  16.721   1.020  10.161 -0.0921 -0.0467 -0.0231
30898W        W47032   5.340  14.340   0.148 -0.0150  0.0388  0.1609
30899W        W47033   7.719   7.365  14.236 -0.3961 -0.0035 -0.1181
30900W        W47034   2.657   5.039  12.763  0.3358  0.5690  0.0668
30901W        W47035  15.349   2.179   5.507 -0.0531 -0.4478  0.0632
30902W        W47036   4.925   6.558  10.966  0.0483  0.1428  0.3306
30903W        W47037  15.421   6.875  13.005 -0.2276 -0.1686 -0.2190
30904W        W47038  12.507  19.302   3.617  0.0323 -0.0566  0.0357
30905W        W47039  11.107   4.466  14.853  0.1337 -0.1358  0.0214
30906W        W47040   7.024  14.924  10.947 -0.4090 -0.0031 -0.0823
30907W        W47041  18.786   2.340   1.797  0.2976  0.1502  0.3381
30908W        W47042  12.987  13.035   2.784  0.1228  0.2589 -0.0743
30909W        W47043  18.963  15.745   1.716  0.0339 -0.1895  0.1417
30910W        W47044   0.941   9.597   2.208 -0.0939 -0.2664  0.3589
30911W        W47045   0.266  17.130   3.678  0.0375  0.0269  0.0889
30912W        W47046   2.944  16.369   3.436  0.1154  0.0601  0.2687
30913W        W47047   6.649   8.467  13.195  0.1372 -0.2034  0.0292
30914W        W47048   1.802   1.919  10.664 -0.0197 -0.1469  0.0333
30915W        W47049  11.503  11.183   1.515 -0.4497  0.2223  0.2291
30916W        W47050   6.940   2.546   2.597  0.2132 -0.0310 -0.4004
30917W        W47051   3.397  11.521  11.117 -0.2411 -0.4210 -0.1579
30918W        W47052   5.854   7.881   0.393 -0.1322  0.0749  0.2796
30919W        W47053   8.878  14.229   2.775  0.0566 -0.0730  0.2108
30920W        W47054  11.307  14.699  14.865  0.3165  0.1486 -0.2287
30921W        W47055  15.499  16.346   4.841 -0.2440  0.1594  0.1592
30922W        W47056  15.295   5.738   1.603 -0.0289  0.0295  0.0193
30923W        W47057  19.001   1.917  14.580  0.0065 -0.0223 -0.3152
30924W        W47058   6.212   4.532   0.368  0.0491  0.3227 -0.0536
30925W        W47059   2.870   4.855   1.593  0.0718 -0.1856  0.1572
30926W        W47060  11.446  12.197  14.212 -0.1411  0.0340 -0.1553
30927W        W47061  18.283   6.281  13.722  0.0569  0.1010  0.2280
30928W        W47062   2.970  17.679  12.235 -0.0289 -0.3354  0.0254
30929W        W47063   7.943   5.178   0.757  0.2256 -0.1322  0.1262
30930W        W47064  11.645  17.152   0.271 -0.3690  0.0281 -0.3032
30931W        W47065  19.116   3.624   4.117  0.2293  0.2558  0.1079
30932W        W47066  17.060  12.551  14.887 -0.2114  0.2083  0.0874
30933W        W47067   6.488   0.403   0.662 -0.2902  0.0690  0.1547
30934W        W47068   4.826  18.789   3.806 -0.0400 -0.0599 -0.0584
30935W        W47069   1.358   4.842  10.637 -0.4904  0.0044 -0.2763
30936W        W47070  13.028   6.017  14.715 -0.2255  0.1213 -0.2495
30937W        W47071   0.381   8.855  14.343  0.1246  0.5774  0.1075
30938W        W47072   4.745  13.720  10.891 -0.2887  0.5365  0.3479
30939W        W47073  13.305   3.282  11.379  0.0296  0.1077 -0.0268
30940W        W47074   0.822   1.218  11.097 -0.2170  0.1817 -0.0253
30941W        W47075  11.494   0.867  11.799 -0.2543  0.2112 -0.2204
30942W        W47076   9.101   1.121  14.746 -0.0101  0.1564  0.2283
30943W        W47077  19.191  17.655  13.161  0.1880 -0.2750 -0.1047
30944W        W47078   1.603   6.784   4.807  0.0356  0.0116  0.0154
30945W        W47079  18.180   9.170   0.171  0.2543  0.0011 -0.3256
30946W        W47080   4.604   5.443  12.897  0.0378 -0.2094 -0.0634
30947W        W47081  14.457   5.298  13.214 -0.0623  0.1236 -0.1071
30948W        W47082   4.683   7.723  13.375 -0.2919 -0.0895 -0.1981
30949W        W47083  18.248   0.878   1.863 -0.0709 -0.2071 -0.0502
30950W        W47084  15.689  19.169   4.920  0.0614 -0.1436 -0.0659
30951W        W47085   2.045  10.890   0.655 -0.1125 -0.1779 -0.0762
30952W        W47086  15.802  10.203  11.936 -0.0091  0.0572  0.0723
30953W        W47087   1.179  15.638  12.748 -0.0634  0.1685 -0.1034
30954W        W47088   7.519  18.670  12.668  0.0949 -0.1627 -0.1835
30955W        W47089  14.059   8.119   5.233 -0.0592  0.2225 -0.3616
30956W        W47090  17.338  12.039  13.464 -0.0172  0.0890  0.1223
30957W        W47091   9.283   3.671   0.807 -0.2141  0.0701  0.0506
30958W        W47092  13.944   4.817  10.122  0.1772 -0.1224 -0.1440
30959W        W47093  12.110  12.173  10.765  0.0899  0.2019  0.1550
30960W        W47094   2.381   2.547  13.970  0.0094 -0.2025 -0.1392
30961W        W47095  16.510  11.267  12.876 -0.3294  0.0080  0.2932
30962W        W47096   4.428   2.246   2.599 -0.0154 -0.0751  0.1507
30963W        W47097   7.456  15.350  10.780 -0.1289  0.1726  0.5369
30964W        W47098   4.363   6.537  14.002 -0.1385 -0.1191 -0.0347
30965W        W47099  10.134   0.740  13.078  0.2832 -0.0502 -0.2762
30966W        W47100  12.267   0.058  10.613  0.2154  0.1155  0.0124
30967W        W47101   3.847  18.522  13.222 -0.0436  0.0268 -0.1017
30968W        W47102   8.404   4.910   3.100  0.2325  0.1513  0.1779
30969W        W47103   1.729  16.363  10.497  0.1052 -0.2983  0.2148
30970W        W47104  13.567  12.460  10.470  0.1124 -0.0633  0.2034
30971W        W47105  15.445   3.837  13.504 -0.2145  0.2516 -0.1136
30972W        W47106   0.942  18.152  10.805 -0.4045  0.3550 -0.2091
30973W        W47107  10.150   7.396   9.586 -0.1345  0.1073  0.0711
30974W        W47108   2.536  13.934  12.036 -0.2204  0.1381 -0.2088
30975W        W47109   7.170   1.360  11.709 -0.1218 -0.0332 -0.0005
30976W        W47110   5.445  10.687  11.099 -0.0967  0.3333  0.0450
30977W        W47111   8.022  10.001   3.265  0.2510 -0.0503 -0.1148
30978W        W47112  14.923   7.709   2.614  0.0321  0.2098 -0.4825
30979W        W47113   9.498  17.445  12.941 -0.2079 -0.1291 -0.2160
30980W        W47114   9.610  13.620  14.227 -0.1671  0.1953  0.0838
30981W        W47115  13.273  19.114  13.487 -0.1680  0.0188 -0.0907
30982W        W47116  10.103   4.615   0.233  0.3504  0.0904 -0.2782
30983W        W47117   8.642   3.305   0.087  0.2009  0.1217 -0.1194
30984W        W47118   7.556   5.256   3.505  0.1133  0.0194 -0.3957
30985W        W47119   9.398  12.592   5.232 -0.1393  0.3776  0.0600
30986W        W47120   7.310  12.742   1.698 -0.1691 -0.1173 -0.2984
30987W        W47121   2.108  16.992   3.368 -0.4409  0.5081  0.1585
30988W        W47122   4.978   8.844  14.333 -0.1672  0.0628  0.0047
30989W        W47123   9.712   7.191  14.047 -0.0688  0.0633  0.1362
30990W        W47124   8.012   0.659  13.394  0.0193 -0.1054 -0.0097
30991W        W47125   7.925   7.442   2.777 -0.3135  0.1925  0.1660
30992W        W47126   4.431   1.223  10.784  0.2598  0.0571 -0.2699
30993W        W47127  11.301  10.966   2.110 -0.1657 -0.0129  0.0147
30994W        W47128   7.596   1.412   1.912  0.0040 -0.1736  0.3252
30995W        W47129  16.901   2.376  14.161 -0.0407 -0.3158 -0.0482
30996W        W47130   2.107   8.969   0.878 -0.1631 -0.0896  0.0405
30997W        W47131  13.184   9.362   0.254  0.1255  0.5290 -0.4138
30998W        W47132  11.293   8.076   0.089  0.3529 -0.3963  0.2970
30999W        W47133  10.294   6.996   5.166 -0.2231 -0.1979 -0.2250
31000W        W47134   9.044   2.072  13.490  0.1770  0.4043 -0.2374
31001W        W47135  10.409  10.480   1.786  0.2386 -0.0304  0.0621
31002W        W47136   5.179   2.716  13.842 -0.2242 -0.1940  0.2386
31003W        W47137  10.863  16.273   0.573 -0.1392 -0.1308 -0.3737
31004W        W47138  11.610  16.473   0.963  0.0200 -0.1229 -0.2450
31005W        W47139  10.287   4.092   3.716  0.3521  0.2600 -0.0551
31006W        W47140   7.655  13.724  13.283  0.0984 -0.3878  0.1048
31007W        W47141  16.710  12.546   5.337  0.1730 -0.1442  0.0549
31008W        W47142   7.186   2.149  13.534 -0.1653  0.2595  0.1101
31009W        W47143   1.714   9.422  11.020  0.0625 -0.0855 -0.1365
31010W        W47144  12.153   1.492   4.525  0.2792 -0.0860 -0.0672
31011W        W47145  11.856   0.909   4.820  0.0606 -0.2924 -0.4469
31012W        W47146  15.358  19.308   2.739 -0.1039 -0.1572 -0.1885
31013W        W47147  13.631  14.333  11.131  0.1353 -0.0669  0.1381
31014W        W47148  17.581  16.275  14.190  0.0128 -0.1895 -0.1685
31015W        W47149   2.009   8.966  13.103 -0.0461 -0.0515 -0.2032
31016W        W47150   2.060   2.206   1.669 -0.1307 -0.1195 -0.0216
31017W        W47151  13.021  17.404   9.618  0.1319 -0.0979 -0.2349
31018W        W47152  12.637  17.015   3.846  0.1027  0.0526  0.0365
31019W        W47153   4.997  12.327   1.814 -0.1761  0.2427 -0.0486
31020W        W47154   6.786  10.460   2.349 -0.1865  0.1814  0.0084
31021W        W47155   4.419  11.839   0.946  0.1852 -0.0243 -0.2826
31022W        W47156   2.784  10.209   3.300 -0.0191 -0.2902  0.0981
31023W        W47157  12.291  11.053  10.834  0.5952 -0.3270  0.1162
31024W        W47158  13.280  14.610  10.600  0.4644  0.0781 -0.1660
31025W        W47159   8.085   3.605   1.220 -0.1813  0.0734  0.3690
31026W        W47160   4.725  19.298   4.105 -0.3204 -0.1212  0.0680
31027W        W47161   8.329   3.714  12.023  0.3634 -0.0016  0.0229
31028W        W47162   3.125  18.364  13.833 -0.4491  0.2585 -0.0400
31029W        W47163  18.561   9.040  14.924  0.0270  0.2065 -0.3544
31030W        W47164  16.606   1.202  11.129 -0.0736 -0.2135  0.1247
31031W        W47165   7.269  10.898  11.810  0.0200  0.1571  0.0895
31032W        W47166   3.322  10.326   0.052  0.0060 -0.3052  0.1126
31033W        W47167   7.165   3.097  12.316 -0.0885  0.1931 -0.3557
31034W        W47168   2.025   0.855  11.842  0.2386  0.2004  0.1781
31035W        W47169  18.157  11.726   4.819  0.1894 -0.2166 -0.0012
31036W        W47170   5.882  10.994   2.532  0.1426  0.2280 -0.1444
31037W        W47171  18.043   7.760  11.049  0.0100  0.0529 -0.0706
31038W        W47172   5.446   3.016   0.861 -0.3915  0.0829 -0.2250
31039W        W47173   4.457  19.332   3.025 -0.0181 -0.3326  0.2911
31040W        W47174   2.124  15.299  13.097 -0.0848 -0.2494 -0.1419
31041W        W47175  18.711   8.144   4.751  0.1470  0.1170  0.0981
31042W        W47176  16.980  16.820   0.880 -0.2846 -0.0612  0.1271
31043W        W47177   2.132  17.680  14.693 -0.0311  0.1340  0.0265
31044W        W47178  12.383   5.205  11.267 -0.2008  0.1523 -0.3206
31045W        W47179  13.020   0.269   0.634 -0.3730  0.1760  0.0318
31046W        W47180  18.356   2.665  13.158 -0.3871  0.1185 -0.0019
31047W        W47181   8.680   0.443   2.335  0.1067 -0.0237 -0.2587
31048W        W47182   8.902  14.404  13.321  0.2219 -0.0500  0.0041
31049W        W47183   0.233  12.300   4.453 -0.3133  0.2154 -0.0805
31050W        W47184  13.824   9.526   3.233 -0.0769  0.0185 -0.0738
31051W        W47185   8.377  10.379   3.448  0.2810  0.1386 -0.0384
31052W        W47186   1.549  13.300  14.208 -0.1272  0.2018  0.1056
31053W        W47187   6.085  12.089   4.015 -0.2272  0.2894 -0.1101
31054W        W47188   6.812  11.541  13.395  0.0574  0.0148 -0.0878
31055W        W47189  16.916   4.665   0.565  0.0263  0.0809  0.0164
31056W        W47190  10.083  12.836   4.645 -0.2927  0.0663  0.0893
31057W        W47191   1.580  13.057  14.629 -0.1655 -0.0078  0.2415
31058W        W47192  15.596  10.719   4.031 -0.0679 -0.1334  0.1034
31059W        W47193  14.933  12.500   0.638 -0.3049 -0.1757  0.4604
31060W        W47194   7.592   7.724  11.650  0.1996  0.0278 -0.0541
31061W        W47195   1.234  12.549   0.701 -0.1471  0.3195  0.0339
31062W        W47196   6.223  18.902  13.914 -0.1132  0.0453  0.1370
31063W        W47197   7.547  18.423   1.612  0.3249 -0.1948 -0.0548
31064W        W47198   1.968   5.289   3.546  0.2304 -0.0384  0.0002
31065W        W47199   1.730  10.986   2.899 -0.1905  0.0262  0.1588
31066W        W47200   3.984   1.538  12.833 -0.1180  0.1055  0.1300
31067W        W47201  14.332  17.138  14.453 -0.2854  0.0672 -0.1224
31068W        W47202   7.554  12.534  11.539 -0.0819  0.1278 -0.2183
31069W        W47203  13.441   1.588   0.728  0.0962  0.4814  0.2598
31070W        W47204   4.483   1.281  12.121  0.2481  0.0935 -0.1584
31071W        W47205   1.314   8.749  11.607 -0.1718  0.1161  0.0987
31072W        W47206   8.157   6.899   0.661 -0.2637 -0.3244 -0.0659
31073W        W47207   5.059   5.800   0.873 -0.4800  0.0837  0.1417
31074W        W47208   3.375   3.411   2.700 -0.2217 -0.1544 -0.0816
31075W        W47209   1.523   1.789  13.857  0.0099  0.0219 -0.1026
31076W        W47210  13.522   1.778   1.244 -0.1407  0.0163 -0.1188
31077W        W47211   5.458   5.959   4.575 -0.0270  0.1046  0.1561
31078W        W47212   5.328   5.902   2.273 -0.0226 -0.0121 -0.0528
31079W        W47213  16.589   2.712  13.448  0.0967 -0.1228 -0.0994
31080W        W47214   4.750   7.901   2.244 -0.1011  0.1157  0.2195
31081W        W47215   3.515   7.361  12.546  0.2982 -0.1581 -0.0742
31082W        W47216   1.772  10.717  11.451  0.2203  0.0326 -0.0665
31083W        W47217  14.569   7.788  10.529  0.0746 -0.1758 -0.0073
31084W        W47218  15.126  14.722   2.568 -0.0970  0.0206  0.0613
31085W        W47219   8.841   9.050  11.247 -0.1394  0.0809  0.2918
31086W        W47220   1.050   2.699  10.031  0.1335  0.0603 -0.3638
31087W        W47221   0.424   4.364   0.672  0.1658  0.1212 -0.0146
31088W        W47222   6.674  17.721  13.722 -0.0171  0.1405  0.1055
31089W        W47223   3.617  14.677   4.973  0.2716  0.3910 -0.1594
31090W        W47224   1.934  18.378   0.373 -0.1954  0.0064  0.0055
31091W        W47225   0.456   5.054   2.215  0.1029  0.0057 -0.0640
31092W        W47226  18.526  14.378  11.500 -0.3342  0.5070 -0.1881
31093W        W47227   1.527  15.346  13.772  0.0792  0.1364  0.1885
31094W        W47228  13.231  15.552  11.982 -0.0052 -0.3169  0.2357
31095W        W47229   1.837  16.483   0.540 -0.2139  0.0542  0.1842
31096W        W47230  12.771  15.572   4.364  0.2841  0.0226 -0.2370
31097W        W47231  15.676   1.515   1.193 -0.4450 -0.0251 -0.1801
31098W        W47232   0.430  14.000   4.193 -0.1962 -0.2227 -0.2142
31099W        W47233   6.995   8.615   0.283  0.0113 -0.1786  0.2863
31100W        W47234   0.866   4.511  10.317  0.1165  0.0448 -0.2901
31101W        W47235  16.388  18.428   2.841 -0.1568  0.1414 -0.1238
31102W        W47236  15.149   7.043   3.021  0.1293  0.0586  0.0316
31103W        W47237   6.746  14.055  11.710 -0.3014  0.2437 -0.0751
31104W        W47238  11.079   3.638  13.878  0.2040 -0.2747  0.1736
31105W        W47239  10.402   6.775  14.810  0.0547 -0.0524 -0.1362
31106W        W47240  18.044   7.955   3.412 -0.1592  0.1643  0.2057
31107W        W47241   7.553  11.501   3.127  0.1851  0.1844 -0.1389
31108W        W47242  10.700  15.696   3.360 -0.0044 -0.1933 -0.0340
31109W        W47243  11.936  15.383   4.638 -0.1106  0.2182 -0.0050
31110W        W47244  14.273   6.923  12.844  0.0136  0.1145  0.0863
31111W        W47245  10.052  11.321   0.095  0.3196  0.1399 -0.1746
31112W        W47246   5.829  17.005  14.402  0.2436  0.1033  0.1465
31113W        W47247   6.418  13.640  14.413 -0.0488 -0.1179  0.2929
31114W        W47248  12.758   7.894   0.730  0.4861 -0.4209 -0.3181
31115W        W47249   4.329  15.670   2.904  0.0897 -0.1193  0.3043
31116W        W47250  15.753  14.163   2.418  0.0141 -0.1050  0.1496
31117W        W47251   6.849  16.661  13.426  0.0552  0.2438  0.2327
31118W        W47252   0.065  17.422   2.510  0.3244 -0.3030  0.2545
31119W        W47253  16.171   2.892   3.625  0.0775 -0.1619  0.2822
31120W        W47254  17.615   8.058  11.805 -0.0051  0.0670 -0.4775
31121W        W47255  11.824  12.842   0.630 -0.0780  0.1674  0.0120
31122W        W47256   1.389   8.835   1.217  0.0493 -0.0537 -0.3559
31123W        W47257   5.935   1.629  14.116 -0.5724 -0.0029  0.2255
31124W        W47258  12.815   8.496  10.585 -0.2665 -0.0860 -0.0732
31125W        W47259  16.321  18.738   0.443 -0.2433  0.2607 -0.0984
31126W        W47260   8.871  11.260  11.226  0.1556  0.3473  0.0208
31127W        W47261   2.738  13.632  12.704 -0.2605  0.0953 -0.1087
31128W        W47262   7.158  19.208  12.712  0.1836  0.0606 -0.1124
31129W        W47263  11.933   8.806   4.251  0.0228 -0.1003  0.1996
31130W        W47264  15.658   2.627  10.417 -0.0816 -0.1727  0.0634
31131W        W47265   9.113   1.739  11.358 -0.1428  0.0418  0.2983
31132W        W47266  18.427   4.046  13.609 -0.2441  0.1331 -0.2943
31133W        W47267   8.136  10.209  11.676 -0.2132  0.0216 -0.0849
31134W        W47268   5.303  12.754   4.769  0.5416  0.1312  0.3805
31135W        W47269  17.923  18.043   3.211 -0.1933 -0.1664 -0.2346
31136W        W47270  14.487  12.046  14.497  0.3246  0.0374  0.0102
31137W        W47271   0.475   9.729   2.016  0.1167 -0.1230  0.0830
31138W        W47272   0.782   5.764  13.811 -0.2655 -0.2543  0.0847
31139W        W47273  10.129  12.795  10.431  0.0645 -0.0640 -0.1457
31140W        W47274   2.643  17.783  12.842  0.1375 -0.0141 -0.1893
31141W        W47275   6.502   1.799   5.403 -0.1261  0.0660  0.1880
31142W        W47276  17.442  10.505  10.387 -0.3186 -0.1165 -0.1672
31143W        W47277   2.223   1.645   1.162  0.0414  0.1183  0.1490
31144W        W47278   4.129  19.282  13.619 -0.1799 -0.3324  0.2333
31145W        W47279   4.012   0.144   2.967  0.0871  0.0437 -0.1890
31146W        W47280   0.211   2.395  12.879  0.1915  0.0172 -0.2101
31147W        W47281   4.737   0.911  13.932 -0.1718 -0.0445 -0.1820
31148W        W47282   3.079   6.485   4.269 -0.0248 -0.0259  0.1053
31149W        W47283   9.894   5.817  12.779  0.1082 -0.0166  0.4144
31150W        W47284  15.257   8.114  10.162  0.0280  0.5805  0.0287
31151W        W47285   0.295   2.694   9.674 -0.3439  0.2286 -0.2259
31152W        W47286  12.920  15.485   3.829  0.0130 -0.2026 -0.2013
31153W        W47287  13.777  15.075  10.601 -0.0749 -0.0969 -0.0329
31154W        W47288  16.768  10.087   1.235 -0.0119  0.0431 -0.0254
31155W        W47289   8.471   2.311   4.427  0.1442 -0.1853  0.1656
31156W        W47290  10.903  17.585   2.631 -0.2555 -0.2399 -0.0836
31157W        W47291  16.124   3.941   0.322  0.1315 -0.2197  0.1214
31158W        W47292   2.184   4.649  11.152  0.0576  0.3606  0.3352
31159W        W47293  14.585   1.624   2.650 -0.3634 -0.0137  0.1787
31160W        W47294  17.600  15.803  14.321  0.1053  0.0018  0.0221
31161W        W47295   0.914   8.864   4.697 -0.1170 -0.0159  0.0724
31162W        W47296  17.317   5.240   3.813 -0.1356  0.1520 -0.1751
31163W        W47297  18.899   5.015   1.967  0.2383  0.0582 -0.0444
31164W        W47298  13.669   8.456  14.525  0.1194  0.0731 -0.0770
31165W        W47299   0.840  10.759  14.611 -0.0036 -0.2791  0.1036
31166W        W47300   1.977   7.384   2.337 -0.1473 -0.2977  0.0606
31167W        W47301   0.628   9.822  13.808 -0.3650  0.2902  0.0747
31168W        W47302   1.681   6.891   2.333  0.0101 -0.0289 -0.1863
31169W        W47303   6.718  15.155   3.295  0.0931  0.1011  0.1554
31170W        W47304  12.332  14.627   5.160  0.0548 -0.1925 -0.3240
31171W        W47305  13.901   2.891   2.349  0.1089 -0.2227  0.0810
31172W        W47306   7.098   7.355  13.204 -0.0943  0.2060  0.5151
31173W        W47307   2.548  15.385  12.695 -0.4018  0.1308  0.0867
31174W        W47308   0.587   3.267   1.697  0.2176 -0.0358 -0.4460
31175W        W47309   3.086   8.725   1.674  0.0101  0.2219 -0.1360
31176W        W47310   0.594   9.348  14.499 -0.0329 -0.1176 -0.1634
31177W        W47311  12.885  15.375   0.518 -0.1102 -0.3614  0.0815
31178W        W47312  12.317  19.248  14.493  0.0683  0.0514  0.2908
31179W        W47313   2.767  18.609  12.866  0.1233  0.3441 -0.1509
31180W        W47314   1.155   6.506   4.369  0.0771 -0.0832 -0.1725
31181W        W47315  12.240   2.407  12.322  0.0635  0.2452  0.0954
31182W        W47316   8.641  14.746   3.266  0.0998  0.0990 -0.1977
31183W        W47317   0.883  19.143   3.486  0.1829  0.0323 -0.0078
31184W        W47318  13.302   0.247  10.657 -0.0793 -0.0774  0.2967
31185W        W47319  15.094   6.763  12.488  0.1706  0.3519  0.1626
31186W        W47320   6.109  15.065  11.398 -0.4608 -0.0617 -0.0643
31187W        W47321   2.109   5.788   3.490 -0.2563 -0.0359 -0.0243
31188W        W47322  16.995  17.436  11.883  0.4244  0.1530 -0.1010
31189W        W47323   2.173   9.049  14.552 -0.1970  0.0267  0.2328
31190W        W47324  15.072  12.746  14.821 -0.3078  0.1327  0.0838
31191W        W47325   0.291   2.097   2.899 -0.1811 -0.0441  0.0914
31192W        W47326  11.735  18.476   5.518 -0.2676 -0.1279 -0.2317
31193W        W47327  10.558   6.510  11.039 -0.1097 -0.0525 -0.1513
31194W        W47328   5.561  17.373  14.166 -0.0910 -0.2427 -0.0900
31195W        W47329   0.502   8.329   1.942  0.0390 -0.0373 -0.3625
31196W        W47330  16.695   7.941  10.702  0.1048 -0.0076 -0.5153
31197W        W47331   0.074   9.573   0.736  0.0523  0.1531 -0.0077
31198W        W47332   6.675  17.441   5.795 -0.0048 -0.3804  0.0813
31199W        W47333   5.739   5.648   2.076 -0.1419 -0.0180 -0.2468
31200W        W47334   9.845   4.471  13.662 -0.0008 -0.1654 -0.2357
31201W        W47335  15.295  14.616  12.764  0.2498 -0.2291  0.2597
31202W        W47336  17.119   9.994   1.548 -0.1515  0.0162 -0.0426
31203W        W47337   5.727   2.487   4.356  0.2587 -0.3323  0.0089
31204W        W47338   2.657  16.299  12.110  0.2742  0.2800  0.0861
31205W        W47339   0.757   7.129  14.432  0.0447  0.0855 -0.1788
31206W        W47340   1.047  18.151   3.417  0.1116 -0.1594  0.2493
31207W        W47341   0.893   1.305  14.972  0.3514 -0.0159 -0.0349
31208W        W47342   3.988  16.389  14.019  0.2394  0.2893  0.1178
31209W        W47343   0.544  10.730   0.970  0.1285  0.1635  0.0456
31210W        W47344   8.255  14.822  12.345  0.1543 -0.0267  0.1056
31211W        W47345   2.767   8.260   0.751 -0.2158  0.4009 -0.2055
31212W        W47346   0.516   2.448   3.204 -0.2927  0.0126  0.3532
31213W        W47347   2.410   1.806   2.763 -0.2316 -0.1882  0.2738
31214W        W47348   0.423   0.989   3.525  0.0563  0.0860 -0.0588
31215W        W47349  18.430  12.966   0.638  0.0894  0.0355 -0.1615
31216W        W47350   1.633   3.318  12.660  0.1237 -0.2311  0.2402
31217W        W47351  18.629   8.497  10.683  0.2697 -0.0983  0.0996
31218W        W47352   4.148  14.919   0.557  0.1050  0.0909  0.0255
31219W        W47353   7.201   5.469   3.880  0.0451 -0.3759 -0.1584
31220W        W47354   3.586  16.665  14.147  0.2027 -0.1086  0.1817
31221W        W47355  14.013   4.404  13.589  0.1674 -0.2076  0.3376
31222W        W47356  11.975  14.525   3.415 -0.0523  0.0673  0.3490
31223W        W47357  18.546   1.112   0.769 -0.1320  0.3085  0.1548
31224W        W47358   6.327  19.222   4.369 -0.2829  0.0388 -0.0568
31225W        W47359  18.978   7.740   4.863  0.0036  0.3250 -0.1021
31226W        W47360   0.685   9.981   0.198 -0.0253 -0.1402  0.1116
31227W        W47361  13.376  16.539   2.539 -0.0601  0.0002 -0.0699
31228W        W47362   6.368   3.582   0.383  0.1763 -0.1540  0.0150
31229W        W47363  13.887  11.738  12.645 -0.2160 -0.3094 -0.1443
31230W        W47364   5.500   5.823  14.553 -0.2558  0.1848 -0.2448
31231W        W47365   6.414   0.710   3.536 -0.0969 -0.0986  0.3531
31232W        W47366   6.819   7.506   5.247  0.1360 -0.0390  0.0630
31233W        W47367  15.277  15.766   3.923  0.2494 -0.0043  0.1739
31234W        W47368  12.774  16.131  14.319  0.1092 -0.2006 -0.1217
31235W        W47369  15.981   7.057  11.591 -0.2163 -0.1746 -0.3224
31236W        W47370   6.446   9.113  10.347 -0.2134  0.1555 -0.1352
31237W        W47371  19.265   7.900  12.489  0.2737  0.0766  0.1012
31238W        W47372   7.695  12.246   2.350 -0.1143  0.1128 -0.1472
31239W        W47373  15.478   4.446   2.564 -0.2858  0.0080 -0.1832
31240W        W47374   1.854   8.489   1.298  0.1301  0.1267  0.3712
31241W        W47375   7.212   1.642   0.105  0.2157  0.1780 -0.1810
31242W        W47376  18.131  18.683  13.038 -0.0594  0.1631  0.2339
31243W        W47377  19.272  13.954   0.150  0.0354 -0.1976 -0.5514
31244W        W47378  15.476   8.040  14.543 -0.1053 -0.0119 -0.0385
31245W        W47379   9.699  15.468  12.241  0.1947  0.1314  0.0325
31246W        W47380   7.293   3.695  11.575  0.0459  0.4217 -0.1453
31247W        W47381  15.246   9.949  12.024 -0.0780 -0.4233  0.0228
31248W        W47382  11.759   9.061   0.064  0.2196  0.4371 -0.2619
31249W        W47383  10.679   6.896   0.197  0.1989  0.1238  0.1231
31250W        W47384   5.270  11.575   4.638 -0.0300  0.2446  0.1140
31251W        W47385   7.872   2.299   2.563  0.2063 -0.0191 -0.4388
31252W        W47386  19.298   2.126   0.487 -0.0599  0.0562 -0.2976
31253W        W47387  16.483   4.190  13.662  0.1575 -0.0411  0.0760
31254W        W47388   6.114   5.098   0.306  0.3561  0.1802 -0.1353
31255W        W47389  18.863  17.171  12.951  0.0832  0.0888  0.0152
31256W        W47390   7.702  17.206   1.321  0.3484 -0.0504  0.0455
31257W        W47391   3.324  14.862   1.276 -0.1093  0.3399  0.0597
31258W        W47392   2.494   2.026   0.194  0.2203  0.0763  0.0433
31259W        W47393  12.039  16.081   4.287  0.0179  0.3083  0.1243
31260W        W47394  12.335  18.825   3.512 -0.3401  0.0391  0.0968
31261W        W47395   8.120   9.001   5.061 -0.1814  0.1914 -0.0648
31262W        W47396   9.984  13.650   1.753 -0.0443 -0.0620 -0.0895
31263W        W47397   9.670   2.491  14.019  0.0550  0.1992  0.3028
31264W        W47398  11.474   7.783  14.473  0.0224 -0.2253 -0.0898
31265W        W47399   7.030   7.862  12.486 -0.1854  0.0909  0.0158
31266W        W47400   7.108   2.241   4.283 -0.0058  0.0935 -0.0309
31267W        W47401   2.838   5.667  11.532 -0.0566  0.1437  0.0962
31268W        W47402   1.468  10.276   2.150  0.1390  0.1163  0.0310
31269W        W47403   2.743  11.736  13.933  0.0405  0.0336  0.2282
31270W        W47404   0.307  16.805   2.319 -0.2881 -0.3213 -0.1855
31271W        W47405   7.796  15.359  11.310  0.0628 -0.0350 -0.1727
31272W        W47406   2.578   6.641  13.036  0.3372 -0.2471  0.0339
31273W        W47407   7.822   1.876   5.956 -0.5109 -0.2846  0.0248
31274W        W47408  10.726   7.622   3.035  0.2590 -0.1666 -0.1274
31275W        W47409   0.630   6.336  10.327  0.0409 -0.4088  0.1982
31276W        W47410  13.108  17.119   2.230  0.2483  0.0170 -0.2338
31277W        W47411   6.806   9.541   3.284  0.2207 -0.0972  0.1525
31278W        W47412  15.366  15.180  13.369  0.2234 -0.0797  0.3117
31279W        W47413  11.938   4.165  14.340 -0.1581 -0.2537 -0.2821
31280W        W47414  13.026  12.798   4.990  0.4556 -0.0697  0.0233
31281W        W47415  13.300   7.361  13.875  0.2621  0.2455  0.0166
31282W        W47416  10.736   4.084  11.841 -0.2873 -0.4075 -0.1073
31283W        W47417  18.363   5.968  14.236  0.2952  0.0016 -0.0316
31284W        W47418   5.000  16.071   0.476 -0.1422 -0.1605 -0.1067
31285W        W47419  13.424   2.385  11.951 -0.1549  0.0920  0.2677
31286W        W47420   1.539   7.476  12.706 -0.2665 -0.1601  0.2924
31287W        W47421  17.202  12.645  13.494  0.0884 -0.0234  0.2284
31288W        W47422   1.108  10.969  13.804 -0.2622 -0.0656  0.3414
31289W        W47423   8.907  12.301   2.705 -0.4059 -0.0160  0.0769
31290W        W47424   8.548   0.380  14.757  0.0562 -0.1720 -0.1752
31291W        W47425   7.586   0.892   1.793 -0.1762 -0.0145 -0.0678
31292W        W47426   2.696   3.307  10.586 -0.1444  0.0415 -0.3287
31293W        W47427   1.423   2.334   9.790  0.1799 -0.0083  0.0948
31294W        W47428  12.674  18.430   0.357 -0.4372  0.0532 -0.1503
31295W        W47429   8.628   8.367   2.501  0.2310  0.1560  0.0568
31296W        W47430  10.558  15.051   0.059 -0.0498 -0.1181  0.1629
31297W        W47431   8.103   5.779   1.367  0.0494 -0.2449 -0.2395
31298W        W47432   9.791   6.629   5.295 -0.1774  0.0548  0.1704
31299W        W47433   4.391  14.993   2.496 -0.0603  0.0728  0.2088
31300W        W47434  14.968  16.706  12.526 -0.3988  0.1197  0.3304
31301W        W47435  17.168  14.689   0.272 -0.0722 -0.0788  0.3570
31302W        W47436  10.640   3.194   5.537  0.2518  0.1571  0.0597
31303W        W47437   5.822  13.888  13.068 -0.1843  0.0776 -0.0087
31304W        W47438   5.445   1.946  11.874  0.0111  0.0471  0.0889
31305W        W47439   9.689  13.653   2.801 -0.1310 -0.2672 -0.3846
31306W        W47440  12.917   1.446   2.155  0.0520 -0.0602 -0.2351
31307W        W47441  11.949   6.650  10.794 -0.1527 -0.3255  0.2668
31308W        W47442  12.093   4.911   1.353 -0.1207 -0.0030 -0.1534
31309W        W47443   9.732  14.455   2.563  0.2938 -0.1820 -0.0980
31310W        W47444  17.652  18.564   0.848 -0.0412 -0.4265 -0.0145
31311W        W47445  18.027  12.989  11.949  0.2301  0.1405 -0.2700
31312W        W47446  11.162  10.392   0.237 -0.4504  0.0046  0.0351
31313W        W47447   2.594   9.236  14.360 -0.2452  0.0369  0.0562
31314W        W47448  15.855  13.524  14.010 -0.0379  0.1061  0.0934
31315W        W47449   6.065   2.516  14.656 -0.1346  0.0557 -0.1254
31316W        W47450  17.780  16.273  12.483 -0.1689  0.2494 -0.0911
31317W        W47451  12.746  16.296  10.912  0.1390 -0.1621  0.0540
31318W        W47452  15.676   2.242  13.888  0.0814 -0.0845 -0.1169
31319W        W47453   1.868  12.519  13.935 -0.1204 -0.0300 -0.3767
31320W        W47454   8.509  12.710   0.619  0.0659  0.0953  0.2085
31321W        W47455   9.763   9.817  12.181  0.1767  0.2375 -0.0549
31322W        W47456   2.776   2.602   2.689  0.2899  0.4367  0.1018
31323W        W47457   7.561   0.738  13.119  0.1282 -0.2066 -0.1675
31324W        W47458  14.935   9.578  14.696 -0.2226  0.4329  0.2219
31325W        W47459   4.013   3.060   5.061  0.0358 -0.0968 -0.2548
31326W        W47460   6.829  18.720  11.107 -0.1444 -0.2218  0.2139
31327W        W47461  10.962  11.724  12.370  0.1476 -0.1058 -0.1581
31328W        W47462  10.725   1.481  12.144 -0.0883  0.0586  0.1791
31329W        W47463   7.691  13.259  13.554 -0.0848  0.0215  0.2303
31330W        W47464  16.731   6.065  11.349 -0.0314  0.0671 -0.3137
31331W        W47465  12.213   4.475  11.914  0.0278  0.1672  0.1149
31332W        W47466  10.789   0.381   1.550  0.2833 -0.1626  0.1271
31333W        W47467   7.712   0.938   3.601  0.0308  0.0340  0.1808
31334W        W47468  10.123   4.607  12.859 -0.4549 -0.1494  0.0206
31335W        W47469   3.242   0.127  11.904 -0.1422 -0.3312 -0.1410
31336W        W47470  18.647   5.797  14.676 -0.1179 -0.4354  0.2462
31337W        W47471   6.902  12.890  14.618  0.3111 -0.0587 -0.2428
31338W        W47472  14.554   4.153   3.050 -0.0559 -0.0915 -0.2205
31339W        W47473  12.283   6.897  11.663  0.1090 -0.1006  0.2361
31340W        W47474   7.577   1.628  11.917 -0.3544  0.1745 -0.0451
31341W        W47475  16.511  17.696   3.555  0.1087 -0.0187  0.0702
31342W        W47476  12.227   5.960   2.578 -0.5309 -0.0454 -0.0359
31343W        W47477  16.293   0.033  11.950 -0.1883  0.2168 -0.2325
31344W        W47478   1.291  14.721  11.913 -0.3658  0.0642  0.1004
31345W        W47479  16.575  13.422  11.388 -0.2593  0.1196  0.4887
31346W        W47480   7.719  16.174  11.050  0.4747 -0.1132 -0.1956
31347W        W47481   5.930  18.929   1.824  0.0826 -0.0445 -0.0372
31348W        W47482   1.415   3.207  14.491  0.1920  0.0585 -0.1721
31349W        W47483   9.288  18.693   3.215  0.0766  0.0716 -0.0346
31350W        W47484  14.972  13.992  11.458  0.4464  0.1119 -0.1292
31351W        W47485   7.507  11.776  12.607 -0.1717  0.0568 -0.4399
31352W        W47486   8.793   0.806  14.974  0.1257  0.1230 -0.0492
31353W        W47487   2.920   6.855   3.959  0.0992  0.2163  0.0336
31354W        W47488   7.855  13.423   0.634  0.4008  0.0686  0.1426
31355W        W47489   5.169  16.659  10.666  0.3549 -0.1216  0.1197
31356W        W47490  18.411   9.164  11.252  0.1420  0.0834 -0.0841
31357W        W47491  10.997   6.652  11.051  0.0319 -0.0464  0.0841
31358W        W47492   2.486   6.093   0.552 -0.0257 -0.2473 -0.3511
31359W        W47493  13.422   3.113   2.320 -0.0254 -0.2696  0.0258
31360W        W47494  16.703   0.701   1.946 -0.0880  0.0486 -0.1027
31361W        W47495   2.004   9.700  11.342 -0.0812  0.2036  0.4227
31362W        W47496  15.259  15.007  11.567  0.0022  0.0411  0.1068
31363W        W47497   3.129  15.215  13.464  0.0261 -0.4437  0.1196
31364W        W47498  14.255   4.960  13.674  0.2011  0.2619  0.1218
31365W        W47499   8.420   9.172  11.845  0.0185 -0.1055 -0.2688
31366W        W47500  17.082   2.536   3.719 -0.1823  0.1972  0.0418
31367W        W47501  12.770  14.942   5.177 -0.0073  0.0100  0.0844
31368W        W47502   4.009   3.307   4.574  0.1249 -0.0468 -0.0759
31369W        W47503   9.058   8.143   2.340  0.4625 -0.2799  0.0522
31370W        W47504  10.496   9.711   2.723 -0.0737  0.4021 -0.0361
31371W        W47505   5.467  16.999  14.848 -0.0509 -0.1116 -0.0258
31372W        W47506   6.142  16.683  11.520 -0.2915 -0.0955 -0.4014
31373W        W47507   3.759  17.546  12.824  0.1077  0.1047  0.0483
31374W        W47508  14.396   9.688  14.626 -0.0347  0.1098 -0.1599
31375W        W47509   8.485  12.531   4.927  0.0898 -0.1833  0.1897
31376W        W47510   4.988   5.620   2.550  0.0513  0.0269  0.0343
31377W        W47511  12.007   6.844  13.763 -0.0656 -0.0467 -0.2494
31378W        W47512   5.321   0.115   0.189  0.3836  0.2677  0.3108
31379W        W47513   2.586   1.836  12.114 -0.1173 -0.2306  0.1444
31380W        W47514   6.846   6.203   0.543  0.2035 -0.0505  0.1851
31381W        W47515   9.757  13.132  14.160 -0.1304  0.2017 -0.1603
31382W        W47516  18.067  13.084  13.744  0.3747  0.2730 -0.0402
31383W        W47517  18.772   2.891   0.727  0.1316 -0.1340  0.2203
31384W        W47518  12.594   9.598   3.001 -0.3543  0.0350 -0.2031
31385W        W47519   1.805   9.470   2.268 -0.3182 -0.1692  0.0593
31386W        W47520  14.968   0.253   9.615  0.3219  0.2074 -0.2701
31387W        W47521  10.391   7.650  10.416  0.2233 -0.0747  0.3952
31388W        W47522  17.246  14.627  12.338 -0.5733 -0.1292  0.1103
31389W        W47523   5.659   7.025   1.019  0.1217 -0.2198 -0.1105
31390W        W47524   9.413   2.017  11.711 -0.3787 -0.5112 -0.3441
31391W        W47525  12.985   1.385   4.233 -0.2475 -0.1390 -0.0634
31392W        W47526   9.849   9.506   1.148  0.2825 -0.0684  0.0149
31393W        W47527   7.546   9.386   1.202 -0.1564 -0.3742  0.1747
31394W        W47528  15.455  12.154   3.229 -0.1666 -0.2568 -0.0322
31395W        W47529   2.344   4.526   8.888 -0.2245 -0.0831  0.0478
31396W        W47530  17.790  13.503   6.299  0.1086  0.0938  0.0255
31397W        W47531  17.478  17.853   4.207  0.1319  0.1141 -0.2243
31398W        W47532  10.483   5.335   9.933 -0.0308 -0.2195  0.0941
31399W        W47533   6.583  12.214  14.093  0.3096 -0.2083  0.1774
31400W        W47534   6.019   0.118  14.292 -0.0704  0.0579 -0.2881
31401W        W47535  11.133   5.068  14.254 -0.1834  0.0179  0.2560
31402W        W47536  13.122   6.476   1.121 -0.0604 -0.0251  0.0895
31403W        W47537  16.025  17.692  14.628 -0.2403 -0.5046 -0.1465
31404W        W47538   9.139   4.569  10.844  0.0460  0.0800  0.1315
31405W        W47539   0.517  12.552   1.490 -0.1310  0.0952 -0.0218
31406W        W47540   0.674   1.501   1.500  0.0635  0.0682 -0.1924
31407W        W47541  12.919   1.275  11.040  0.2131  0.2889  0.1184
31408W        W47542   2.360  15.364   2.039 -0.1279 -0.0349  0.1754
31409W        W47543   0.217  16.800  11.072  0.2178 -0.4838 -0.1969
31410W        W47544  18.283  17.843   3.549  0.0518 -0.1352 -0.2061
31411W        W47545  12.968  10.870  10.664  0.3183  0.0490  0.1314
31412W        W47546   7.489   2.699   0.519 -0.2820  0.0953 -0.3107
31413W        W47547  14.984  17.757  14.939  0.0630 -0.2550 -0.0817
31414W        W47548   6.079  17.961   1.392 -0.1128 -0.1503 -0.4062
31415W        W47549   4.259   2.571  14.718  0.0191  0.0708 -0.0569
31416W        W47550   7.713   4.613   2.428 -0.0855 -0.0243 -0.2208
31417W        W47551   3.871  18.785  10.442  0.4571  0.1802  0.0800
31418W        W47552   4.274  13.924   2.621  0.0458  0.2335 -0.0912
31419W        W47553  16.890   3.868   2.596  0.0068  0.1540 -0.0884
31420W        W47554   8.520   0.870   2.650 -0.0485 -0.0997 -0.0410
31421W        W47555  16.637   9.898   4.062  0.1604  0.0957  0.1240
31422W        W47556  13.779  10.093   4.521  0.1311 -0.0506  0.1051
31423W        W47557   8.787   6.588   5.318 -0.1102  0.1328 -0.3492
31424W        W47558   6.309  17.604   1.860 -0.2578 -0.2282  0.0272
31425W        W47559   0.770   7.308  10.938 -0.2041  0.0985 -0.1106
31426W        W47560  14.016   7.441  11.530  0.0220 -0.1996 -0.0241
31427W        W47561  14.007   7.443  13.007 -0.0450 -0.1826 -0.3754
31428W        W47562   8.979  12.825  14.353  0.0166  0.3028  0.0192
31429W        W47563  10.526  11.031   4.574  0.2234 -0.1437  0.0554
31430W        W47564  11.043   8.563   2.254 -0.0883 -0.0902  0.2435
31431W        W47565  16.095  13.746  13.444 -0.0744  0.0073  0.0329
31432W        W47566   7.914  17.633  12.915 -0.1006 -0.1055  0.2559
31433W        W47567  18.209   7.298  14.156 -0.0657  0.3418 -0.1831
31434W        W47568  12.836   6.087  11.397  0.0543  0.0792 -0.2538
31435W        W47569  10.349   8.474  11.368 -0.0296 -0.1387 -0.0924
31436W        W47570   4.117  12.842   4.071  0.3457 -0.1281  0.0435
31437W        W47571  16.460  14.296  11.737 -0.0180  0.0513 -0.0973
31438W        W47572   7.537  10.660  12.969 -0.0399 -0.3009 -0.0705
31439W        W47573  13.501   0.123  11.070 -0.0530 -0.2332  0.4649
31440W        W47574   8.859  13.236  12.731  0.0467 -0.1420  0.1069
31441W        W47575   4.515   3.160  14.151  0.2950  0.2271 -0.0472
31442W        W47576   1.014  17.461   2.382  0.3141 -0.2319  0.2338
31443W        W47577  18.055   5.235  14.314 -0.3419  0.0676  0.0762
31444W        W47578   4.538   6.067  11.894  0.1968 -0.2825 -0.1755
31445W        W47579   5.140  18.138  10.695 -0.0786  0.4480 -0.1040
31446W        W47580   6.009   1.962  13.050 -0.1141 -0.1582  0.0393
31447W        W47581   0.576   5.232  11.741  0.0310 -0.1527  0.1011
31448W        W47582   4.541   5.270   2.409  0.0082 -0.5707 -0.2419
31449W        W47583  13.325   4.464  10.838 -0.0184  0.2109 -0.1426
31450W        W47584  12.535  15.888   3.962 -0.0683 -0.0751  0.1687
31451W        W47585  12.614  11.996   1.289 -0.0058 -0.0180  0.0129
31452W        W47586  11.462  14.096   2.550  0.2796 -0.1030 -0.0420
31453W        W47587  11.413   8.856  12.767  0.0093 -0.0091  0.0058
31454W        W47588  15.108   5.337   2.511 -0.2808  0.3405  0.1436
31455W        W47589  18.143   0.296  12.860 -0.2042 -0.2889  0.2734
31456W        W47590  11.077   8.575  14.896 -0.2471  0.0560 -0.3176
31457W        W47591  16.002  11.106  11.483 -0.0612 -0.3239 -0.1847
31458W        W47592   0.261  17.902  11.946 -0.0420  0.0203 -0.0879
31459W        W47593   9.442  15.097   1.429  0.0102 -0.1426 -0.1167
31460W        W47594  14.364  16.903  13.382 -0.2323  0.0137  0.0061
31461W        W47595  16.599  11.391   4.534  0.0203  0.1345 -0.3211
31462W        W47596  17.542  15.947   3.260 -0.0102  0.1242  0.1637
31463W        W47597  12.033   6.423  11.394  0.2100  0.1257 -0.0477
31464W        W47598  14.699  12.533   3.838 -0.1538  0.0160 -0.2522
31465W        W47599   4.497   6.097  10.445  0.0921  0.1662  0.0468
31466W        W47600  17.188  15.933   2.899 -0.0219  0.1659 -0.0038
31467W        W47601  16.641   6.889  10.188  0.2324  0.4535  0.0575
31468W        W47602   0.237  16.243   9.900 -0.1385 -0.1941  0.0166
31469W        W47603  10.963   7.676  11.010  0.0818  0.1671  0.0042
31470W        W47604   2.272  13.310   0.919 -0.3708  0.1958  0.1006
31471W        W47605  15.896   4.940   1.330  0.0306 -0.0798 -0.2583
31472W        W47606  14.315  12.099   4.423  0.3044 -0.0060  0.3005
31473W        W47607   5.849   3.985  13.181  0.2996  0.1346  0.1828
31474W        W47608  19.177  13.937  14.146 -0.1378  0.1321  0.0045
31475W        W47609   5.661   0.456  10.807  0.1496  0.2223 -0.0799
31476W        W47610  14.979  15.274   2.612 -0.0064 -0.0473 -0.1139
31477W        W47611   8.419   4.634   3.582  0.3258 -0.0594  0.2990
31478W        W47612  17.327   4.064  11.424  0.2611  0.3119 -0.3196
31479W        W47613  18.906  13.781  14.602  0.2938 -0.0995  0.2384
31480W        W47614  14.769   9.726   2.191  0.0238  0.3597 -0.3683
31481W        W47615  15.668   0.816   4.893  0.1441 -0.2698 -0.1450
31482W        W47616   2.821   3.307   0.506 -0.1724 -0.2556  0.2732
31483W        W47617   4.346  18.918  10.447  0.2591  0.4355 -0.0564
31484W        W47618   0.642  13.136   4.758 -0.0984 -0.0651 -0.1243
31485W        W47619   5.047   5.595   0.374  0.1338  0.0180 -0.5428
31486W        W47620  16.127   2.532  13.522  0.0860 -0.1688 -0.1894
31487W        W47621   0.094  19.044   1.696  0.2252 -0.2622 -0.0869
31488W        W47622   6.080  17.569  12.574 -0.1120 -0.0130  0.3177
31489W        W47623   0.831  12.029  13.578 -0.0682  0.2530  0.0000
31490W        W47624   5.864  15.652   5.849 -0.1514 -0.2559 -0.2953
31491W        W47625  14.006   9.687   4.074  0.0206  0.0918  0.1959
31492W        W47626   6.549  13.579   0.274  0.1338 -0.2248  0.0937
31493W        W47627  10.240  17.942   2.224  0.0037  0.2257  0.0583
31494W        W47628   0.047  17.450  10.211  0.3691 -0.4101  0.0947
31495W        W47629   9.203  12.090   2.270 -0.0229 -0.0949  0.0603
31496W        W47630  14.969   3.785  10.531 -0.0518  0.2237  0.1098
31497W        W47631   8.106  14.695   4.399 -0.1511 -0.0068  0.0595
31498W        W47632   5.806   0.528   5.314 -0.1179 -0.2077 -0.1848
31499W        W47633   1.896   5.976   4.520  0.0377 -0.3028  0.0403
31500W        W47634  13.107  17.679   2.195 -0.3487  0.1028  0.2830
31501W        W47635   7.398  18.954  13.102 -0.0325  0.1736  0.0903
31502W        W47636   6.245  13.592   3.728  0.0123 -0.0525 -0.1986
31503W        W47637  14.450  17.913   4.411  0.2598 -0.0663  0.0955
31504W        W47638   1.913   1.434  11.535  0.0512 -0.4351 -0.2586
31505W        W47639   0.834  17.893   3.881 -0.0803 -0.0884 -0.1284
31506W        W47640   8.229  13.688  14.254  0.0129 -0.0953  0.2607
31507W        W47641   8.792   4.711  12.926  0.0800 -0.3190 -0.0640
31508W        W47642   5.910  11.210   5.163  0.0127 -0.0808 -0.3469
31509W        W47643   8.876   7.432   2.754 -0.0811  0.1440  0.2868
31510W        W47644  18.846  11.778   1.170 -0.1259 -0.0129 -0.8890
31511W        W47645   7.210   8.120   1.026 -0.1919 -0.2406 -0.2227
31512W        W47646   6.615  18.193  13.914 -0.1244 -0.4764 -0.0430
31513W        W47647   1.727   5.364  10.735  0.2144  0.0381 -0.0732
31514W        W47648  13.607  14.427  14.198 -0.3353  0.2262 -0.1429
31515W        W47649  10.797   1.370   2.593  0.3107 -0.1306 -0.0135
31516W        W47650   0.737  13.990  12.300  0.2238  0.0783 -0.0916
31517W        W47651   7.542  12.773  13.251  0.0256 -0.1977 -0.0847
31518W        W47652   3.821   8.297  11.945 -0.0558  0.1103  0.3749
31519W        W47653   5.880   7.135   4.506 -0.0129  0.0957  0.0713
31520W        W47654   5.993  18.034  11.253  0.1113 -0.1577 -0.1507
31521W        W47655  14.120   3.404  11.174 -0.2215  0.3805  0.1852
31522W        W47656   0.171  18.202  11.356 -0.1762  0.0817 -0.2247
31523W        W47657  19.088  14.941   3.305  0.1930  0.3461 -0.2087
31524W        W47658  10.870   9.448   9.388  0.4887  0.0418 -0.3593
31525W        W47659   9.555  16.023  14.318 -0.0374 -0.0109  0.0404
31526W        W47660   8.565   1.973  13.340  0.0194  0.0589 -0.2445
31527W        W47661  12.672   7.283   2.700  0.2554  0.2364 -0.1601
31528W        W47662  14.287   8.063   2.134  0.1871 -0.1400  0.1559
31529W        W47663  18.990   2.353   4.746 -0.2241 -0.1912  0.2737
31530W        W47664   2.964   2.861   1.202 -0.1593 -0.1374 -0.1803
31531W        W47665   7.463   0.392  12.718  0.2175  0.0069  0.0285
31532W        W47666   4.364   3.045  14.677  0.1725  0.1014  0.1083
31533W        W47667  18.528   2.185  10.452  0.0961  0.0460  0.0697
31534W        W47668  13.519   1.082  12.283 -0.3083  0.4327  0.3975
31535W        W47669  15.176   1.558  13.685 -0.2710 -0.1989 -0.0302
31536W        W47670  12.384  14.314   3.304 -0.1712 -0.1609  0.3411
31537W        W47671   1.290  13.093   1.702  0.2817 -0.2071 -0.1011
31538W        W47672   4.911  15.117   0.930  0.0456 -0.3808  0.0663
31539W        W47673   2.965   1.043   2.298  0.2541 -0.0404 -0.2180
31540W        W47674  16.315   1.300   3.643 -0.1500  0.0463  0.3123
31541W        W47675  10.982   9.566  13.308  0.0234  0.1809 -0.1077
31542W        W47676  18.930   9.904  12.134 -0.1816 -0.2128  0.3179
31543W        W47677   4.341   3.313  12.111 -0.0606 -0.0788 -0.0270
31544W        W47678   2.292  17.846  10.875 -0.0806  0.0098  0.0527
31545W        W47679  14.331   3.542   0.141 -0.0959 -0.0801 -0.2592
31546W        W47680  10.347   4.658   4.520 -0.1556 -0.0222  0.0036
31547W        W47681  14.829   1.636  14.290 -0.1485 -0.0254  0.0456
31548W        W47682   4.981  11.458   5.128  0.1394  0.1952  0.3122
31549W        W47683   5.114   0.102   1.006 -0.0633  0.1590  0.2858
31550W        W47684  14.654   3.480  11.736  0.0309  0.3193  0.0462
31551W        W47685  11.639  11.994  10.781  0.2649  0.3984 -0.1510
31552W        W47686   0.516  13.378   1.777  0.0655  0.1991 -0.0501
31553W        W47687  15.522  12.335   3.879 -0.3946 -0.2021  0.2548
31554W        W47688   7.758   5.037   1.726 -0.1640 -0.1988 -0.0533
31555W        W47689   2.623  13.621   0.833 -0.1778  0.1597  0.3221
31556W        W47690   7.454   0.945   4.282  0.1486  0.0773  0.0510
31557W        W47691  18.318  10.412  14.127 -0.0841  0.0575 -0.1798
31558W        W47692   6.548  15.227  10.900  0.2540  0.1495 -0.2060
31559W        W47693  16.272   4.720  11.520 -0.0867  0.4717  0.1675
31560W        W47694  11.508   9.132  14.108 -0.4683  0.1612 -0.1927
31561W        W47695  16.857   5.629   3.222  0.1849 -0.3048  0.2734
31562W        W47696  16.106  15.526   1.291  0.3777  0.0781  0.1933
31563W        W47697   6.923   9.384  13.487 -0.1889 -0.4398 -0.1035
31564W        W47698  19.071   8.849  12.870  0.3556  0.1716  0.1070
31565W        W47699  11.856  10.644   3.674  0.2491  0.0729  0.1012
31566W        W47700   0.647  16.715   2.642 -0.0374 -0.1893 -0.1806
31567W        W47701  13.572  15.973   9.687 -0.2668  0.3013 -0.0123
31568W        W47702  13.048  12.508  10.607 -0.1723 -0.0583 -0.2949
31569W        W47703  10.040  15.118   2.686  0.2665 -0.4506  0.0734
31570W        W47704  17.679   2.091   1.963  0.2490 -0.0141 -0.1938
31571W        W47705  11.810  10.883  10.606  0.0203  0.1561 -0.1936
31572W        W47706   7.230  12.344   0.302 -0.2187 -0.1104 -0.3549
31573W        W47707  12.132  17.183   0.445  0.0105 -0.1869 -0.0438
31574W        W47708  17.342   2.800  12.887 -0.2591  0.1662 -0.1236
31575W        W47709  13.308  13.814  14.679 -0.3391  0.3564 -0.0985
31576W        W47710  15.812   3.167   2.675 -0.1440 -0.0055 -0.1050
31577W        W47711   1.540   8.287  10.846 -0.2516 -0.0304  0.0451
31578W        W47712   3.824   7.986  11.165  0.1268 -0.1651  0.1364
31579W        W47713  18.807  14.297  10.018  0.1087 -0.1655 -0.2038
31580W        W47714  18.528  15.748  10.021  0.0555 -0.2818  0.0271
31581W        W47715  13.250  17.203  12.505  0.2092 -0.0289  0.1910
31582W        W47716  18.163  14.024   4.987  0.0278  0.1828  0.2301
31583W        W47717  15.326  17.370  11.576  0.2276 -0.1081  0.1619
31584W        W47718   6.225   8.023   0.722  0.0256  0.4954  0.0421
31585W        W47719  14.569  17.921  10.704 -0.0963 -0.0576 -0.2989
31586W        W47720   9.368  12.578  12.861  0.0864  0.1253  0.3727
31587W        W47721  18.839   3.519  10.549 -0.2438  0.1427 -0.1939
31588W        W47722   9.229  10.943   2.282  0.1149 -0.0927 -0.1164
31589W        W47723  12.968  10.672   5.306  0.0542  0.3810 -0.1515
31590W        W47724  13.539   8.954  13.102  0.0713 -0.2442  0.1637
31591W        W47725   3.487  10.443  11.862 -0.3869 -0.5190 -0.0566
31592W        W47726  17.100  15.379  10.258  0.1492 -0.0466  0.0098
31593W        W47727  10.606  11.797  14.114 -0.0682 -0.0843 -0.0693
31594W        W47728   4.305  17.268   2.313 -0.0582 -0.1646  0.4816
31595W        W47729  11.569  10.289  13.470  0.1380 -0.1402  0.1252
31596W        W47730   7.239  14.589   0.277 -0.1126 -0.0965 -0.2390
31597W        W47731   5.087   6.937  13.518 -0.0155  0.2092 -0.0123
31598W        W47732  10.147   3.158  14.912  0.1700 -0.1857 -0.2488
31599W        W47733  18.716   3.265   4.071  0.1127  0.1683  0.1105
31600W        W47734   8.707   6.615   3.116 -0.0832  0.0922 -0.1055
31601W        W47735   2.067  14.044   0.219 -0.2375 -0.1173 -0.1930
31602W        W47736  19.119  11.398  13.887 -0.1805  0.0405  0.1237
31603W        W47737  14.866  19.261   3.553 -0.1803  0.1333  0.3540
31604W        W47738  11.222  10.176   1.846  0.1898 -0.2748  0.0800
31605W        W47739   3.417   2.557  14.666 -0.0605  0.2063 -0.1937
31606W        W47740  17.074   8.927   2.985 -0.4138  0.2165  0.2004
31607W        W47741   9.253  15.645  12.027 -0.1128  0.1563  0.0159
31608W        W47742  11.991  17.489  11.638 -0.1108 -0.0735  0.1190
31609W        W47743   7.587   5.908   3.290 -0.3340 -0.0299 -0.3058
31610W        W47744  13.334   7.846  13.756 -0.5720 -0.0077 -0.3311
31611W        W47745   4.225   9.659  13.444  0.0282 -0.0571 -0.0439
31612W        W47746   3.491   8.512   1.388  0.1306 -0.3974  0.0882
31613W        W47747  13.927   4.594   1.484  0.3052  0.1929 -0.1532
31614W        W47748   4.785  10.548   1.309  0.4579 -0.2228 -0.1735
31615W        W47749  18.271  12.704   1.366 -0.0681  0.0387 -0.1456
31616W        W47750  17.996   7.501   3.257  0.1966 -0.0512 -0.0758
31617W        W47751   3.657  10.244   9.614 -0.2829  0.2512 -0.0606
31618W        W47752   6.615   3.572  12.793  0.1408  0.2545  0.2713
31619W        W47753   1.676  18.285  10.471  0.0938 -0.0141 -0.0059
31620W        W47754  12.310   0.256   2.246  0.1798  0.0840 -0.1702
31621W        W47755  14.663   4.564  12.695  0.3267  0.0750 -0.0461
31622W        W47756  14.730  19.315  11.924 -0.1825 -0.0407  0.0540
31623W        W47757   0.592   9.809  14.705 -0.3076  0.1959 -0.1078
31624W        W47758   4.528   7.816   3.879 -0.2666 -0.0603 -0.1604
31625W        W47759  18.908   7.334  12.048 -0.1592  0.1218 -0.1992
31626W        W47760   7.899   3.521   5.448  0.0663  0.3427 -0.3705
31627W        W47761  18.114   9.382   1.541 -0.0879  0.0921 -0.0957
31628W        W47762  11.759  19.054  12.812 -0.0587 -0.0221 -0.2597
31629W        W47763   9.048  18.919  13.113  0.2065 -0.2535  0.0919
31630W        W47764   0.155   6.771   4.535  0.1854  0.0197  0.1125
31631W        W47765   6.857  14.334   0.089  0.1842  0.1356  0.0464
31632W        W47766  18.068  10.260   3.037  0.2748 -0.1375  0.2917
31633W        W47767   9.970   8.578  14.259 -0.2240  0.1839  0.2083
31634W        W47768  10.681  14.366  10.927  0.1032 -0.2222  0.2250
31635W        W47769  16.257  17.931   2.736 -0.0668  0.2021 -0.1541
31636W        W47770  15.960  13.702   1.502  0.1006 -0.0572  0.1592
31637W        W47771   6.331  15.287   4.546  0.0260 -0.0886  0.1977
31638W        W47772  17.445   6.924  14.566  0.2553  0.0774 -0.2116
31639W        W47773   0.401  18.291  14.122  0.1828 -0.1451  0.0876
31640W        W47774   4.037   1.100   2.104  0.1546 -0.0165 -0.1683
31641W        W47775  16.185  10.988   2.125 -0.2188  0.1849 -0.3836
31642W        W47776   8.826  17.399  14.137 -0.0052  0.1926 -0.1124
31643W        W47777   4.486   4.694  11.196  0.3417  0.0711 -0.0213
31644W        W47778  17.219   1.035   3.709 -0.4125  0.0043  0.1303
31645W        W47779   8.848   5.144   0.334 -0.0283  0.2529  0.4185
31646W        W47780   1.406  11.142  10.096 -0.1892 -0.1790  0.0536
31647W        W47781  17.261   8.709  10.006 -0.1304  0.1032  0.0129
31648W        W47782   1.831  19.195  13.569  0.2060  0.2182  0.2066
31649W        W47783   0.700   1.724   0.056 -0.1762 -0.0459 -0.1320
31650W        W47784  17.957  12.093  11.615  0.1205  0.0787 -0.0037
31651W        W47785   3.023   9.377   1.806 -0.1832  0.1430 -0.2736
31652W        W47786  12.603   0.416   2.947 -0.1681 -0.0118  0.1287
31653W        W47787  19.273   0.994   3.729  0.1814 -0.1725 -0.0652
31654W        W47788  15.928  18.552  10.125  0.2538 -0.2455 -0.1130
31655W        W47789  13.846   1.303   4.759 -0.2649  0.2752  0.2313
31656W        W47790  12.402   1.360  14.305 -0.2571 -0.1650  0.0920
31657W        W47791  10.691   3.188   3.362 -0.1956  0.1095  0.3149
31658W        W47792   4.595  10.532  10.460  0.1455 -0.1381 -0.1902
31659W        W47793  17.936  17.839  14.849 -0.2826  0.0258 -0.0130
31660W        W47794   8.418  18.421   5.844 -0.1301  0.2025  0.2362
31661W        W47795  15.490  11.499  10.185  0.4884  0.2975 -0.1890
31662W        W47796   9.206  12.190  13.092 -0.3860 -0.1514 -0.1499
31663W        W47797  10.946  16.974   2.863 -0.3998  0.0699 -0.1736
31664W        W47798  15.310   4.990  10.785  0.5189 -0.0330 -0.1485
31665W        W47799   8.271  11.710   1.272 -0.0337 -0.2918  0.1802
31666W        W47800  14.869  16.796  11.970  0.0636  0.1772  0.1357
31667W        W47801  10.228  10.960   1.948 -0.0987 -0.1953 -0.0686
31668W        W47802  16.829   3.424  14.144  0.0437 -0.0601  0.1064
31669W        W47803   0.264   2.582   1.177  0.0279 -0.1416 -0.1350
31670W        W47804   9.722  14.549  11.868 -0.1026 -0.0791 -0.2334
31671W        W47805   0.412  10.272   2.932  0.1663 -0.1548  0.0825
31672W        W47806  11.319  13.217   0.569 -0.0661 -0.0017  0.2239
31673W        W47807  17.282   9.633  12.641 -0.0881  0.3849  0.1518
31674W        W47808  10.525  11.414  14.505 -0.0283 -0.0914 -0.2063
31675W        W47809   4.505   1.157  13.589 -0.1091  0.1580 -0.1316
31676W        W47810  12.361   3.034  14.466 -0.0544  0.1598  0.1352
31677W        W47811   2.938   9.365  12.355 -0.1409  0.0149  0.0083
31678W        W47812  18.126  17.566  10.404  0.3915  0.0233 -0.1363
31679W        W47813  14.249  16.830   0.478 -0.2335 -0.0086  0.1032
31680W        W47814   2.955   5.676   3.964  0.0765 -0.1611  0.0004
31681W        W47815  18.041   0.282   3.207 -0.1529  0.0398 -0.1962
31682W        W47816   6.696  17.748   3.130 -0.3020  0.0786  0.4020
31683W        W47817   7.193  18.214   2.826 -0.2482  0.0959 -0.1174
31684W        W47818  11.404   3.551  11.464 -0.2403  0.4659 -0.0507
31685W        W47819   9.419  13.067   1.304  0.0242 -0.2186  0.1055
31686W        W47820   4.114   8.470  14.024  0.1686  0.2363 -0.0856
31687W        W47821  16.273  10.836  13.020  0.0763  0.3557 -0.0305
31688W        W47822  12.779  15.185  11.809  0.1369  0.3075 -0.1590
31689W        W47823  17.630  12.447   0.560 -0.0620  0.0801 -0.2957
31690W        W47824   2.456   1.344  10.990  0.1125  0.0181  0.1908
31691W        W47825  13.956   3.839  13.821  0.0366  0.1439  0.0336
31692W        W47826  13.473  11.270   3.058 -0.2289  0.0571  0.2722
31693W        W47827   7.937  19.314   4.979  0.3281 -0.0455  0.2105
31694W        W47828   0.260   1.351  12.219  0.1252  0.0171 -0.0941
31695W        W47829   9.326   0.426   2.572 -0.0718  0.1300  0.1641
31696W        W47830   9.578   4.508   1.521 -0.2600  0.2070  0.0059
31697W        W47831   8.642   5.815   2.877  0.0098  0.1934  0.1127
31698W        W47832  17.713  10.683  11.854  0.0618 -0.2546 -0.0140
31699W        W47833  19.223   6.050  13.875  0.3786  0.2940  0.1107
31700W        W47834  12.353  13.058   2.481 -0.0799 -0.0147 -0.0398
31701W        W47835  10.101   0.809   0.448  0.3525  0.0572 -0.0287
31702W        W47836  13.380  13.918   3.773 -0.2017 -0.1381  0.0722
31703W        W47837   2.322   7.383  10.935 -0.2486  0.2813  0.2659
31704W        W47838   0.187  12.547   4.959  0.0237  0.1000  0.1852
31705W        W47839   7.272  15.684   4.913 -0.2117 -0.0985 -0.0352
31706W        W47840   3.797   0.395  11.966 -0.1191 -0.1554 -0.0050
31707W        W47841  14.497   9.746   3.998 -0.2192 -0.2299 -0.0728
31708W        W47842  10.741   7.301   4.551  0.1653  0.0004  0.2686
31709W        W47843  18.183  11.435   4.198  0.3666 -0.3485  0.2584
31710W        W47844   3.724  14.113   1.910  0.2167  0.2568 -0.2058
31711W        W47845   8.193  19.111   4.173 -0.0903 -0.0812  0.0305
31712W        W47846   5.807   9.213   2.876 -0.2336  0.2963 -0.3140
31713W        W47847  15.751   0.699  13.923  0.2079 -0.5109 -0.1015
31714W        W47848   8.062  12.248  10.689 -0.3040 -0.0784  0.1194
31715W        W47849  10.565  16.810  14.444 -0.1937  0.0865  0.3325
31716W        W47850  18.634  17.616  13.951 -0.2167  0.2678 -0.1973
31717W        W47851  11.830  14.533  12.499  0.0478 -0.3154  0.1112
31718W        W47852  17.088   0.529  12.239 -0.0366 -0.1429 -0.3026
31719W        W47853  14.456  15.854  14.056  0.0507 -0.2328 -0.2993
31720W        W47854  10.631  11.985  13.086  0.1254 -0.4262 -0.3225
31721W        W47855   3.642   4.249  13.783 -0.1191 -0.1945 -0.4327
31722W        W47856  12.362  14.982  14.933  0.0870  0.1102 -0.2734
31723W        W47857   4.667  12.980   9.656 -0.0392  0.5612 -0.1149
31724W        W47858  13.743   3.132  13.190  0.2439  0.1992 -0.2094
31725W        W47859  11.157   8.362  12.759  0.2689 -0.1596 -0.1225
31726W        W47860   3.787  10.809   3.155 -0.0947 -0.2436  0.2438
31727W        W47861   3.231  11.510  13.585  0.0960 -0.2277 -0.1614
31728W        W47862  18.057  15.335   4.144  0.0626 -0.2471  0.1173
31729W        W47863   1.648   2.945  10.724 -0.4148  0.0135 -0.0314
31730W        W47864  17.132   0.988   1.864  0.2990 -0.0081  0.3152
31731W        W47865   0.819  13.857  13.901 -0.0591 -0.0599  0.1375
31732W        W47866   2.449  13.584   4.253 -0.1962 -0.0971  0.1558
31733W        W47867   1.548   1.825   5.391  0.0559 -0.4785  0.0331
31734W        W47868  18.561  18.400  13.190  0.1455 -0.1337  0.1738
31735W        W47869   8.898   3.707   5.302 -0.1359  0.0738 -0.0491
31736W        W47870  15.803   8.272   2.996 -0.3362  0.0758 -0.1590
31737W        W47871   3.777   8.849  10.194  0.0275  0.2445 -0.4175
31738W        W47872  19.217   9.764   1.380  0.2737 -0.0245  0.1364
31739W        W47873   5.118  19.107   3.255 -0.0512  0.0704 -0.1268
31740W        W47874  18.835  13.068  10.419 -0.0567 -0.0914 -0.0659
31741W        W47875   6.181  13.186  11.514  0.1248  0.0115 -0.0100
31742W        W47876  17.560  19.249   3.822 -0.0830  0.3468 -0.1397
31743W        W47877   6.670   9.686  11.050  0.1179  0.1030 -0.2558
31744W        W47878   7.386  13.311   0.402 -0.1042  0.0470 -0.1451
31745W        W47879   2.331   9.465   2.126 -0.3292  0.2669  0.2839
31746W        W47880   4.029  13.850  12.067  0.3465  0.1405 -0.0773
31747W        W47881  17.446  16.106   4.285  0.3000 -0.0556  0.0616
31748W        W47882  18.663  12.582  12.849  0.1927 -0.1282  0.1664
31749W        W47883  15.074  15.637   4.353  0.1656  0.0695 -0.0781
31750W        W47884   3.331  18.917  13.729  0.1394  0.2921 -0.1748
31751W        W47885  17.722  16.086   2.832  0.0963 -0.1112 -0.0413
31752W        W47886  10.914  13.446  10.283 -0.0801  0.0269  0.0791
31753W        W47887  10.333  12.648  11.866 -0.1563 -0.2292  0.0405
31754W        W47888  14.541  15.838  12.981 -0.0654 -0.3020  0.1915
31755W        W47889  14.198  18.752   3.029 -0.2444  0.1535 -0.1268
31756W        W47890  18.030  10.538   0.269  0.0224 -0.3031  0.0076
31757W        W47891   8.254   0.117   5.304  0.1223 -0.2595 -0.1463
31758W        W47892   6.946  17.000  11.908 -0.2100 -0.0294  0.2848
31759W        W47893   8.314   3.834   0.877  0.2760 -0.0854 -0.1199
31760W        W47894   0.469  13.086  11.011 -0.0604  0.2916  0.3553
31761W        W47895   3.047   8.261   2.867  0.1415 -0.2017 -0.1402
31762W        W47896  10.025  16.899   0.216  0.1640 -0.2405  0.1349
31763W        W47897  17.454   3.277   3.209 -0.1775 -0.0609 -0.1439
31764W        W47898  17.954  16.694   2.777  0.0096 -0.4091  0.2307
31765W        W47899  13.467   8.195   0.668 -0.1503  0.0430 -0.0622
31766W        W47900   6.549  18.277   4.290 -0.2977  0.0555 -0.0230
31767W        W47901   3.234  14.954   3.659 -0.1084 -0.1893 -0.0117
31768W        W47902   3.016   3.567  11.874 -0.0555 -0.1784  0.2535
31769W        W47903  18.245  18.435  14.377  0.1597 -0.0491 -0.1401
31770W        W47904   1.522  13.183   4.248 -0.0428  0.3011 -0.2635
31771W        W47905  13.912   3.924   1.221  0.2116 -0.3309 -0.1919
31772W        W47906   1.692  19.309   3.729 -0.0403  0.3188 -0.0071
31773W        W47907   2.088  13.110   0.418  0.1512 -0.1313 -0.4481
31774W        W47908   2.474   9.139   1.727 -0.2347 -0.3757 -0.1472
31775W        W47909  11.258   3.074   4.365 -0.2456  0.0414  0.2097
31776W        W47910   7.614   5.983  12.822 -0.0030  0.3125  0.3304
31777W        W47911  19.230  16.424  14.624  0.0444  0.2137  0.1306
31778W        W47912  11.882  19.053   1.511 -0.3215 -0.1944  0.2517
31779W        W47913   4.407   9.653   4.698 -0.1090  0.0047  0.0354
31780W        W47914   8.240  14.039   1.964 -0.1012  0.1836 -0.2116
31781W        W47915   6.362   8.299   1.510  0.3607 -0.2181  0.0482
31782W        W47916   4.859   7.089   0.318 -0.0379  0.1241  0.1112
31783W        W47917   9.711  14.787  11.135  0.0268 -0.0155  0.0640
31784W        W47918   0.358   5.295  13.862  0.0292 -0.1034 -0.3607
31785W        W47919   1.221  10.150  13.042 -0.2416 -0.0551 -0.2235
31786W        W47920  10.593  17.927   0.053 -0.0355 -0.0675  0.1478
31787W        W47921  16.646  12.370  13.096 -0.0764 -0.0137  0.1717
31788W        W47922   4.114  17.444  11.521 -0.0733  0.0115  0.1103
31789W        W47923   4.842  18.942  11.664  0.1910 -0.0591  0.0023
31790W        W47924  12.274   6.911  14.807  0.2750 -0.1065  0.0652
31791W        W47925   8.857   4.005   3.697 -0.0782 -0.4019 -0.0981
31792W        W47926   8.848   2.214   5.390 -0.1938  0.2084 -0.2706
31793W        W47927  18.214   4.524  11.692 -0.2030  0.0678  0.0131
31794W        W47928  10.918   6.137   9.853 -0.4755 -0.0851 -0.1040
31795W        W47929   3.415  16.759   3.030  0.1310  0.1252 -0.3259
31796W        W47930  15.321   4.786  10.025  0.1906  0.0486 -0.0697
31797W        W47931  11.349  18.114  13.004  0.0640 -0.0038  0.0602
31798W        W47932   3.791   6.391  12.295  0.1451  0.0172 -0.0674
31799W        W47933   5.498  11.862  11.739 -0.0005 -0.1408  0.1583
31800W        W47934   2.681  14.907  11.027 -0.2710 -0.4155 -0.2709
31801W        W47935   0.338  13.819  13.819 -0.2011  0.0787 -0.1757
31802W        W47936   3.519  10.771   0.178  0.0103  0.1536  0.2255
31803W        W47937  11.619   4.824   1.545 -0.0623  0.2248  0.1829
31804W        W47938  16.039  18.927   0.806 -0.0923  0.1570  0.1430
31805W        W47939   3.861   5.610  14.635  0.3822 -0.1033  0.0688
31806W        W47940  14.393  17.705   3.151  0.1846  0.1901  0.3301
31807W        W47941  14.724  12.619  13.693 -0.2409 -0.2329  0.0198
31808W        W47942   9.403   1.028   5.316  0.1797 -0.3013 -0.0082
31809W        W47943  16.746   6.419  14.900 -0.1251  0.0178 -0.3196
31810W        W47944   4.904   6.854   2.585  0.1278 -0.0469  0.2569
31811W        W47945   7.210  17.758  14.682 -0.1821  0.1552 -0.2301
31812W        W47946  18.862  12.671   1.360  0.0241 -0.0543 -0.1159
31813W        W47947  17.872  15.125  13.691  0.2466  0.0274 -0.1378
31814W        W47948  12.084   1.517  13.783 -0.4122 -0.0098  0.1646
31815W        W47949  17.963  15.634  12.871  0.0264  0.0223 -0.0239
31816W        W47950  10.239  18.153   1.454  0.1618 -0.0223 -0.3505
31817W        W47951   0.708  13.593   3.806  0.0924  0.1072  0.1714
31818W        W47952  14.594   7.341  10.718  0.1262 -0.2454 -0.1231
31819W        W47953  16.433   0.326   9.925 -0.0363  0.0527  0.0876
31820W        W47954   2.204  13.942   1.559 -0.1767 -0.0494 -0.0732
31821W        W47955   3.704   1.118  14.348 -0.2690  0.0041 -0.2587
31822W        W47956  17.913   2.447   4.205 -0.4762  0.3389 -0.0570
31823W        W47957   5.610   4.614   4.470  0.2088 -0.0042  0.2180
31824W        W47958  11.354   3.647  11.984 -0.1296  0.2399 -0.1733
31825W        W47959   7.126   0.391  10.206  0.0558  0.0486  0.0295
31826W        W47960   8.010  14.860   3.898 -0.0318  0.2465  0.0132
31827W        W47961   1.926   6.692  11.924  0.0439  0.0802 -0.2399
31828W        W47962  15.280  15.403   1.146 -0.2764  0.0437 -0.0106
31829W        W47963   5.555   2.600  12.922 -0.0341 -0.1224  0.1757
31830W        W47964   9.224   2.143  14.933  0.3342 -0.0473 -0.0912
31831W        W47965  18.008   3.150  14.625  0.3398 -0.2714  0.2713
31832W        W47966  12.603  10.482  14.633 -0.2333 -0.0044  0.0840
31833W        W47967   5.278   4.316   2.266 -0.2026 -0.0525 -0.0245
31834W        W47968   9.741  10.571  10.814 -0.1761  0.1529 -0.4861
31835W        W47969  12.251   6.726   5.401  0.0402 -0.2372  0.3059
31836W        W47970  10.279  12.436  11.308 -0.1509 -0.3158  0.0152
31837W        W47971  15.761   5.895   1.603  0.0035  0.2075  0.0107
31838W        W47972  14.211   4.753   2.369  0.1957 -0.1302 -0.0011
31839W        W47973   9.484  13.348   1.697  0.2063  0.2486  0.0975
31840W        W47974  11.729  16.024  13.018  0.0948  0.3780 -0.0445
31841W        W47975  16.440   0.193  12.719  0.0465 -0.1956 -0.2121
31842W        W47976  11.268  13.215  10.624 -0.0387 -0.0042 -0.0082
31843W        W47977  10.495   8.230   2.396  0.0835  0.0629 -0.1067
31844W        W47978   4.001   6.882  10.493 -0.1366 -0.1168 -0.3689
31845W        W47979   5.653   7.836  12.191 -0.1547  0.4616 -0.0175
31846W        W47980  12.165  14.678  10.916 -0.1245 -0.2197  0.1750
31847W        W47981  13.444   3.427   0.629  0.0084  0.1501  0.0341
31848W        W47982   2.274   5.086   0.287  0.3789  0.0867 -0.1725
31849W        W47983  11.581  16.565   4.045 -0.0578 -0.2945  0.2592
31850W        W47984  13.855   0.265   2.780  0.3616 -0.2758  0.0411
31851W        W47985  17.710   1.524  11.896  0.0159 -0.1177 -0.2162
31852W        W47986   9.505  13.352  10.348 -0.1542  0.1801 -0.3011
31853W        W47987  15.024   7.423   0.814  0.2363  0.1098 -0.1950
31854W        W47988  16.748   5.573   4.545  0.1472  0.0177 -0.4048
31855W        W47989   3.926   9.045  12.269  0.0405  0.2208  0.1310
31856W        W47990   6.526  13.623  12.556 -0.0260  0.0668  0.1793
31857W        W47991  17.626   7.415   0.912  0.0935 -0.1108  0.0905
31858W        W47992   5.613   1.966   2.299  0.1142  0.0158 -0.4143
31859W        W47993  13.510  11.852   4.256  0.0104  0.4183 -0.0640
31860W        W47994  10.507   2.618  13.709 -0.0642  0.1332 -0.2349
31861W        W47995   6.804   3.852  11.612 -0.1245 -0.0307 -0.0605
31862W        W47996  10.145  18.685  14.723  0.2888  0.1001 -0.1451
31863W        W47997   7.119  18.048  11.836  0.3319 -0.0642 -0.0190
31864W        W47998   0.637   2.368   2.566 -0.1311 -0.1763 -0.1200
31865W        W47999  12.298  11.192  11.289  0.0032 -0.1333 -0.3528
31866W        W48000   3.768  14.904   1.484  0.0363 -0.0732  0.1658
31867W        W48001  14.565   8.551   4.739  0.2496 -0.3181 -0.0401
31868W        W48002  14.564   6.151  13.850 -0.0298  0.0629 -0.0604
31869W        W48003   0.718   2.721  14.589 -0.2937 -0.0599 -0.1854
31870W        W48004  17.575   5.299   3.008  0.4191  0.0503  0.1049
31871W        W48005  10.898   0.184   1.093  0.0183 -0.2122  0.0147
31872W        W48006   2.452  16.502  11.107 -0.2238 -0.2402 -0.1237
31873W        W48007   0.461   8.136   9.377 -0.3505 -0.0035 -0.2246
31874W        W48008  11.511  19.313   4.972  0.2493 -0.0351 -0.2552
31875W        W48009  11.962   9.727  10.768  0.0543 -0.0943 -0.2100
31876W        W48010  11.785   1.573  14.196  0.1537  0.3119 -0.0533
31877W        W48011  15.105  18.059   2.653  0.3062 -0.1457  0.1224
31878W        W48012   1.461  12.295   3.134 -0.1171  0.4017  0.1907
31879W        W48013   9.894  13.171   1.518  0.5404 -0.1079 -0.0330
31880W        W48014  18.502  14.456   4.915  0.0995 -0.4356  0.1468
31881W        W48015   0.395  16.746   9.777 -0.0899 -0.0255  0.0428
31882W        W48016  11.375   9.553   4.181  0.1745  0.1460 -0.2244
31883W        W48017  14.091   1.592   3.034  0.0582  0.1662  0.1481
31884W        W48018  16.707  10.486   0.644 -0.1049  0.1921 -0.1842
31885W        W48019  11.183   5.362   2.957 -0.1815  0.1043 -0.3515
31886W        W48020   6.600  16.319   3.882  0.1389  0.0556  0.1604
31887W        W48021   0.169  12.652   1.165 -0.1339 -0.2285  0.1777
31888W        W48022  15.458   8.142  14.049  0.0521 -0.1261 -0.2109
31889W        W48023  12.224  12.006   4.406  0.0811  0.1334  0.1289
31890W        W48024  17.292  11.851   3.259 -0.3508 -0.2481  0.1303
31891W        W48025  11.096  13.436  12.505 -0.1211 -0.1670 -0.1492
31892W        W48026   7.262   8.757   0.668  0.1862 -0.0694 -0.1244
31893W        W48027   7.384   8.981   2.954 -0.1101 -0.1844  0.0781
31894W        W48028   3.433  18.686   2.573 -0.3211  0.6236 -0.1059
31895W        W48029  11.488  18.566  11.157  0.1343  0.4279 -0.0593
31896W        W48030   2.986   1.888   0.358  0.1146 -0.3625  0.1721
31897W        W48031   2.893  10.711  10.518 -0.0415 -0.0566  0.2612
31898W        W48032  10.126   2.041  11.953  0.1987  0.0039  0.2394
31899W        W48033  15.301   6.510  11.511  0.1218 -0.0510  0.0822
31900W        W48034  14.145   2.731   3.851  0.3855 -0.1316  0.3512
31901W        W48035  14.735  11.947   2.120  0.1246 -0.2274 -0.0415
31902W        W48036   5.870  11.952   4.471 -0.2665  0.2900 -0.2538
31903W        W48037  14.911   0.745   1.385 -0.1704  0.1653  0.1980
31904W        W48038   9.926   3.796  11.577  0.1215  0.2131  0.3154
31905W        W48039  16.185   0.532   1.994 -0.1221 -0.1367  0.0061
31906W        W48040  15.978  14.548  12.078 -0.0905 -0.1206 -0.1604
31907W        W48041  13.901   2.851  12.616  0.0764  0.1068  0.0007
31908W        W48042   1.136   8.087   5.318 -0.1225 -0.0354  0.1899
31909W        W48043   4.284   9.765  11.762  0.2646 -0.0076 -0.1315
31910W        W48044  16.186   6.114   1.911  0.1562  0.0770  0.0670
31911W        W48045   3.426  12.196   4.471 -0.2143 -0.0369 -0.1550
31912W        W48046  17.076   5.933   5.229  0.1049 -0.0425 -0.0968
31913W        W48047   9.412  18.775  13.430  0.1211  0.4095  0.3231
31914W        W48048  15.181  14.864  10.170  0.0278  0.2912  0.0553
31915W        W48049   5.490   0.868  10.950 -0.0228  0.0455 -0.1176
31916W        W48050  16.460  16.305  11.878  0.0271 -0.0725 -0.0989
31917W        W48051  17.361  17.283  12.195  0.1197 -0.0533 -0.2274
31918W        W48052  16.613  15.308  11.992  0.1663  0.0056  0.2639
31919W        W48053   6.580   4.979   2.920 -0.1734  0.0195 -0.2961
31920W        W48054   3.326   8.089   2.292  0.2043  0.2429  0.0896
31921W        W48055  15.359  14.184   3.477  0.4098 -0.0093  0.0956
31922W        W48056   2.362   3.513  11.464 -0.1437 -0.1579 -0.3812
31923W        W48057   3.308   3.117  11.672 -0.1760 -0.0269 -0.5201
31924W        W48058   7.324   6.796   2.898  0.0372 -0.0776  0.1485
31925W        W48059   6.696  13.230  14.108  0.0185  0.4058  0.1244
31926W        W48060  19.006   5.010   1.024  0.0873 -0.2504  0.2512
31927W        W48061   2.754  16.966  10.211 -0.0524 -0.0288  0.0392
31928W        W48062  14.253   8.947   4.794  0.1930 -0.1298 -0.1893
31929W        W48063  17.094   3.166  12.084 -0.2118  0.3483  0.3853
31930W        W48064  13.137   3.730  14.902  0.0513  0.0928 -0.1744
31931W        W48065   6.555   1.393   9.656 -0.0700  0.0293 -0.1947
31932W        W48066   2.470   0.620  11.736  0.1667 -0.0034 -0.0488
31933W        W48067   4.620  17.765   2.290  0.1571 -0.0389 -0.0326
31934W        W48068   4.115   6.422   9.875  0.0537 -0.1085  0.1361
31935W        W48069  14.738  14.380  12.779 -0.2830  0.0129 -0.0928
31936W        W48070  17.709  18.070  11.667 -0.0083 -0.1450 -0.2272
31937W        W48071  11.644   6.890   1.124 -0.1404 -0.0617  0.4328
31938W        W48072  11.362   5.031  11.944  0.4295 -0.1606  0.1284
31939W        W48073   3.675   4.399  14.332 -0.0432 -0.0653  0.1625
31940W        W48074   9.694   6.009   0.616 -0.3070  0.1398 -0.0561
31941W        W48075  15.315   2.259  10.620  0.2600 -0.0184 -0.2251
31942W        W48076  10.744  16.659   5.339  0.0913  0.2370  0.3036
31943W        W48077   5.893   6.663   4.965  0.2803  0.3506 -0.1698
31944W        W48078  11.276   0.528  13.993 -0.0656  0.0246  0.0191
31945W        W48079  10.111   9.407  13.737  0.2205  0.0247 -0.0589
31946W        W48080  13.716   3.379  13.739  0.2359  0.1139  0.0434
31947W        W48081   9.793  14.680  14.530  0.2598  0.0705  0.0489
31948W        W48082  16.704   9.626   3.579  0.5701 -0.1616  0.0337
31949W        W48083   9.690   3.035   5.078  0.0044 -0.1074 -0.4017
31950W        W48084  18.727   1.841  12.553  0.0530 -0.0232  0.1751
31951W        W48085  11.258  15.120   1.880 -0.1025  0.1316  0.0135
31952W        W48086  15.813  15.198  13.237  0.0308  0.0720  0.4342
31953W        W48087  12.966   1.430  13.422 -0.1764  0.0818 -0.1419
31954W        W48088  11.585   8.508   0.142  0.3678  0.2487  0.0935
31955W        W48089   1.070  18.608  12.503 -0.1189  0.0905 -0.3314
31956W        W48090  18.287   8.279  11.686  0.1336  0.3330 -0.1634
31957W        W48091  17.175   0.917  12.582  0.0145 -0.1401  0.1742
31958W        W48092   6.698   5.206   5.130  0.0808 -0.1126 -0.0763
31959W        W48093   6.530   7.207  13.660 -0.2624  0.4130 -0.0149
31960W        W48094  13.510  16.844  13.044 -0.0585  0.1758 -0.0375
31961W        W48095  12.012   1.098  12.323  0.2560 -0.2695  0.2562
31962W        W48096  17.182  11.507   2.099  0.0493  0.1347 -0.2833
31963W        W48097   7.456   2.781  12.638  0.0020 -0.3161 -0.1672
31964W        W48098   4.436   7.742   4.725  0.0116 -0.3089  0.0896
31965W        W48099  19.031   1.993  12.096  0.2292  0.2198  0.1224
31966W        W48100   4.896  18.251  11.646  0.1944 -0.0802 -0.2448
31967W        W48101   5.975   0.361   2.631 -0.0599  0.0685  0.1629
31968W        W48102   2.990   5.895  13.470 -0.0419 -0.1152  0.0394
31969W        W48103  12.523  12.880   3.881  0.1270  0.0613  0.0930
31970W        W48104   5.666   4.780  12.595  0.1562  0.1283 -0.4023
31971W        W48105   7.910  14.126   4.447 -0.1529 -0.0172  0.0481
31972W        W48106   3.898  16.706  11.567 -0.2273  0.1637  0.1957
31973W        W48107  10.560  17.239   3.343 -0.0143 -0.0441  0.0816
31974W        W48108   2.302  17.842  13.684  0.1774  0.1852 -0.0495
31975W        W48109   4.793  14.221   0.249 -0.0540  0.2528 -0.1152
31976W        W48110  14.499  11.663  14.197  0.0108 -0.1679  0.2031
31977W        W48111  17.278   6.484   3.735  0.1763 -0.1534 -0.1088
31978W        W48112   9.666   4.209   1.084  0.5760  0.0943  0.1340
31979W        W48113   6.939   9.836   1.469  0.0633  0.1108  0.1038
31980W        W48114   6.627   8.923   0.953  0.0110  0.1147  0.1006
31981W        W48115  18.126   5.743   1.629 -0.2836  0.2121 -0.0936
31982W        W48116   9.303  13.078   4.638 -0.1782 -0.2760  0.0401
31983W        W48117  17.515   2.314  12.624 -0.1363 -0.0897 -0.0154
31984W        W48118   5.958  10.261   1.640 -0.0146  0.1630  0.2778
31985W        W48119   9.808  19.183  10.824  0.0746  0.2982 -0.1975
31986W        W48120  13.308  11.507  11.286 -0.0194  0.1523 -0.0718
31987W        W48121   9.741   5.909  11.931  0.0962  0.0804  0.1826
31988W        W48122  16.294  10.462  11.950  0.0755 -0.0013 -0.1923
31989W        W48123   3.981  10.506   2.309 -0.0763 -0.2956  0.2280
31990W        W48124  12.111   1.015  12.972  0.1002  0.3864  0.1956
31991W        W48125   5.814  10.859  10.830 -0.2533  0.1914 -0.0612
31992W        W48126   3.334  19.030   2.233  0.0318 -0.2039 -0.2917
31993W        W48127  12.602   4.435  12.852 -0.3051  0.3388 -0.4743
31994W        W48128   3.083  17.181   1.517  0.3455 -0.0360 -0.1896
31995W        W48129  15.175   1.560   2.842  0.1743 -0.0951  0.2901
31996W        W48130  12.409  11.982  13.457 -0.0192  0.1050  0.3232
31997W        W48131   1.725  14.361   0.075 -0.1788  0.2105  0.5336
31998W        W48132   3.485   1.551  10.496  0.1649  0.1019  0.1251
31999W        W48133  12.622   7.989  11.741 -0.2106 -0.2574  0.1708
32000W        W48134  15.271   5.603  13.462  0.1837 -0.0846 -0.1243
32001W        W48135  16.025  10.699   4.280 -0.3257  0.1206  0.3711
32002W        W48136  16.294   0.102   5.324  0.0124 -0.1745 -0.0170
32003W        W48137   3.157  12.011  11.056 -0.0581  0.1278  0.0890
32004W        W48138   5.494  12.685   1.542 -0.2237  0.1076 -0.0972
32005W        W48139  11.334   6.824  11.361 -0.0397  0.4957  0.2643
32006W        W48140   1.663  10.999  11.939  0.2419  0.4976 -0.1245
32007W        W48141  15.730   3.943  10.283  0.3653  0.2413 -0.0345
32008W        W48142  16.187   3.464   4.212 -0.0380  0.1812  0.2360
32009W        W48143   4.965   7.950  11.426 -0.1608 -0.1485  0.3319
32010W        W48144   0.228   4.216  12.506 -0.0369 -0.0731 -0.2872
32011W        W48145   0.275   5.886  12.009  0.0434  0.0566  0.2390
32012W        W48146  14.474   5.370   0.407 -0.1824 -0.3736 -0.3209
32013W        W48147  12.141  12.043  13.846  0.2667  0.3207  0.1788
32014W        W48148  17.088   0.278  11.562 -0.2695  0.1549 -0.0857
32015W        W48149  15.288   7.218  13.971 -0.1852  0.0593  0.3834
32016W        W48150   2.996   0.641  11.207 -0.4328 -0.3737 -0.0522
32017W        W48151  14.350  15.957   4.673 -0.1791 -0.2203  0.2744
32018W        W48152  12.430   7.619   0.489 -0.0890  0.0363  0.2999
32019W        W48153  19.323  16.444   2.996 -0.0749 -0.0230 -0.0191
32020W        W48154   8.667   1.368  11.104  0.1652  0.0535 -0.0894
32021W        W48155   6.637   8.837  12.867 -0.0843 -0.2213  0.4539
32022W        W48156   0.795  12.380  11.402  0.0773  0.1420  0.0286
32023W        W48157   1.740  10.652   4.196 -0.0847 -0.1860  0.0410
32024W        W48158   3.357   3.518  11.339  0.2459 -0.1816  0.2369
32025W        W48159  18.457   0.699  11.233 -0.0812 -0.2763 -0.0029
32026W        W48160   3.465   1.531  13.466 -0.1412 -0.0773  0.1001
32027W        W48161   7.325   5.306  11.238  0.0973 -0.1746 -0.0621
32028W        W48162   5.910   6.684  10.016  0.1456  0.1009  0.0092
32029W        W48163  11.844  12.033   4.761  0.2626  0.0619  0.0123
32030W        W48164   6.947   5.876  14.101  0.0801 -0.2062  0.4066
32031W        W48165  11.107  16.000   5.547 -0.0781  0.1270 -0.2677
32032W        W48166   7.308   8.031  13.927  0.1674 -0.0198 -0.1012
32033W        W48167  12.073   7.552   4.602  0.3711 -0.1694  0.0500
32034W        W48168  10.387   6.089  13.399 -0.1515 -0.4899  0.0356
32035W        W48169   0.641  12.018   1.218 -0.0014 -0.1453 -0.2582
32036W        W48170  15.358   2.057   2.585  0.2997  0.2388  0.3682
32037W        W48171  11.078   3.214  12.155 -0.1630 -0.0681  0.2453
32038W        W48172   7.152  18.103  10.592  0.3928  0.1235  0.0094
32039W        W48173   0.351  18.248   0.260 -0.0843 -0.1494 -0.0928
32040W        W48174   6.622   1.995   4.468 -0.1116  0.3676 -0.0163
32041W        W48175  19.102  14.920   0.316  0.1913 -0.0266  0.0322
32042W        W48176   9.777  12.542   4.288 -0.0831 -0.0868 -0.4005
32043W        W48177  17.034  15.812   0.906 -0.1086 -0.1699  0.0922
32044W        W48178  14.233  10.366   4.541  0.0434 -0.0782  0.2120
32045W        W48179  14.195   4.168  10.440  0.2882 -0.4399  0.2710
32046W        W48180   5.020   6.021   1.867 -0.0437  0.3914 -0.0528
32047W        W48181  18.373  12.036   5.782  0.0495 -0.0640 -0.4406
32048W        W48182   9.170   0.844  12.233  0.0232 -0.0075 -0.0335
32049W        W48183   1.525  14.211  10.243  0.4439 -0.4439  0.0633
32050W        W48184  18.533  13.603   2.775 -0.0781 -0.1038 -0.0503
32051W        W48185   8.613  18.867   1.390 -0.1107 -0.0352 -0.0482
32052W        W48186  11.628   7.574   3.995  0.0550  0.3679  0.1759
32053W        W48187   7.098   5.443  12.685 -0.2486  0.1680  0.0761
32054W        W48188   4.197   9.449   0.566 -0.0898 -0.0679 -0.1446
32055W        W48189  11.051   9.051   4.136  0.0473  0.1078 -0.0223
32056W        W48190  15.553   1.525   0.499 -0.0299 -0.0466 -0.1898
32057W        W48191   4.741  10.687   5.507 -0.0877 -0.0295 -0.1113
32058W        W48192   0.084  10.583   3.275 -0.1369 -0.0045  0.0246
32059W        W48193  18.037   8.045   3.993  0.0039  0.0082  0.0588
32060W        W48194   5.231   4.900  12.806  0.2814 -0.0266 -0.3425
32061W        W48195  13.450  17.384   3.495  0.0418  0.2050 -0.1633
32062W        W48196  15.659   6.516   0.226  0.1803  0.0323  0.1077
32063W        W48197   1.605   7.627   4.533  0.2277 -0.2384 -0.0785
32064W        W48198  15.304  15.039  10.622  0.0459 -0.0533  0.0495
32065W        W48199   0.721   0.934  12.940 -0.3477  0.1766  0.3495
32066W        W48200   0.247  18.072   4.919  0.0870 -0.1998  0.1239
32067W        W48201   9.054  15.552  13.632  0.1824  0.2405  0.0787
32068W        W48202  18.210  11.387   0.635  0.0012  0.5549 -0.1506
32069W        W48203  10.843   8.337   0.285 -0.2191  0.2041  0.0529
32070W        W48204   0.599   3.355  14.138 -0.1868  0.0332  0.2846
32071W        W48205  13.294  14.710   5.148 -0.2544 -0.1818 -0.1637
32072W        W48206  11.100   8.815   1.057  0.2792 -0.1124 -0.0442
32073W        W48207  17.811  10.307  14.219  0.2726 -0.4094 -0.0501
32074W        W48208   1.336  15.262  14.894 -0.0075 -0.2297 -0.0115
32075W        W48209   8.909   1.907   0.767  0.2138  0.1958 -0.2605
32076W        W48210   9.459   1.871   4.989 -0.0155 -0.1073  0.4275
32077W        W48211   4.266   5.874  10.851  0.0896 -0.3037  0.0452
32078W        W48212  13.308   1.293   3.893 -0.1931 -0.1826  0.2457
32079W        W48213  17.267  11.048  12.936 -0.0586 -0.0814  0.1580
32080W        W48214  13.427   1.370  11.140  0.1592 -0.2168  0.1958
32081W        W48215  12.032   3.062   1.136  0.1691 -0.0819 -0.3233
32082W        W48216  15.008  12.083   1.029 -0.0527 -0.3696  0.1748
32083W        W48217   3.670   9.261   2.658  0.1287 -0.1466  0.0275
32084W        W48218   1.722   1.757   4.162  0.1093 -0.2493 -0.1689
32085W        W48219  17.227  11.334   3.357 -0.1585 -0.1020 -0.4120
32086W        W48220   5.190   1.555   3.965  0.4599  0.1030 -0.0475
32087W        W48221  17.715   6.457   4.745  0.3130 -0.3283 -0.0161
32088W        W48222  10.947   3.262   2.781  0.1283 -0.1662  0.2971
32089W        W48223   8.568   6.563  11.895  0.1630 -0.0693 -0.1622
32090W        W48224  10.940  14.359   2.582  0.2116 -0.0907 -0.3207
32091W        W48225  15.750   0.697  13.075 -0.0506  0.2404  0.1695
32092W        W48226  16.608  13.857  10.519  0.1814 -0.0437 -0.3566
32093W        W48227   5.451   8.723  12.610 -0.1180  0.1446 -0.0044
32094W        W48228  17.455  13.555   5.313  0.2623  0.2221 -0.0772
32095W        W48229  11.945   1.469  13.237 -0.0008  0.1165 -0.1966
32096W        W48230  17.707  11.762  12.514 -0.1336  0.0681  0.6492
32097W        W48231   2.739   4.215   5.572 -0.1825 -0.0460  0.1948
32098W        W48232   8.970  18.169   3.525  0.1364  0.0638  0.4070
32099W        W48233   2.505   8.559   1.704 -0.4709 -0.1372  0.0368
32100W        W48234  14.091   8.011  10.316  0.0944 -0.1718 -0.0146
32101W        W48235   1.003  10.673   3.505  0.3200 -0.0535 -0.1168
32102W        W48236   3.235   7.427   0.231  0.0345 -0.2009 -0.0732
32103W        W48237  15.657   8.051   4.387  0.3552 -0.0765 -0.0848
32104W        W48238  15.197   5.824   9.825  0.0616 -0.2000 -0.0920
32105W        W48239   5.331  13.923  12.465  0.0749  0.2835  0.1297
32106W        W48240  12.558  17.900   1.997 -0.2118  0.1608 -0.0119
32107W        W48241  16.628   2.651   2.418  0.1547  0.6464 -0.2044
32108W        W48242   2.609  12.384   1.513 -0.0185  0.0676 -0.1696
32109W        W48243  18.259  16.671  13.697 -0.2934 -0.4622  0.0867
32110W        W48244  11.644   5.816  14.257 -0.1189  0.3593 -0.2009
32111W        W48245  14.979   5.861   2.609 -0.0589  0.0676 -0.0083
32112W        W48246  18.527  16.984   2.440 -0.2033 -0.1094 -0.2062
32113W        W48247   4.652   2.772   1.462  0.0630 -0.0716 -0.1541
32114W        W48248   6.650  10.062   0.056 -0.0568  0.0307 -0.0018
32115W        W48249  12.623   1.342   4.643  0.1697 -0.0924 -0.1481
32116W        W48250  12.469  12.019   5.598  0.1869 -0.1068  0.5262
32117W        W48251  12.249  13.322  11.453  0.0066 -0.2413  0.5721
32118W        W48252  13.880   8.618  12.446 -0.1255  0.0028  0.0657
32119W        W48253  12.168  12.292  14.377  0.0119  0.0790 -0.1690
32120W        W48254  16.619  14.682   4.070  0.0087  0.1644 -0.3056
32121W        W48255   0.399   8.135   1.070  0.1612 -0.0464 -0.2194
32122W        W48256   6.568  10.860   9.896 -0.1133 -0.0682  0.1382
32123W        W48257  10.043   9.575  14.931  0.0749 -0.2305 -0.3804
32124W        W48258   3.859  13.775   4.027 -0.0540  0.0194  0.2221
32125W        W48259  19.205  15.146  12.888  0.1179  0.2056 -0.1164
32126W        W48260  16.431   3.709  10.413  0.1181 -0.0625  0.3829
32127W        W48261  11.638  10.411  11.713  0.1453 -0.3021 -0.1511
32128W        W48262  15.436   3.959   3.910 -0.5535 -0.0926  0.1575
32129W        W48263  16.039   4.786   0.842 -0.1798  0.0595  0.3230
32130W        W48264  13.532   0.889   2.099  0.0534 -0.0444  0.6477
32131W        W48265  19.101   0.068   4.363  0.3248  0.1621 -0.1219
32132W        W48266   0.120  16.083   1.673  0.1897  0.2243 -0.1574
32133W        W48267   0.698   4.261  11.148 -0.0316 -0.2740 -0.1411
32134W        W48268  11.209  16.089   2.113 -0.3496 -0.0926 -0.1749
32135W        W48269   8.646   4.417   2.260 -0.1242  0.0712  0.1792
32136W        W48270   2.861   3.137   2.338  0.1357 -0.2416  0.2564
32137W        W48271   7.320  11.068  12.268  0.3160  0.1561 -0.0317
32138W        W48272  12.095   1.342   9.884 -0.1481  0.1302 -0.1091
32139W        W48273   2.463  17.875   0.468  0.0945 -0.0409  0.0238
32140W        W48274   1.615   7.014  11.096 -0.1902  0.2852  0.2791
32141W        W48275  16.549   6.970   4.074  0.0261 -0.1421  0.2636
32142W        W48276  17.510   8.014  13.450 -0.0130  0.3139 -0.1126
32143W        W48277   8.686  19.260  12.875 -0.0968  0.0214 -0.0886
32144W        W48278  12.144  18.261  12.977  0.3810 -0.1309 -0.2159
32145W        W48279   1.374  17.399  12.689 -0.2365  0.1936 -0.2465
32146W        W48280   4.229  12.674   4.572 -0.0878 -0.2640 -0.1215
32147W        W48281   1.828   7.545  14.502 -0.3553  0.3706 -0.3858
32148W        W48282   9.667  12.450  11.991  0.3312 -0.0213  0.0922
32149W        W48283  15.644   8.077  13.500 -0.0562  0.1471  0.2703
32150W        W48284  11.030   8.030  11.545  0.0627  0.0993  0.0755
32151W        W48285   3.914   9.393  10.624  0.1094  0.3433 -0.1839
32152W        W48286   6.563  15.759   4.672 -0.1827  0.0007 -0.1536
32153W        W48287   2.937   6.972   1.819 -0.1543 -0.0373 -0.0242
32154W        W48288  17.949  13.558   2.388 -0.2116  0.0055  0.3601
32155W        W48289  17.517  14.563   3.707  0.2344  0.0924  0.0356
32156W        W48290   1.033  15.115   3.429  0.0981 -0.0935  0.0394
32157W        W48291   3.475   7.907  10.206 -0.0058 -0.0300 -0.1145
32158W        W48292   1.819  19.113   4.659  0.2806 -0.0826  0.1048
32159W        W48293   5.876  17.164  12.797  0.1625 -0.1343  0.1454
32160W        W48294   1.943  10.997  12.633 -0.0479  0.1984 -0.0807
32161W        W48295  12.287  17.235   4.623  0.2643 -0.0478 -0.0913
32162W        W48296  15.665  16.217   2.314  0.4302  0.3163 -0.2299
32163W        W48297   9.400   1.444  14.262  0.0266 -0.3398 -0.2934
32164W        W48298  10.549  14.008  14.690  0.1283  0.1188 -0.0847
32165W        W48299  13.892   2.112   2.516  0.3145 -0.1587  0.1497
32166W        W48300  11.093  14.935   4.304  0.0455 -0.1595  0.0343
32167W        W48301   4.344  10.389   4.644 -0.1241  0.6408  0.0102
32168W        W48302   0.525   1.408   0.862 -0.1622  0.0940  0.1286
32169W        W48303  19.125  11.561   3.905  0.1367 -0.1148  0.0293
32170W        W48304  10.733   5.165  12.711  0.2615  0.0713  0.3697
32171W        W48305  17.037  10.513   1.043  0.3623 -0.0448  0.4120
32172W        W48306  18.943   5.977  11.836 -0.2163 -0.3240 -0.2918
32173W        W48307   0.890   9.180   2.587 -0.0641 -0.6681 -0.0308
32174W        W48308  18.167   4.676   2.379  0.1296 -0.0809  0.3080
32175W        W48309   7.999   2.016  14.762 -0.1430  0.2745  0.1028
32176W        W48310  15.387   2.619   4.800  0.0272 -0.1687  0.1248
32177W        W48311  11.836   3.940   0.164  0.2350 -0.1204  0.0151
32178W        W48312   6.309   6.375   2.333 -0.2146  0.0917 -0.0651
32179W        W48313   7.112  18.852   1.599  0.1819 -0.1284 -0.1044
32180W        W48314  12.604   3.489   3.075 -0.2285 -0.1827 -0.0286
32181W        W48315  13.286   6.278   5.226  0.2763  0.1649  0.2933
32182W        W48316  17.885   8.801   2.844 -0.0081 -0.2382  0.1224
32183W        W48317  15.885  16.174  10.730  0.0203  0.5328  0.1565
32184W        W48318  16.583   5.389   4.045 -0.1515 -0.2684  0.0075
32185W        W48319  14.940   5.749  10.279 -0.0516  0.2397  0.4223
32186W        W48320   5.312  10.970   3.863  0.2462 -0.0396  0.4429
32187W        W48321  15.411  12.133   0.679 -0.0627 -0.0589  0.3461
32188W        W48322  17.301   0.491  14.662  0.0232  0.1007 -0.1196
32189W        W48323   6.777   9.961   0.985 -0.0983  0.2598 -0.3609
32190W        W48324   9.203   8.289   1.333  0.0596  0.0098 -0.1554
32191W        W48325   4.457  12.320  14.513  0.1035  0.0345  0.1079
32192W        W48326   8.619  17.676   0.618  0.0558 -0.0460  0.0066
32193W        W48327   6.567   2.672   4.122  0.1039 -0.2059  0.3189
32194W        W48328  12.886   7.726  13.098 -0.1843 -0.2051 -0.0021
32195W        W48329   0.821   0.362   3.601 -0.1118 -0.1637  0.0418
32196W        W48330  15.376  12.208  10.639 -0.1964  0.1478 -0.0540
32197W        W48331  13.599   4.853   2.941 -0.0103  0.2016  0.1156
32198W        W48332  17.837  12.139  12.739  0.2877 -0.0205 -0.0571
32199W        W48333  15.850  17.937  10.518 -0.0066  0.1560  0.2457
32200W        W48334   8.212  16.507  14.935  0.2154  0.2182  0.1480
32201W        W48335  17.074  11.864   2.502  0.0155 -0.5119  0.1520
32202W        W48336  10.730   0.422  10.731  0.1834 -0.1547  0.2190
32203W        W48337  19.094   9.141   1.923 -0.1004  0.1375 -0.0709
32204W        W48338   8.551   7.477  11.894 -0.0863  0.2296  0.1314
32205W        W48339  17.075   9.223   2.574 -0.0347  0.1366  0.4454
32206W        W48340  12.571  14.913  13.991  0.3703  0.3011  0.3117
32207W        W48341  18.765   1.125  11.001  0.0600  0.1648 -0.0185
32208W        W48342  15.077   9.709   1.737  0.3258  0.0679  0.2992
32209W        W48343  11.155  13.020  14.007  0.0327  0.1563 -0.1625
32210W        W48344   9.209   0.677   9.761  0.2568 -0.0638  0.1220
32211W        W48345   5.420   6.431   0.108  0.2007  0.0725  0.1677
32212W        W48346   8.407  19.048  12.472 -0.0156  0.3158  0.0565
32213W        W48347  17.787  17.423  13.367 -0.2631  0.3825  0.1917
32214W        W48348   7.182   4.936  13.761  0.0389 -0.0315  0.0243
32215W        W48349   4.644   1.960   3.235  0.0145 -0.0445  0.0123
32216W        W48350  12.333   8.036  12.651 -0.0631  0.2121  0.0697
32217W        W48351   0.991   1.780   3.470  0.0811 -0.1286 -0.1251
32218W        W48352  17.537   6.636   0.362 -0.1487  0.0595  0.4669
32219W        W48353   3.251  16.568   0.472 -0.0340 -0.1490 -0.0343
32220W        W48354   4.808  11.627  13.352  0.1226  0.0644 -0.1897
32221W        W48355  15.005  11.258   3.612 -0.2693  0.1781 -0.0025
32222W        W48356   0.717  14.749  10.412  0.2648  0.2485  0.1871
32223W        W48357  10.154  15.079   5.425  0.1610 -0.0142 -0.1959
32224W        W48358  13.927  12.698  14.299 -0.0730  0.1727 -0.1056
32225W        W48359  12.146  10.686   4.157  0.0974  0.0908 -0.3543
32226W        W48360   0.206   5.874   4.964 -0.1313  0.1059  0.0694
32227W        W48361  16.398   9.922  11.778  0.1892  0.0229 -0.1665
32228W        W48362  14.685  11.251  14.453  0.1850  0.0307  0.0269
32229W        W48363   4.675  10.347   0.532  0.1289  0.0191  0.0388
32230W        W48364  17.956  10.833   2.319 -0.1293  0.0926 -0.0537
32231W        W48365   8.445  19.313   3.701 -0.0831 -0.3179 -0.0801
32232W        W48366   7.276  11.743  11.199 -0.1908 -0.2523  0.0843
32233W        W48367   4.180   8.931   0.979 -0.2906  0.0093  0.1200
32234W        W48368  13.974  15.706   1.079 -0.2479  0.0988 -0.0844
32235W        W48369   1.396   5.116  12.219 -0.1372 -0.2599  0.0318
32236W        W48370  18.827   4.849  10.379 -0.2902 -0.2345 -0.1723
32237W        W48371   2.198  10.012   3.765  0.1124 -0.0406  0.0727
32238W        W48372   3.417   6.372   2.847  0.1090 -0.3079 -0.1508
32239W        W48373   8.983   8.854  12.526  0.1063 -0.0490  0.1848
32240W        W48374  16.755  10.792  12.144 -0.0747 -0.2739 -0.1782
32241W        W48375   0.731   6.144  13.468  0.1960 -0.0304  0.2079
32242W        W48376   6.424   3.895   4.931 -0.0926  0.3063 -0.3174
32243W        W48377   6.761   5.649  13.556  0.0539  0.1463 -0.4178
32244W        W48378  17.885  13.545   3.262 -0.0097  0.0890 -0.1247
32245W        W48379  10.027  12.644  14.171  0.1804  0.1377 -0.3132
32246W        W48380   2.922   9.304   3.711 -0.2785 -0.1642  0.3690
32247W        W48381   6.400   8.458   1.037 -0.0562  0.2545 -0.0984
32248W        W48382  18.316  11.231  14.005 -0.2222  0.3448 -0.1850
32249W        W48383  16.778   9.155   2.193  0.1546  0.2057  0.2084
32250W        W48384   1.157   4.470  13.755 -0.2647 -0.0431 -0.3214
32251W        W48385   0.073   7.443  12.172 -0.2581 -0.1842  0.0096
32252W        W48386  13.999  19.308   0.523  0.0327  0.2644  0.0247
32253W        W48387   3.851   0.637  10.294  0.2991 -0.1947  0.0821
32254W        W48388   1.144   0.235   2.515 -0.0845 -0.1105 -0.1147
32255W        W48389  16.698   2.365  12.280 -0.1372 -0.3714  0.0429
32256W        W48390  13.786   0.374  11.816  0.1074  0.3196  0.2575
32257W        W48391   4.725   1.565   1.988  0.1485 -0.2605  0.0707
32258W        W48392   3.198   7.791  14.887 -0.0842  0.0563 -0.1284
32259W        W48393  12.349   3.502  12.139  0.0714  0.1580 -0.0153
32260W        W48394   5.757   8.289  11.121  0.0214 -0.0429 -0.1356
32261W        W48395   5.110   4.613  13.223  0.1273 -0.0968  0.0635
32262W        W48396   5.449   5.755  10.748 -0.0257 -0.0366 -0.3689
32263W        W48397  14.301   0.458  12.502 -0.1457 -0.3758  0.0781
32264W        W48398  11.543   8.504   2.380 -0.0882 -0.3829  0.0135
32265W        W48399  17.491   6.720   5.221 -0.0430  0.0937 -0.0315
32266W        W48400  17.232   8.197  13.101  0.3532 -0.3932 -0.1411
32267W        W48401  13.255   2.959   0.893 -0.2341  0.2371  0.2554
32268W        W48402   6.237  17.756  10.107 -0.2052  0.0898 -0.0786
32269W        W48403  15.473  18.072   4.448  0.2553 -0.0437 -0.0455
32270W        W48404   6.273   4.697   2.577 -0.5831  0.1712  0.1009
32271W        W48405   4.192  16.589  14.961  0.1172 -0.0798 -0.2826
32272W        W48406   3.442  11.538   2.930 -0.0848 -0.1806 -0.0062
32273W        W48407  18.110   5.305  13.057 -0.0258  0.1417  0.0397
32274W        W48408  12.375  12.838   1.934  0.1487 -0.1456 -0.0742
32275W        W48409  12.861   9.293   4.943 -0.1073  0.1250  0.0728
32276W        W48410   0.254  10.505  10.492  0.2631 -0.1374  0.0447
32277W        W48411   3.006   0.847  13.670  0.4272 -0.1205  0.3113
32278W        W48412   3.384  18.876   3.860  0.0743 -0.0935 -0.1128
32279W        W48413   8.823  12.805   2.424 -0.5385  0.3391  0.1225
32280W        W48414   8.824   6.596   9.425 -0.1915  0.1280 -0.1351
32281W        W48415   4.951  14.154  10.709  0.0196 -0.0339  0.4320
32282W        W48416  17.837   7.576   1.948  0.2102  0.0606  0.1044
32283W        W48417   7.756  15.646  13.333  0.2788  0.1294  0.0035
32284W        W48418   6.233  13.635  11.804 -0.2862 -0.3075 -0.1605
32285W        W48419   0.481  18.793  11.382  0.0944  0.0022 -0.3460
32286W        W48420   0.178  15.116  13.402  0.1165  0.1959 -0.1455
32287W        W48421   4.263  18.359  12.786  0.1199 -0.0462  0.1310
32288W        W48422  10.513   3.546   3.730 -0.1107  0.1956  0.1717
32289W        W48423  18.515  13.847  10.208 -0.4094  0.1304  0.0546
32290W        W48424  16.147  14.276  12.519  0.1064 -0.3306  0.1331
32291W        W48425   4.264  15.802   0.620 -0.1998 -0.3683 -0.0488
32292W        W48426  15.656   1.696  13.393 -0.1649 -0.2263  0.0444
32293W        W48427   4.958  10.859  11.317 -0.0720 -0.1842  0.1225
32294W        W48428   7.925  15.928   0.595 -0.0000  0.1715  0.0300
32295W        W48429  17.796   0.142  12.574  0.1589 -0.0619 -0.1999
32296W        W48430  12.729   7.273  13.704 -0.0341 -0.0903  0.1368
32297W        W48431  16.305   8.184  14.180  0.4256 -0.0031 -0.0161
32298W        W48432  13.197  17.439  10.552  0.1573 -0.1686  0.0052
32299W        W48433   0.820   5.116  10.498  0.0200  0.1109 -0.1219
32300W        W48434  15.318  14.011   3.998  0.0905  0.0478  0.0416
32301W        W48435   4.666   3.556   2.064  0.1141 -0.2902 -0.2007
32302W        W48436   5.724  12.624  11.060 -0.5164 -0.1942  0.3239
32303W        W48437  12.630  10.410   1.164 -0.1656  0.0321 -0.1313
32304W        W48438   7.518  14.245   3.468  0.0048 -0.4540 -0.2682
32305W        W48439  13.671  14.194   9.734  0.1791 -0.0471 -0.2366
32306W        W48440  10.771  18.729  10.955 -0.0917 -0.1620  0.1483
32307W        W48441   8.807  11.816  11.829 -0.4330 -0.3861 -0.4394
32308W        W48442   3.704  15.410  13.462  0.0636 -0.3015 -0.2099
32309W        W48443   7.580   3.995   1.102  0.0669  0.1535  0.1254
32310W        W48444  18.686  13.703  12.988 -0.0217 -0.1509  0.0284
32311W        W48445   4.669  19.089   4.623 -0.3522  0.2716 -0.0193
32312W        W48446  17.243  18.271  11.417  0.0358 -0.1575 -0.3598
32313W        W48447  16.653  15.892  10.576 -0.1904 -0.0725 -0.0650
32314W        W48448   4.163  17.692   2.589  0.0558 -0.1224 -0.0060
32315W        W48449   8.626  14.657  11.960  0.2097 -0.0763  0.0626
32316W        W48450  15.261   8.016  11.094 -0.0725  0.2031  0.0105
32317W        W48451   5.305   4.563  14.769 -0.0468 -0.1836  0.0193
32318W        W48452   2.647  14.970   4.545  0.0791 -0.1588 -0.3730
32319W        W48453   0.109   5.184   1.141 -0.0214 -0.2262  0.0057
32320W        W48454  18.136  14.426   4.354 -0.1087 -0.0559  0.0672
32321W        W48455  14.373   3.745   4.907 -0.0629  0.0963  0.2971
32322W        W48456  17.770  14.508  12.413 -0.1084  0.0415 -0.0372
32323W        W48457   8.760   4.441   0.798 -0.1536  0.0577  0.0535
32324W        W48458  16.017   6.716   4.181  0.0437 -0.1086 -0.1290
32325W        W48459  15.069   9.074  11.083  0.1562 -0.1074 -0.2775
32326W        W48460   8.340   5.615   3.880  0.2066  0.1509 -0.0001
32327W        W48461  15.695   7.986   3.912 -0.0564  0.0685  0.1445
32328W        W48462  17.549  11.958   1.783 -0.0642  0.3221 -0.0800
32329W        W48463  14.957   9.591   3.836  0.0229  0.2406  0.2719
32330W        W48464  18.851  11.965   4.185 -0.0831 -0.1467  0.4621
32331W        W48465   2.360   1.667  11.714  0.0625  0.1803  0.0817
32332W        W48466   7.075   9.376   2.836  0.2074  0.0574 -0.1585
32333W        W48467   1.209   2.810  14.715 -0.0099 -0.1455 -0.2673
32334W        W48468   7.713  18.215   2.788  0.0842 -0.1981 -0.0312
32335W        W48469  12.366   3.973  12.927  0.1040  0.3271 -0.1894
32336W        W48470   9.394  17.907  13.372  0.0325  0.1130  0.3434
32337W        W48471  18.952   7.714  14.612 -0.2271  0.0991  0.0401
32338W        W48472  16.894   0.087   9.832  0.0830  0.1982  0.2712
32339W        W48473   3.727  17.891   4.030 -0.0168 -0.3039  0.0561
32340W        W48474   5.609   9.742   0.422  0.0485  0.3638  0.0326
32341W        W48475   2.210  15.095  12.538 -0.1633 -0.2466 -0.0210
32342W        W48476  14.355  12.565  14.051  0.0374  0.0657  0.1365
32343W        W48477   0.585  13.269  11.997 -0.4360 -0.2411  0.1372
32344W        W48478  17.523   2.224   9.525 -0.3099  0.2769  0.1587
32345W        W48479  17.526   0.503  12.503  0.3039 -0.0379  0.1326
32346W        W48480  15.448   6.554  13.899 -0.2109 -0.0592 -0.1129
32347W        W48481   3.797  14.915   0.910  0.0797 -0.2056 -0.2763
32348W        W48482   2.722   7.319   0.998  0.4117  0.2372 -0.1605
32349W        W48483   6.891  18.291   3.843  0.1719  0.2058 -0.4109
32350W        W48484  17.522  11.941   2.810 -0.2114 -0.0818  0.0241
32351W        W48485   9.785   5.345  12.996 -0.0416  0.5389  0.1019
32352W        W48486  12.608   3.141   0.302 -0.4227  0.0551 -0.3371
32353W        W48487   4.261   5.368  12.560  0.1785  0.0167 -0.0379
32354W        W48488   6.674   2.339   3.351 -0.0340  0.0882  0.5323
32355W        W48489   9.487  11.467  14.199  0.2495  0.0169  0.0300
32356W        W48490  11.242  12.343   4.951  0.3576  0.3734 -0.1915
32357W        W48491   2.605  10.233   0.147 -0.0065 -0.2410 -0.1772
32358W        W48492  13.020  12.123   0.161 -0.4976  0.1437 -0.2882
32359W        W48493   7.134   3.372   4.883  0.3179  0.3031  0.0467
32360W        W48494  12.248  15.242  11.701  0.0880 -0.0830 -0.1237
32361W        W48495  13.103   5.065   1.123  0.3250  0.1176 -0.1767
32362W        W48496  16.728   6.237  13.702  0.1560 -0.0151 -0.0612
32363W        W48497  18.876  18.160   4.368  0.2468 -0.1317 -0.0954
32364W        W48498  14.466  15.705  12.504  0.0049  0.1641 -0.1385
32365W        W48499   4.792   2.553   2.109 -0.1347 -0.1526 -0.2847
32366W        W48500   6.661   0.231   2.204  0.2338  0.2960 -0.2518
32367W        W48501   7.390   9.675   0.162 -0.1391 -0.1626  0.0828
32368W        W48502  12.286  14.499   0.808 -0.0475  0.2351 -0.0930
32369W        W48503   3.272  19.027   0.819 -0.3142  0.1198  0.0559
32370W        W48504   4.793   0.290  13.351  0.1276 -0.2297 -0.1409
32371W        W48505  13.739   8.516  13.923 -0.4550 -0.2079  0.3234
32372W        W48506   4.526   0.154  11.436 -0.0466  0.4037  0.0439
32373W        W48507   2.536   2.175   9.276  0.2002 -0.0032 -0.2322
32374W        W48508   4.153   5.770   0.589  0.1093 -0.1727  0.2668
32375W        W48509   4.394  11.034   2.465 -0.2882  0.1563  0.0872
32376W        W48510  18.787  18.800  14.775 -0.0797 -0.6516 -0.0947
32377W        W48511  10.516   0.522   3.257  0.1254  0.0291  0.3338
32378W        W48512   7.813  12.860   2.776  0.0363 -0.0836 -0.2433
32379W        W48513  16.815   7.497  11.033  0.0492  0.2616 -0.0004
32380W        W48514   9.317   2.596  10.950 -0.3434 -0.1586  0.0292
32381W        W48515  13.300  14.368   0.110  0.3084 -0.1367 -0.1923
32382W        W48516  16.976  10.372  14.783 -0.1415  0.0913  0.0575
32383W        W48517  13.161  16.840  13.833  0.1468  0.0739 -0.1094
32384W        W48518   5.338   5.101  11.425 -0.0637  0.0364 -0.4017
32385W        W48519   1.118   6.918  11.012 -0.1622 -0.1144 -0.2845
32386W        W48520  14.141   1.494  13.278  0.2119 -0.0644  0.1612
32387W        W48521   9.573  13.700  12.204 -0.1951  0.0618  0.2147
32388W        W48522   5.534   6.238  13.333 -0.4004 -0.3577 -0.0286
32389W        W48523   2.458  16.406   1.034  0.1013  0.2265  0.1858
32390W        W48524  19.121  11.103   0.578  0.0590 -0.2829 -0.3788
32391W        W48525   8.184  13.757   2.383  0.1108 -0.1830 -0.2465
32392W        W48526   9.161  13.710   2.936  0.2288 -0.1011 -0.0850
32393W        W48527  13.470   4.455   1.717 -0.3317 -0.0278  0.2469
32394W        W48528  13.531  11.162   0.596  0.3526  0.3112 -0.0403
32395W        W48529   0.476  18.132   4.159 -0.5143 -0.0538  0.1026
32396W        W48530   6.288   9.139   0.610 -0.0711 -0.1298 -0.1784
32397W        W48531   8.874   1.925  12.431 -0.2002 -0.3332  0.1000
32398W        W48532  15.779   4.437  12.539  0.0217  0.0526  0.1434
32399W        W48533   8.449   6.544   3.552 -0.0518  0.0608 -0.3792
32400W        W48534  14.173   2.833   4.392  0.2841 -0.0589 -0.0863
32401W        W48535   9.899   6.188  12.440  0.0339 -0.3837 -0.2292
32402W        W48536   5.818   8.228   4.711 -0.0987  0.3122  0.1731
32403W        W48537   6.664  16.847   3.978  0.0665  0.2097  0.0082
32404W        W48538  14.940  18.033   4.461  0.2717 -0.0291  0.1294
32405W        W48539  14.596   1.806  13.918  0.1673  0.1041  0.2948
32406W        W48540  10.180  16.052  13.077  0.4459  0.2333  0.0017
32407W        W48541  10.507   4.362   0.401 -0.1931  0.3800 -0.0843
32408W        W48542  18.394   6.711   0.398  0.2363  0.2299 -0.1048
32409W        W48543  10.763   6.349   4.038 -0.1253  0.1241 -0.0886
32410W        W48544  16.866   1.674  13.031 -0.1169 -0.2356 -0.0102
32411W        W48545   0.480   8.660  13.841  0.2967  0.0831  0.1114
32412W        W48546  17.433   6.432  14.527 -0.0077  0.3666  0.0259
32413W        W48547  12.778  13.216   1.691  0.4415  0.4641  0.1670
32414W        W48548  15.126  16.512  13.474 -0.0174  0.1267  0.0939
32415W        W48549   7.894  16.993   0.173 -0.1067 -0.0077  0.1369
32416W        W48550  10.051   7.390   1.576  0.0712  0.1041 -0.4767
32417W        W48551  14.796   7.216   2.716 -0.0426 -0.2371  0.1085
32418W        W48552   9.411   6.548  14.974  0.2254  0.1030  0.0814
32419W        W48553  19.316   6.571  14.483  0.0731  0.0401 -0.1371
32420W        W48554   2.448  17.920   9.854  0.1119  0.2569 -0.0290
32421W        W48555  18.043  14.518  14.695 -0.4716  0.0203  0.2331
32422W        W48556  13.172   6.281   2.089  0.1303 -0.3323 -0.0604
32423W        W48557   0.806   5.643  11.268  0.0401  0.1570  0.2028
32424W        W48558  12.843  11.174  13.697 -0.0582 -0.0236  0.1486
32425W        W48559   9.645   7.361  12.950  0.3034 -0.1841 -0.3059
32426W        W48560  16.835  10.406  12.549  0.0797 -0.1596  0.1060
32427W        W48561  16.858  12.036   1.022  0.3023  0.2723  0.2425
32428W        W48562  16.061   7.849   4.582  0.2006 -0.0505 -0.2554
32429W        W48563  19.127  19.077   2.775 -0.4194 -0.1168 -0.3744
32430W        W48564   6.407  10.165   2.598  0.2676  0.2088  0.1271
32431W        W48565  11.792   2.877  13.519  0.0429 -0.1057 -0.1084
32432W        W48566   5.105   7.139   1.451 -0.0346  0.0805 -0.2844
32433W        W48567  16.209  13.472  12.188  0.2899 -0.1594  0.0834
32434W        W48568   7.291   5.876   4.140 -0.0699 -0.1656  0.0168
32435W        W48569  10.611   0.838   2.769 -0.3744 -0.1570  0.2109
32436W        W48570   4.999  11.912  12.359 -0.0660  0.3053  0.3060
32437W        W48571  17.892  18.484   4.207 -0.0425 -0.2132  0.1281
32438W        W48572   6.983   2.718   2.157 -0.0620 -0.1338 -0.4029
32439W        W48573   3.054  13.778  11.861 -0.1192  0.0597 -0.3336
32440W        W48574  12.346  12.615   3.421 -0.2319  0.3770  0.0797
32441W        W48575   3.683   4.696   2.447  0.0126 -0.0779 -0.1559
32442W        W48576   7.163   3.948   0.190 -0.1960  0.0821  0.3580
32443W        W48577  12.945  14.589   1.339 -0.2530  0.2376  0.1636
32444W        W48578  17.599  10.243   1.683  0.3660  0.0263  0.2741
32445W        W48579   1.874  14.736  12.136  0.2275  0.0090 -0.4057
32446W        W48580  13.221  13.069   3.289  0.1262 -0.1002 -0.2405
32447W        W48581  16.155  10.329  10.831  0.1301  0.1362 -0.0733
32448W        W48582  17.753  17.537   1.901  0.3589 -0.0149  0.4416
32449W        W48583  11.583   4.562  11.319 -0.0171  0.1451  0.0195
32450W        W48584   5.142   4.483   3.644 -0.0028  0.2461  0.0567
32451W        W48585   5.677   1.279  10.133  0.3527  0.0442  0.2115
32452W        W48586   2.322   8.748  14.189 -0.1027  0.0291  0.0119
32453W        W48587  14.337  12.363  10.805 -0.2760 -0.2507  0.0199
32454W        W48588  12.059   1.233   1.491  0.2028 -0.1874 -0.4443
32455W        W48589  17.770   7.021  11.094  0.2489 -0.1585  0.1190
32456W        W48590  19.319  15.871   3.966 -0.4122 -0.1658 -0.0674
32457W        W48591   5.823  16.458   0.570  0.1345 -0.2680 -0.2321
32458W        W48592   0.563   3.721   0.646  0.0333  0.1261  0.0555
32459W        W48593  17.093   3.462   2.912 -0.1447 -0.2127 -0.0212
32460W        W48594   0.531  11.655   0.590 -0.1169  0.2280 -0.1683
32461W        W48595   7.793   3.007  11.166  0.4970 -0.2024  0.1872
32462W        W48596   3.972  11.191   2.825 -0.0511 -0.0941 -0.1112
32463W        W48597   0.985   7.697   2.579  0.0452  0.0218 -0.0160
32464W        W48598  17.874   2.138  14.863  0.2619  0.3655  0.2659
32465W        W48599  17.120  15.075  11.198  0.3136  0.0130 -0.0624
32466W        W48600   8.453  15.770   3.549 -0.3327 -0.0940  0.1238
32467W        W48601  19.240  18.157   1.497 -0.0707  0.0053 -0.0998
32468W        W48602  17.817  14.144   0.102 -0.0734 -0.1517 -0.1805
32469W        W48603   4.394  19.110   3.803 -0.1191 -0.2021 -0.0939
32470W        W48604   3.337   9.574   2.836 -0.1121 -0.1290  0.3919
32471ION     NA48605  11.313  14.970   9.508 -0.0597 -0.3301 -0.0831
32472ION     NA48606  14.203  12.555  11.305 -0.1233 -0.0860  0.1578
32473ION     NA48607   1.345   9.014   3.989  0.2067 -0.3541  0.0361
32474ION     NA48608   0.171   0.071   9.533 -0.4803  0.0370 -0.1585
32475ION     NA48609   2.602  15.952   9.628 -0.1227 -0.1833  0.1670
32476ION     NA48610   0.504  14.457  11.755 -0.1978  0.1350 -0.0515
32477ION     NA48611  17.739   4.305   9.825 -0.1355 -0.0581 -0.3642
32478ION     NA48612  18.058   1.286   0.725  0.1345  0.1821 -0.1933
32479ION     NA48613  12.957  16.861  12.836 -0.0756 -0.2181  0.0915
32480ION     NA48614   8.042   9.608   4.006 -0.2122 -0.0523  0.7955
32481ION     NA48615  11.140   8.334   9.975  0.0905  0.0298  0.0059
32482ION     NA48616  12.128  14.886  12.169  0.0713 -0.0049  0.3047
32483ION     NA48617   5.605   5.695   9.222 -0.3047 -0.0068 -0.1941
32484ION     NA48618  11.436   3.897  13.583  0.2937  0.1321  0.1947
32485ION     NA48619   2.221  11.880   3.154 -0.0855  0.0402  0.1026
32486ION     NA48620  10.581  10.731   9.309  0.0156 -0.0428  0.0365
32487ION     NA48621  18.269   2.960   3.095  0.1000  0.0466  0.1300
32488ION     NA48622  13.666   4.207  13.944  0.0099  0.1432 -0.4833
32489ION     NA48623   0.833   8.221   9.827 -0.0686 -0.5532 -0.1215
32490ION     NA48624  16.629   8.103   9.563 -0.1408  0.1037  0.1326
32491ION     NA48625   9.856  12.073   9.528 -0.1826 -0.0275 -0.4055
32492ION     NA48626   1.414  12.081   9.927 -0.0947 -0.4434  0.1571
32493ION     NA48627   7.539   8.224   9.355 -0.0875 -0.0208 -0.1518
32494ION     NA48628   2.828   7.399   3.124  0.1594  0.0433  0.3092
32495ION     NA48629   3.074   5.944   5.154 -0.2381 -0.0790  0.3593
32496ION     NA48630  14.372  13.580   9.498 -0.1960  0.4029  0.0166
32497ION     NA48631  16.435   8.131  14.737 -0.1191 -0.0536  0.0755
32498ION     NA48632   1.808   5.730   2.291  0.0783  0.0486  0.0476
32499ION     NA48633   0.023   2.973   9.333 -0.0730 -0.0206 -0.3246
32500ION     NA48634   2.604   2.954   5.183 -0.1059 -0.3352  0.0098
32501ION     NA48635   8.678   0.604  13.903 -0.1270  0.0640 -0.0462
32502ION     NA48636  16.036  12.634   9.658  0.0806  0.1341 -0.3270
32503ION     NA48637  18.521  17.251  10.058  0.0376  0.0097 -0.1073
32504ION     NA48638  15.811   1.885   9.555  0.1344  0.0621 -0.0997
32505ION     NA48639   4.974   8.521   9.521 -0.1882 -0.0442 -0.2156
32506ION     NA48640  16.518   3.247   3.785  0.0309 -0.4509  0.1229
32507ION     NA48641  17.182   2.064   0.213  0.1524 -0.1132  0.0082
32508ION     NA48642   2.913  18.705   9.560  0.2017  0.2230  0.1510
32509ION     NA48643   1.616   9.603  10.040 -0.2588 -0.1588  0.2182
32510ION     NA48644   8.538   7.433   9.460 -0.1375  0.2976  0.0054
32511ION     NA48645  15.057  11.612   5.356  0.3475  0.0984 -0.0109
32512ION     NA48646   6.521  18.230   9.422 -0.1486  0.0120  0.0629
32513ION     NA48647  10.898  15.261   9.562  0.2023  0.0678 -0.1161
32514ION     NA48648   6.975  13.769   9.970 -0.1346 -0.1896 -0.3568
32515ION     NA48649  10.071  17.984  12.155  0.2330  0.1316  0.1738
32516ION     NA48650  12.114  11.764   9.460  0.0631  0.0401  0.1725
32517ION     NA48651  19.333   1.469   9.147  0.2970 -0.2660 -0.0352
32518ION     NA48652   6.560   7.374   1.407  0.2854 -0.1116  0.0903
32519ION     NA48653   8.432   7.091   1.574 -0.1496 -0.1640 -0.1108
32520ION     NA48654  16.152   0.733   4.805 -0.3399 -0.3035  0.3996
32521ION     NA48655   2.824  10.092  14.687 -0.2952 -0.1735  0.1560
32522ION     NA48656  17.801  12.838   1.371  0.4175  0.4560  0.1028
32523ION     NA48657   2.686  14.965  12.446  0.0300 -0.0288 -0.0970
32524ION     NA48658  11.292  12.691   9.215 -0.2345  0.0812 -0.2528
32525ION     NA48659   4.062  10.122   9.844 -0.1529  0.0321 -0.1190
32526ION     NA48660  16.351   6.733   4.537 -0.0619  0.2676  0.0640
32527ION     NA48661  16.482   4.190   9.479 -0.1412 -0.0992  0.1149
32528ION     NA48662   8.001   0.987   4.960 -0.0926  0.0689 -0.1172
32529ION     NA48663  17.669  13.997   9.493  0.1141  0.1306 -0.2104
32530ION     NA48664  14.292   5.653   9.415 -0.3214  0.1934 -0.0416
32531ION     NA48665  18.973  17.049   9.241 -0.1237 -0.1888  0.0330
32532ION     NA48666  17.489   5.214  10.671  0.1852  0.1791 -0.0648
32533ION     NA48667   3.483  14.631   9.699 -0.2682 -0.1666  0.0634
32534ION     NA48668  12.141  18.194   5.484  0.2696  0.0912 -0.2701
32535ION     NA48669  18.459  10.080   9.511 -0.0435 -0.0357  0.1412
32536ION     NA48670   1.040  17.164   9.505 -0.3385  0.1337 -0.0545
32537ION     NA48671   7.043   2.447  12.520 -0.3685  0.3570 -0.5953
32538ION     NA48672   6.415   2.127  11.596  0.0285  0.1575 -0.2187
32539ION     NA48673   0.280  17.563   9.488  0.3025  0.0255  0.0593
32540ION     NA48674   7.308  17.538  13.695  0.0038  0.1123 -0.2516
32541ION     NA48675  14.117  15.727  10.771  0.1304  0.1794 -0.0394
32542ION     NA48676  11.326  11.380   9.423  0.0287 -0.1279 -0.2802
32543ION     NA48677  18.154  13.133   5.104 -0.0840  0.3114  0.0121
32544ION     NA48678  12.792   4.041   9.656 -0.0205 -0.1266 -0.1176
32545ION     NA48679   0.377  15.067   9.353  0.0947  0.3531  0.1673
32546ION     NA48680   5.664  10.640   1.793 -0.2249 -0.0322 -0.1974
32547ION     NA48681   7.817  12.388   5.405 -0.0463 -0.0159  0.1899
32548ION     NA48682  11.268   7.776   5.086  0.1004 -0.1475  0.3011
32549ION     NA48683  10.229  13.147   9.482 -0.2684 -0.0681 -0.2463
32550ION     NA48684  11.529  16.590   9.891 -0.2446 -0.1000  0.0401
32551ION     NA48685   8.134   6.377  13.104 -0.0645  0.0421  0.2823
32552ION     NA48686   3.549  15.308   9.563  0.0110 -0.0852 -0.1491
32553ION     NA48687  14.681  12.649   9.946  0.0287 -0.2170  0.3265
32554ION     NA48688   1.680  11.326   5.716 -0.0920  0.2253  0.1453
32555ION     NA48689   9.344  18.073   0.169  0.2960  0.0856 -0.0355
32556ION     NA48690  14.398   2.220   9.419  0.0720  0.1463 -0.3687
32557ION     NA48691  19.206   3.807   3.515  0.0359  0.0943  0.0595
32558ION     NA48692   9.537   0.258  10.029  0.0956  0.1479  0.0517
32559ION     NA48693   1.317   0.067   5.287  0.1225 -0.0456  0.0559
32560ION     NA48694   9.505   9.331   9.993  0.0200 -0.0356  0.1292
32561ION     NA48695  17.201   7.261  10.831 -0.4033 -0.0952 -0.2776
32562ION     NA48696  15.578  17.421   4.957  0.0465  0.0578  0.2765
32563ION     NA48697  18.006   3.379   9.234  0.2559  0.2178  0.1352
32564ION     NA48698   5.270  13.265  11.771  0.0805 -0.2258  0.2704
32565ION     NA48699   6.703   7.885   5.637 -0.0356 -0.0241  0.3984
32566ION     NA48700  11.162   7.521   9.722  0.1806  0.0587 -0.1771
32567ION     NA48701  11.103   1.290   5.439  0.1647  0.1604  0.1801
32568ION     NA48702   8.262   3.225   5.694  0.1679 -0.0249  0.1498
32569ION     NA48703   8.001  14.441  12.610 -0.1760 -0.0074 -0.0115
32570ION     NA48704   2.330   5.239   2.707 -0.0689  0.4030 -0.2037
32571ION     NA48705   0.082  16.674   0.120 -0.0602  0.0820  0.1585
32572ION     NA48706   1.878  13.014   3.600 -0.1924  0.0049  0.0012
32573ION     NA48707  12.723   9.234   9.524 -0.1407 -0.0669 -0.0993
32574ION     NA48708  12.977   3.068   9.650 -0.1434  0.0678  0.0703
32575ION     NA48709   2.264  14.652  13.816  0.0290  0.1515 -0.0496
32576ION     NA48710  12.250  13.065   0.626  0.0017 -0.0954 -0.0594
32577ION     NA48711   2.921   7.790   4.632 -0.3163 -0.0939  0.0685
32578ION     NA48712   9.094  17.885   9.603  0.0260  0.1611  0.0911
32579ION     NA48713   3.841   3.717   9.472  0.2255  0.0411  0.1198
32580ION     NA48714   0.376   1.054  14.167  0.0692 -0.0586 -0.3188
32581ION     NA48715  18.984  18.856  11.934  0.1733  0.2333 -0.3848
32582ION     NA48716   7.577   0.675   9.975  0.1389 -0.2310 -0.0048
32583ION     NA48717  10.513   7.537  10.943  0.3603  0.3289  0.0469
32584ION     NA48718   7.475  15.820   9.549  0.0551 -0.1368  0.0441
32585ION     NA48719  14.952   7.853   9.472 -0.2419 -0.2696  0.3021
32586ION     NA48720   3.932  11.003   2.229 -0.1669 -0.3191 -0.0218
32587ION     NA48721   6.734   6.507  13.142 -0.1297  0.1033 -0.2850
32588ION     NA48722   5.459  10.086   9.556 -0.1161 -0.0950  0.0205
32589ION     NA48723  11.618  17.408   9.966 -0.2017  0.0555 -0.2213
32590ION     NA48724   5.156  15.985   5.059  0.3470 -0.1913  0.3658
32591ION     NA48725   9.866  12.915  13.670 -0.2029 -0.0284  0.2734
32592ION     NA48726  18.749   7.342   1.461 -0.0442 -0.0601 -0.0015
32593ION     NA48727   5.244  16.963   2.272 -0.1133  0.0426  0.0348
32594ION     NA48728  17.459  11.093   9.553 -0.0276 -0.0673  0.1157
32595ION     NA48729  19.312  15.491   9.421  0.1107 -0.0405  0.0344
32596ION     NA48730   4.530  10.045  10.499 -0.2428 -0.0288 -0.0629
32597ION     NA48731   8.676   1.920   9.952 -0.0259 -0.1768  0.2943
32598ION     NA48732   1.984   0.428   9.949  0.2629 -0.5971  0.2056
32599ION     NA48733  17.000  15.623   9.235  0.3998 -0.1221 -0.0329
32600ION     NA48734   2.352   1.633   4.731 -0.1451 -0.1810  0.0613
32601ION     NA48735  11.885   7.849  10.860  0.0317  0.1922  0.0244
32602ION     NA48736   4.119   4.947   9.114 -0.1493 -0.0985  0.2090
32603ION     NA48737   6.266  10.059  10.034  0.4612  0.3361 -0.1413
32604ION     NA48738   4.724   7.555   5.117 -0.0116 -0.2458  0.1727
32605ION     NA48739   8.836   5.005   9.918  0.1307  0.1939  0.2194
32606ION     NA48740   0.218   1.073  11.140 -0.0358  0.0916  0.0449
32607ION     NA48741   8.956   2.755   4.811  0.0084 -0.0240 -0.3499
32608ION     NA48742   4.929   1.350   9.446  0.4258  0.1625 -0.0618
32609ION     NA48743  18.180   2.435   1.351  0.0649 -0.0349 -0.1620
32610ION     NA48744   8.176  18.987   4.634 -0.1229  0.2504 -0.2453
32611ION     NA48745   3.361   6.543  14.188 -0.2239  0.0307  0.0117
32612ION     NA48746   1.988   3.415   9.427  0.0628  0.2119  0.3225
32613ION     NA48747   1.174  19.130   9.362  0.0098 -0.2239  0.0829
32614ION     NA48748   9.474   1.119   5.792  0.0483 -0.3004 -0.0483
32615ION     NA48749  11.085   1.534  10.440 -0.0766 -0.0473  0.0668
32616ION     NA48750  12.153  15.833   9.738 -0.0820 -0.1916 -0.1516
32617ION     NA48751  16.539  13.380   9.660 -0.1343 -0.1019  0.0935
32618ION     NA48752  14.132   1.293   5.168 -0.2266 -0.0578 -0.2633
32619ION     NA48753   9.380  15.601   9.722 -0.0687 -0.1447 -0.0145
32620ION     NA48754   8.498  18.304   5.282  0.0911 -0.2493  0.2977
32621ION     NA48755   8.471  10.690   9.980  0.0050 -0.0417 -0.1522
32622ION     NA48756  12.846  14.023   9.579  0.0109 -0.0343  0.2068
32623ION     NA48757  12.579  14.759  13.311  0.0339 -0.3725  0.3347
32624ION     NA48758  15.297  12.088   9.464  0.1964 -0.1674 -0.0156
32625ION     NA48759   2.138  10.214  14.367  0.2314 -0.4089 -0.1952
32626ION     NA48760   0.354   2.375   9.161  0.0768 -0.1966  0.0355
32627ION     NA48761   0.728   4.622   9.342  0.0632 -0.0254 -0.1707
32628ION     NA48762   3.671   2.869   9.537 -0.0273 -0.0704  0.2615
32629ION     NA48763   7.948  13.283  10.803 -0.0315  0.0804  0.2550
32630ION     NA48764   1.116  11.447   4.040  0.2731  0.3296  0.1124
32631ION     NA48765  15.409   8.854   9.821 -0.1139  0.0002  0.0231
32632ION     NA48766  18.135  10.446   5.136  0.1179 -0.2173 -0.1276
32633ION     NA48767  11.775  15.503   3.293 -0.2052 -0.0341  0.1095
32634ION     NA48768   4.052  11.587   0.253 -0.0876 -0.0271 -0.1958
32635ION     NA48769  10.730  12.057   9.122 -0.0089 -0.2741  0.0856
32636ION     NA48770  15.492   5.807  10.228  0.0397  0.0139 -0.0698
32637ION     NA48771   2.296  11.244   4.683 -0.0971 -0.1127  0.0086
32638ION     NA48772   8.527  18.946  10.208 -0.1035 -0.0331 -0.1259
32639ION     NA48773   8.672   0.953  10.173  0.1567 -0.1625  0.1758
32640ION     NA48774   9.780  17.296   9.672 -0.0884  0.1226 -0.2398
32641ION     NA48775  17.741  19.170  10.757 -0.0919 -0.4611  0.0063
32642ION     NA48776  19.267  17.954   9.199 -0.4176 -0.2698  0.0556
32643ION     NA48777  17.251   5.160   9.680 -0.3555 -0.0940  0.2433
32644ION     NA48778   1.344  14.793   4.911 -0.0935 -0.0439 -0.3465
32645ION     NA48779   9.125  10.068  14.150  0.1990  0.3913 -0.0844
32646ION     NA48780   8.025   3.271  10.299  0.2214 -0.0605 -0.0707
32647ION     NA48781   2.315   5.392   9.052  0.1558 -0.2086  0.0295
32648ION     NA48782  12.103   4.749   9.615 -0.1600 -0.1456  0.3063
32649ION     NA48783   9.229   5.014   0.041  0.2571 -0.0507 -0.0275
32650ION     NA48784   1.912  13.005   4.647  0.0581 -0.0859  0.2182
32651ION     NA48785   4.794  16.724   3.590  0.1610  0.0896  0.0861
32652ION     NA48786  14.111   3.206   9.783  0.2486  0.0675  0.4054
32653ION     NA48787   5.629  15.968  11.843  0.0501  0.1814 -0.4522
32654ION     NA48788   7.103  11.604   2.196  0.0971 -0.4465 -0.1327
32655ION     NA48789   6.057  15.414   9.681 -0.3662  0.0128  0.0811
32656ION     NA48790  18.346   5.258   9.556 -0.1355 -0.2037 -0.2987
32657ION     NA48791  16.608  14.687   5.268 -0.2305 -0.0635 -0.1515
32658ION     NA48792   9.389  14.669  10.151  0.0075 -0.4024  0.1114
32659ION     NA48793   7.120   2.754   9.660  0.1435  0.1175  0.2492
32660ION     NA48794   1.928  17.405   5.462  0.1961 -0.0642 -0.2805
32661ION     NA48795  19.040   9.546  13.667 -0.3491  0.1138 -0.0080
32662ION     NA48796  12.946  15.333   9.784  0.0517 -0.0249  0.2014
32663ION     NA48797   2.357  16.255   4.138 -0.0792  0.1703 -0.0254
32664ION     NA48798  11.179  10.387   9.312 -0.0736 -0.0228  0.2054
32665ION     NA48799  13.841   8.528   9.986  0.0465 -0.1159 -0.1629
32666ION     NA48800   5.924   3.048  13.080 -0.1856 -0.3374  0.2707
32667ION     NA48801  14.304   1.029  10.449  0.1536  0.0519 -0.4768
32668ION     NA48802  15.473  16.692   9.389 -0.3708  0.0203  0.2483
32669ION     NA48803  12.717   4.472   5.479 -0.0814  0.0386  0.0545
32670ION     NA48804   5.660   0.951   9.621 -0.0000  0.1421 -0.0546
32671ION     NA48805  17.515   0.778   9.182  0.0219  0.2524 -0.1114
32672ION     NA48806   7.197  19.285  10.977  0.0235 -0.0999 -0.2018
32673ION     NA48807  17.211  17.109   0.461  0.1181 -0.3081 -0.3310
32674ION     NA48808  14.512  14.406   9.512  0.2500  0.0057 -0.0727
32675ION     NA48809  13.085   7.525   9.714 -0.0540  0.1007 -0.2548
32676ION     NA48810  18.172   2.568   9.366 -0.2609 -0.3545 -0.0997
32677ION     NA48811  10.621  16.360   3.330 -0.0356 -0.3792  0.1362
32678ION     NA48812  18.514  13.668   9.288 -0.0981  0.1154 -0.3601
32679ION     NA48813   6.203  11.195   9.630 -0.3287  0.0223  0.0500
32680ION     NA48814  10.511   7.710  14.701 -0.1637  0.3982 -0.1000
32681ION     NA48815   1.901  16.873   9.394 -0.1728 -0.1215  0.3324
32682ION     NA48816  18.635  12.747   9.414  0.1178 -0.2553 -0.0399
32683ION     NA48817   2.093   7.698   9.969 -0.0058 -0.0097 -0.0357
32684ION     NA48818   3.101   2.690   0.058  0.1243 -0.0038  0.2178
32685ION     NA48819   0.872  12.821  10.049 -0.3210 -0.0638 -0.1508
32686ION     NA48820   8.315  18.993   3.338  0.2394 -0.0359  0.3050
32687ION     NA48821  17.814   8.162   2.049  0.0598 -0.0003 -0.2978
32688ION     NA48822  14.201  19.221  10.069 -0.3212 -0.0496  0.1819
32689ION     NA48823  11.028  15.616  11.238 -0.0091  0.1634 -0.1449
32690ION     NA48824   4.439  13.586  10.059 -0.0528 -0.2786 -0.0715
32691ION     NA48825   8.094   4.299   9.912 -0.1564  0.4538 -0.0393
32692ION     NA48826  18.893  12.291   9.453 -0.1066  0.0977  0.0750
32693ION     NA48827   6.179   7.557   9.524 -0.2493  0.0920  0.4918
32694ION     NA48828   4.683  16.117   9.897  0.0227  0.0416 -0.2506
32695ION     NA48829  11.731   3.353   0.022  0.0880  0.1016  0.1042
32696ION     NA48830   9.139  11.414   1.201 -0.3295  0.0898 -0.2779
32697ION     NA48831   8.347   8.803   9.265  0.1542 -0.2688 -0.6010
32698ION     NA48832  10.548  17.827   9.470 -0.1734  0.0098 -0.2587
32699ION     NA48833  19.094   7.529   9.448 -0.0162  0.1150 -0.4094
32700ION     NA48834   2.681  10.260  12.536 -0.2213 -0.0339  0.0175
32701ION     NA48835   2.198  19.174   4.028 -0.6656  0.0009  0.1949
32702ION     NA48836   2.746   8.335   9.697  0.1344  0.0665  0.1482
32703ION     NA48837  14.885   9.576   9.710  0.0441 -0.1171  0.2042
32704ION     NA48838   7.034  17.483   9.413  0.2503  0.1160 -0.2878
32705ION     NA48839   1.140  11.637  10.092  0.1748  0.2731  0.2158
32706ION     NA48840   3.006   4.254   4.597 -0.3330 -0.2326 -0.2737
32707ION     NA48841  10.300  15.913   9.689  0.0804  0.0937  0.1743
32708ION     NA48842   4.276   1.923   9.758  0.3010 -0.0281 -0.0769
32709ION     NA48843  13.993  11.110   9.691 -0.0942  0.0505 -0.1048
32710ION     NA48844   8.887   2.836  12.444  0.0478  0.0908 -0.1448
32711ION     NA48845  13.125   9.988   9.465  0.2649 -0.1629 -0.0247
32712ION     NA48846  10.152  16.391   3.770 -0.2470 -0.2225  0.1847
32713ION     NA48847   5.464   9.506   9.827  0.0061  0.1119  0.1330
32714ION     NA48848   0.201  16.472   9.413 -0.2570  0.3896 -0.1059
32715ION     NA48849   3.741  16.293   9.569 -0.1278 -0.1459 -0.1830
32716ION     NA48850   4.625   4.420   4.849  0.0971  0.0148 -0.1359
32717ION     NA48851   0.181  13.637   2.531  0.0957 -0.5322 -0.3073
32718ION     NA48852   5.726   2.850   9.477  0.0238  0.0015 -0.0080
32719ION     NA48853   0.486   9.112  11.523  0.1091 -0.1069 -0.1386
32720ION     NA48854   8.995   3.044  10.136 -0.2734  0.0278  0.0450
32721ION     NA48855   1.339   5.628   9.194  0.0146  0.2133 -0.3766
32722ION     NA48856  15.316   3.012   3.083  0.0992 -0.5349 -0.3372
32723ION     NA48857  17.064  18.981   3.963 -0.2264  0.1485  0.0330
32724ION     NA48858   1.906  15.939   9.378  0.1061  0.0329 -0.1011
32725ION     NA48859   4.499  10.425  12.681  0.1277 -0.0495  0.2833
32726ION     NA48860  14.765  10.525   5.276  0.0634  0.0462 -0.0192
32727ION     NA48861  12.629   6.855   9.678  0.3175 -0.0396 -0.1591
32728ION     NA48862   7.788  15.513   9.871 -0.3338  0.0218  0.0348
32729ION     NA48863  17.479   1.116   0.026  0.1490 -0.0287  0.3517
32730ION     NA48864  19.244   7.351   0.217 -0.0253 -0.0732 -0.0959
32731ION     NA48865  17.535  19.233   8.891 -0.1215 -0.1870  0.1092
32732ION     NA48866   5.504   7.448   4.648  0.4395 -0.1519 -0.3217
32733ION     NA48867   5.326  15.687  14.626  0.1000 -0.2087 -0.2531
32734ION     NA48868   4.727   5.888   9.395 -0.0878  0.2203  0.0627
32735ION     NA48869   8.297   6.640   5.326  0.1624 -0.0555  0.2534
32736ION     NA48870   4.980  15.441   2.249  0.1853  0.1734  0.0303
32737ION     NA48871   4.332   0.470   9.446 -0.3157 -0.2186  0.1410
32738ION     NA48872   8.873   0.860   5.311 -0.2779 -0.2004 -0.1594
32739ION     NA48873   8.740  13.510  13.803  0.3029 -0.4360 -0.3075
32740ION     NA48874  11.182   2.930  10.432 -0.1568 -0.0840  0.1055
32741ION     NA48875  12.558   7.562  12.613 -0.0634  0.2275 -0.0566
32742ION     NA48876   9.255  16.933   5.151 -0.2553  0.0523 -0.0901
32743ION     NA48877   5.484   3.811   9.261 -0.2101 -0.2571 -0.0804
32744ION     NA48878   9.221  15.487   2.335  0.4398 -0.1748  0.0536
32745ION     NA48879  17.922   9.422   9.523 -0.3347  0.3223 -0.2820
32746ION     NA48880   5.734  17.293   4.025 -0.1507  0.1311 -0.0099
32747ION     NA48881  13.935  16.699  13.566  0.1250 -0.2007 -0.0167
32748ION     NA48882   8.460   8.313   9.594 -0.2184  0.0977 -0.0139
32749ION     NA48883  12.018  10.761   4.770  0.1896  0.1877 -0.1446
32750ION     NA48884   6.594   2.015   0.945  0.1136  0.0789 -0.1837
32751ION     NA48885  12.893  18.890  10.003 -0.2745 -0.0316 -0.0782
32752ION     NA48886   2.111  14.297   9.523  0.0644 -0.0313  0.1504
32753ION     NA48887   8.052  16.433   9.703  0.2584 -0.3182 -0.1341
32754ION     NA48888  18.186   0.165   9.431  0.0080 -0.1372 -0.1496
32755ION     NA48889  17.034   1.307   9.217 -0.0648 -0.4591  0.0551
32756ION     NA48890  18.464   6.308   9.591  0.3287 -0.0394  0.1146
32757ION     NA48891   5.712   1.626   9.764 -0.0203 -0.3083  0.0641
32758ION     NA48892   7.481  10.841   9.756  0.0425 -0.1936  0.0612
32759ION     NA48893   0.687   5.668  13.303 -0.2695  0.1712  0.1958
32760ION     NA48894   0.206  14.201   9.349 -0.2609  0.0345  0.4307
32761ION     NA48895   2.711  11.671  10.195  0.0902  0.2454 -0.1194
32762ION     NA48896   6.735   7.133   9.880 -0.0259 -0.0883 -0.1858
32763ION     NA48897   6.956   8.854   9.446  0.0180  0.2555 -0.4948
32764ION     NA48898  15.683  18.491   9.303  0.1059 -0.0982  0.2563
32765ION     NA48899  11.641   0.432   1.429 -0.2030  0.0441  0.0044
32766ION     NA48900  16.328   6.054   2.535 -0.0823 -0.0777 -0.1619
32767ION     NA48901   4.639  10.009   2.324 -0.0495 -0.2102  0.1705
32768ION     NA48902   7.582  17.424   9.772  0.0810 -0.2701  0.1651
32769ION     NA48903   3.177  17.697   9.722 -0.1485  0.1134 -0.2532
32770ION     NA48904  12.211   3.396   2.077  0.0696  0.1301 -0.1557
32771ION     NA48905   7.105  17.769   5.632  0.1824  0.0938  0.1762
32772ION     NA48906  16.808   5.855   9.368  0.1043  0.1184 -0.1130
32773ION     NA48907  14.708  18.365   9.721 -0.3599 -0.1052  0.0151
32774ION     NA48908   7.723  12.816   0.355  0.0536  0.0649  0.0686
32775ION     NA48909   0.728   0.791   9.331 -0.2514  0.2642 -0.1942
32776ION     NA48910   5.134   2.198   2.374  0.3702  0.0117 -0.1765
32777ION     NA48911  11.741   6.824   3.919  0.0749 -0.0279  0.1054
32778ION     NA48912   5.020  10.772   1.734 -0.0263  0.4943 -0.1204
32779ION     NA48913   8.752  11.780   9.791  0.2951  0.1756 -0.2932
32780ION     NA48914  10.675   9.815   9.721 -0.0102  0.2008 -0.1313
32781ION     NA48915  15.023   3.854   9.542 -0.0131  0.1094  0.3110
32782ION     NA48916  17.906   6.172   9.663 -0.4213  0.3377  0.0155
32783ION     NA48917   2.810  16.409   9.546  0.1104  0.0030 -0.1150
32784ION     NA48918  12.940   3.032   2.239  0.0112 -0.0534 -0.0441
32785ION     NA48919   6.374   8.396  13.628 -0.3814 -0.0765  0.1518
32786ION     NA48920  15.965   9.784  11.585 -0.0522 -0.2071  0.3897
32787ION     NA48921  12.321   2.618  10.088  0.2030 -0.1745 -0.1416
32788ION     NA48922  18.493   0.696   5.194 -0.1242  0.4047 -0.2144
32789ION     NA48923   0.231   8.086   4.895 -0.0865 -0.0577  0.3558
32790ION     NA48924  14.660   9.826  14.259  0.0112  0.0470  0.0891
32791ION     NA48925   7.551  18.470   9.953  0.1626  0.2798 -0.4614
32792ION     NA48926   2.728  15.387  10.959  0.1050 -0.0484 -0.2992
32793ION     NA48927   7.529   1.651   4.904  0.1039  0.5568  0.0119
32794ION     NA48928   0.835   3.368  12.000 -0.0362 -0.1414  0.2104
32795ION     NA48929  12.597   8.748   0.226 -0.2219  0.3552  0.0016
32796ION     NA48930   8.533  15.121  10.500 -0.2277 -0.3049 -0.0022
32797ION     NA48931  12.548   5.142  10.375 -0.0093  0.0001  0.2582
32798ION     NA48932  18.130   7.894   5.430 -0.0420 -0.1726 -0.0683
32799ION     NA48933  14.490   9.302   9.816 -0.1946  0.0274  0.1236
32800ION     NA48934  15.796   0.523   9.179  0.1819 -0.1590  0.2937
32801ION     NA48935   6.103   6.534   9.463 -0.1073 -0.3541 -0.2621
32802ION     NA48936  13.113  12.699   9.350  0.0750  0.0364 -0.1641
32803ION     NA48937   6.883  18.846   5.164  0.3992 -0.2086  0.0132
32804ION     NA48938  15.770  10.061   0.912  0.1180 -0.0540 -0.1356
32805ION     NA48939  16.023  15.399   9.241  0.1797  0.2322  0.0833
32806ION     NA48940   7.677  10.285   1.433  0.1715 -0.4161 -0.2182
32807ION     NA48941  11.652   3.247  10.226 -0.3960  0.1012 -0.1132
32808ION     NA48942  14.204  17.381   0.371 -0.0720  0.0695 -0.3579
32809ION     NA48943   2.800   7.092   9.702 -0.1482  0.1849 -0.1298
32810ION     NA48944  16.375   7.011   9.396  0.0155  0.1582  0.0195
32811ION     NA48945   8.499  12.271   1.868  0.0387  0.0916  0.3384
32812ION     NA48946   8.299  17.996  10.071 -0.1787 -0.1334 -0.3042
32813ION     NA48947  12.101  17.725  14.701 -0.1515 -0.1372  0.0166
32814ION     NA48948  10.005   1.728  10.192 -0.0558  0.1183 -0.1690
32815ION     NA48949  17.433   6.654   9.522 -0.0680  0.0053  0.3046
32816ION     NA48950  11.440  14.055   9.265 -0.0597 -0.0460  0.2642
32817ION     NA48951  11.898   4.554   1.974  0.3261 -0.2989 -0.1777
32818ION     NA48952   0.575  17.901   5.422  0.3883  0.1629 -0.1019
32819ION     NA48953   3.661  18.404  11.376 -0.0414  0.1058 -0.0326
32820ION     NA48954  11.001   5.951  10.354  0.0075 -0.1718  0.1667
32821ION     NA48955  14.399   9.879  12.817 -0.2237 -0.0457  0.2872
32822ION     NA48956  17.459  14.460   5.152  0.2517  0.2057 -0.0688
32823ION     NA48957   5.397  15.612   9.766  0.0746 -0.3077  0.1522
32824ION     NA48958  11.558   9.811   9.599 -0.1436 -0.0759 -0.3052
32825ION     NA48959  17.732  16.814   9.565 -0.0393 -0.3936  0.0748
32826ION     NA48960   9.242  13.407   9.556 -0.0708  0.2180 -0.0355
32827ION     NA48961   4.165  16.008   5.279 -0.2609 -0.3007 -0.1136
32828ION     NA48962  17.623   8.873   5.083  0.0301  0.0270 -0.1650
32829ION     NA48963   4.924   2.240   9.676 -0.0398 -0.0214  0.0211
32830ION     NA48964   9.062  15.642   5.305  0.0700  0.2483  0.1950
32831ION     NA48965   8.242   2.337   5.602 -0.1480  0.0023 -0.0752
32832ION     NA48966   8.728  17.617   1.904 -0.1023 -0.2264 -0.0845
32833ION     NA48967  16.108   8.910   9.472  0.1599 -0.1274 -0.2100
32834ION     NA48968  14.413   6.538   9.627 -0.2092 -0.1566 -0.0534
32835ION     NA48969  17.760  14.931   9.315 -0.1638 -0.0919  0.3271
32836ION     NA48970  14.017  15.736   9.431  0.1597  0.0372 -0.2464
32837ION     NA48971   2.024  15.548   4.976  0.0756 -0.1784 -0.0111
32838ION     NA48972   0.045   7.948  10.846 -0.2810 -0.0353 -0.3234
32839ION     NA48973   5.297   2.392  10.101 -0.1745  0.0611 -0.1788
32840ION     NA48974   1.702  12.043   2.781 -0.0659 -0.0504  0.1215
32841ION     NA48975  16.281   5.091   9.717 -0.0535  0.0645 -0.1846
32842ION     NA48976  11.305   4.682  10.376 -0.2026  0.4390  0.1523
32843ION     NA48977   6.331   6.330   4.799 -0.0309 -0.2262  0.1794
32844ION     NA48978   5.760  14.986  13.651  0.3055 -0.1643  0.0284
32845ION     NA48979   1.972   8.641   9.866 -0.1228 -0.3512 -0.4052
32846ION     NA48980   7.227   9.640   9.399 -0.0157 -0.1627  0.5081
32847ION     NA48981  18.173  18.723   9.418  0.1962  0.0971  0.2663
32848ION     NA48982   9.840   2.299   0.472  0.1075  0.1661 -0.0372
32849ION     NA48983   8.259   0.077  10.048 -0.1350  0.0398  0.1277
32850ION     NA48984  11.874  11.193  11.825 -0.3114 -0.0801  0.4471
32851ION     NA48985   8.332   6.415   9.816 -0.0953 -0.2184  0.0940
32852ION     NA48986   6.490   8.356   9.189 -0.0785  0.0684 -0.1106
32853ION     NA48987  18.810   7.607   5.548  0.0565  0.3070 -0.1908
32854ION     NA48988  11.774   2.148  10.721  0.2117  0.0346  0.0221
32855ION     NA48989   4.945  16.028  13.217  0.1574  0.1659 -0.3833
32856ION     NA48990   1.941   6.911   9.304  0.2719 -0.2055  0.1925
32857ION     NA48991  15.432   2.582   9.994  0.2460  0.0959 -0.2060
32858ION     NA48992   5.930   4.927  10.240 -0.3723  0.0049 -0.2108
32859ION     NA48993   9.797   1.297   0.420 -0.0594  0.0243  0.0394
32860ION     NA48994   7.395   1.159  11.258 -0.0274  0.1647 -0.1762
32861ION     NA48995   6.044  13.564  10.292 -0.0910  0.0270  0.0602
32862ION     NA48996  14.447   9.807   0.228  0.1667  0.0823 -0.0838
32863ION     NA48997   5.583  17.064   3.611  0.2171 -0.2620 -0.0751
32864ION     NA48998   9.563   6.732   9.950 -0.0319  0.1612 -0.0729
32865ION     NA48999   2.497   0.076   9.182 -0.0466 -0.2493 -0.2349
32866ION     NA49000   4.420  18.776   9.539 -0.0924  0.1488 -0.2132
32867ION     NA49001   2.885   6.002   9.128  0.0183  0.0580  0.0697
32868ION     NA49002   0.518   7.440   0.991  0.1476 -0.2800 -0.1723
32869ION     NA49003  19.159   0.398  14.777  0.1262  0.2640 -0.1224
32870ION     NA49004  19.183   4.833   9.419  0.0522  0.0090  0.2554
32871ION     NA49005  16.112  16.403   9.462 -0.3866  0.1384  0.2274
32872ION     NA49006   2.967   9.741   9.608 -0.0656  0.1481 -0.1701
32873ION     NA49007  15.381   3.184  11.120 -0.3152  0.1859 -0.0923
32874ION     NA49008  17.164  16.970  13.955 -0.1475  0.1646  0.2450
32875ION     NA49009  19.170  17.173   5.096 -0.1630  0.0725 -0.1941
32876ION     NA49010   1.334  12.790   9.657 -0.0451 -0.0082  0.3349
32877ION     NA49011   4.071  15.613  11.217 -0.1990 -0.1184  0.0073
32878ION     NA49012   4.421   7.965   9.366 -0.6199 -0.4079 -0.3639
32879ION     NA49013  16.066  16.197   4.956 -0.1961  0.1743 -0.2938
32880ION     NA49014   6.499   2.213   9.627 -0.1823 -0.1304 -0.0206
32881ION     NA49015   5.863   8.622   9.598 -0.0739  0.3261  0.3016
32882ION     NA49016   2.584  16.468  11.602  0.3218  0.1468  0.0297
32883ION     NA49017  11.015   8.537   9.547  0.5228  0.0548  0.2087
32884ION     NA49018   2.785  10.517   9.982  0.2039  0.0327 -0.3014
32885ION     NA49019   1.129   8.985   9.859  0.3716  0.0641  0.0660
32886ION     NA49020   1.682  19.335   3.063 -0.2559  0.3266 -0.2511
32887ION     NA49021   7.014  13.854  13.462 -0.1572  0.3901  0.0876
32888ION     NA49022   2.468   9.955   2.938 -0.0788  0.1695 -0.2369
32889ION     NA49023  13.582   9.106   9.441  0.0434 -0.1567 -0.2139
32890ION     NA49024  17.442  18.471   2.016 -0.1395 -0.1045 -0.1300
32891ION     NA49025  10.927  13.388   9.325 -0.1281  0.0579  0.0373
32892ION     NA49026   9.040  16.163  14.803  0.0333 -0.1347  0.1233
32893ION     NA49027   9.915   4.675  10.166  0.4092 -0.2654  0.1955
32894ION     NA49028   7.312   1.689  10.054  0.4640  0.0912 -0.2427
32895ION     NA49029   7.353  14.052   2.207 -0.1509 -0.1349 -0.2186
32896ION     NA49030   7.724  17.560   4.450  0.0413  0.0227 -0.0389
32897ION     NA49031   4.898  18.928   9.401  0.0712  0.1430  0.0201
32898ION     NA49032   3.480  15.866  14.931  0.3257 -0.1564 -0.0049
32899ION     NA49033   9.628  14.155   5.149  0.0871  0.2338 -0.3303
32900ION     NA49034   6.321   6.095   3.187 -0.2643  0.0355 -0.1874
32901ION     NA49035   0.981   6.604   5.544  0.0394  0.2029  0.0587
32902ION     NA49036  11.870   2.322  10.214  0.0328  0.1308 -0.0157
32903ION     NA49037  14.784  14.918   9.374  0.3725  0.1388  0.0743
32904ION     NA49038   2.156   9.553   5.442 -0.2553  0.3863 -0.0095
32905ION     NA49039   2.962   0.969   4.699  0.1867 -0.3597  0.2599
32906ION     NA49040   6.365  10.689   2.435  0.1918 -0.1001  0.1304
32907ION     NA49041  19.190  13.514  13.141 -0.0286  0.1133 -0.2121
32908ION     NA49042   2.981   2.380   9.231  0.0683  0.0784  0.0514
32909ION     NA49043   0.569  12.305   9.541 -0.1079  0.0945  0.1381
32910ION     NA49044  13.552   3.911   9.424  0.0236 -0.0599 -0.1056
32911ION     NA49045   0.708   0.858   1.694  0.3583  0.1564 -0.3439
32912ION     NA49046   3.896  11.167   9.794 -0.1400  0.0522 -0.1133
32913ION     NA49047   4.212  11.626   3.218  0.0469 -0.0846 -0.0901
32914ION     NA49048   3.047   3.391   9.354  0.1066 -0.4107  0.3267
32915ION     NA49049   5.539   3.438   5.348  0.0542 -0.1846  0.0569
32916ION     NA49050   1.199  18.482  10.587 -0.0324  0.2170  0.6221
32917ION     NA49051   9.822  14.862   9.411  0.0464 -0.1703  0.1047
32918ION     NA49052  17.549  14.685  11.701  0.0485 -0.0867 -0.1043
32919ION     NA49053   4.112  10.040  14.567 -0.1533  0.0661 -0.1453
32920ION     NA49054   6.476   7.200   5.529 -0.4169 -0.2271  0.1932
32921ION     NA49055  19.248   8.293   9.522 -0.3245  0.1010  0.1489
32922ION     NA49056   4.104   8.190   1.278 -0.1017 -0.2520 -0.0215
32923ION     NA49057  12.245  13.361   9.361 -0.0723 -0.0542 -0.5425
32924ION     NA49058   2.608  15.140   9.709 -0.0494 -0.1373 -0.5723
32925ION     NA49059   9.654   0.839   4.412  0.4198 -0.0160 -0.1893
32926ION     NA49060   0.028  13.220   9.602 -0.3312  0.0124 -0.0584
32927ION     NA49061  13.975  10.705   5.321  0.3344 -0.0201  0.1187
32928ION     NA49062   3.970  14.281   5.646 -0.2166  0.0069  0.1298
32929ION     NA49063   6.654   5.962   1.978 -0.1594  0.0774  0.1877
32930ION     NA49064   7.310  16.349  11.228  0.1154 -0.3396 -0.0128
32931ION     NA49065  13.161   2.258   9.973  0.0540 -0.1475  0.2844
32932ION     NA49066  18.348  14.388  10.141  0.2622 -0.1888 -0.1280
32933ION     NA49067   1.643  10.187   9.743  0.3032  0.0501  0.0842
32934ION     NA49068  14.899   1.872  11.232 -0.0227 -0.3318  0.2404
32935ION     NA49069  16.548  18.903   8.856 -0.0703  0.0401 -0.2552
32936ION     NA49070   5.643  17.675   9.494  0.3001 -0.1512  0.0789
32937ION     NA49071  13.105  11.619   9.541  0.1709 -0.0557  0.0730
32938ION     NA49072  10.812   8.617   5.164  0.1063 -0.1017  0.0110
32939ION     NA49073  10.073   8.455   9.949  0.1608 -0.0025 -0.0617
32940ION     NA49074  16.040   4.765  12.130  0.0175  0.1192 -0.2775
32941ION     NA49075   3.575  18.462   9.276 -0.1693  0.1265  0.0602
32942ION     NA49076   0.727   7.069  14.913 -0.3927 -0.0263  0.1028
32943ION     NA49077  15.010   4.723   9.687  0.2681 -0.0962  0.0570
32944ION     NA49078  12.199  10.276   9.491 -0.2074  0.0285 -0.2297
32945ION     NA49079  13.420   6.324   9.730 -0.0509  0.0656 -0.2423
32946ION     NA49080   0.424   5.364   9.523 -0.0562 -0.1376  0.1743
32947ION     NA49081   9.050  14.237   9.515  0.0890  0.0955  0.3826
32948ION     NA49082   5.317  14.826  10.745 -0.1550 -0.0329  0.0697
32949ION     NA49083   9.905  16.333   9.656  0.2529  0.2435 -0.2257
32950ION     NA49084   4.597   3.029   5.299  0.1158  0.0084  0.2349
32951ION     NA49085   0.500  18.627   9.372  0.1697 -0.1816 -0.2011
32952ION     NA49086   6.511   0.569  11.985 -0.0984 -0.1132  0.0208
32953ION     NA49087  13.378  17.017   9.616  0.3523 -0.0128  0.1582
32954ION     NA49088  13.161   7.021   5.257  0.3240 -0.2133  0.0081
32955ION     NA49089   1.812   4.980  11.145 -0.3876 -0.1673 -0.3040
32956ION     NA49090  11.732  18.396   9.928  0.2496  0.1903  0.2293
32957ION     NA49091  17.034  12.679   9.736  0.0104  0.2557  0.2703
32958ION     NA49092  17.552  17.889   9.218 -0.2393 -0.1759 -0.1894
32959ION     NA49093   6.384  15.617   5.561 -0.0548  0.1101  0.1215
32960ION     NA49094   8.841  10.884   9.662 -0.0568 -0.1340 -0.1470
32961ION     NA49095   7.066   0.962  14.237 -0.4280  0.2340 -0.2713
32962ION     NA49096   6.432  16.637  14.909  0.0495 -0.0664 -0.0036
32963ION     NA49097  16.936  16.140  11.480 -0.0377  0.0400  0.1193
32964ION     NA49098  14.455  10.071   1.244 -0.1052  0.4110  0.0821
32965ION     NA49099   0.583  10.055   2.495  0.0265  0.1119  0.2499
32966ION     NA49100   0.632   7.406   9.337  0.2327 -0.2180  0.0014
32967ION     NA49101   7.120   2.679  10.374  0.1307 -0.2139 -0.2282
32968ION     NA49102   5.758  18.851   5.165  0.0259 -0.1920 -0.2138
32969ION     NA49103   8.429   5.815   9.689  0.1816 -0.0804 -0.0518
32970ION     NA49104   1.622   1.115   9.301 -0.1544  0.0894 -0.1533
32971ION     NA49105   3.248  13.347   5.516  0.2651  0.2025  0.1026
32972ION     NA49106   3.193  13.025   9.696  0.1390 -0.2216 -0.3167
32973ION     NA49107  18.593  16.119   9.551  0.2886  0.1641 -0.0672
32974ION     NA49108  10.459   6.841   9.926 -0.2097  0.2388  0.2471
32975ION     NA49109   0.999  19.138   4.737  0.0021 -0.1405 -0.0678
32976ION     NA49110  10.730  16.220   9.680 -0.0555 -0.2333  0.4912
32977ION     NA49111  12.475  16.736   4.874 -0.1221  0.0721 -0.2398
32978ION     NA49112  10.248   0.923   3.105 -0.3546 -0.1686 -0.0073
32979ION     NA49113   7.440   4.339   5.616 -0.3388  0.1554  0.0391
32980ION     NA49114  13.892   1.882   3.946 -0.1794 -0.3709  0.0753
32981ION     NA49115   5.760  10.615   9.503 -0.1417  0.2615 -0.3832
32982ION     NA49116   7.671  12.390   1.767  0.1070  0.1759  0.0537
32983ION     NA49117  12.124   7.106   1.400 -0.3466 -0.0916 -0.2813
32984ION     NA49118   6.986  15.782  14.543  0.2002  0.1797 -0.0136
32985ION     NA49119  13.387  10.985  13.720  0.0200 -0.2652  0.1271
32986ION     NA49120   1.052   6.178   0.280 -0.2280  0.4345 -0.3190
32987ION     NA49121  14.079   9.019  13.268  0.1117  0.0548 -0.0724
32988ION     NA49122  16.024  11.687   9.570 -0.1685 -0.0673 -0.0876
32989ION     NA49123   5.536   4.706   9.456 -0.2468 -0.0966  0.1623
32990ION     NA49124   4.739  17.756   9.566 -0.0194 -0.1069 -0.0124
32991ION     NA49125  16.584  11.963   5.276  0.1798 -0.1185  0.0500
32992ION     NA49126  17.081   9.105   9.349  0.1596 -0.2887 -0.0667
32993ION     NA49127   4.035  16.478   1.608 -0.0697  0.3763 -0.1629
32994ION     NA49128   8.747  15.387   9.556 -0.2257  0.0033  0.1660
32995ION     NA49129  12.416   0.379  10.165 -0.2404 -0.2167  0.2537
32996ION     NA49130   4.837  13.790   0.491 -0.2486  0.1307 -0.1311
32997ION     NA49131  14.659   3.119   9.578  0.0043 -0.1518 -0.1045
32998ION     NA49132  12.760   4.027   0.079  0.4227 -0.0896 -0.4799
32999ION     NA49133  11.653   6.702   9.753 -0.1240  0.0476 -0.0779
33000ION     NA49134  13.120  13.161   9.660 -0.0832  0.2599  0.4060
33001ION     NA49135   4.625   4.193   9.221  0.3028  0.0468 -0.2685
33002ION     NA49136   3.335   5.095   9.146 -0.0450  0.1732 -0.0039
33003ION     NA49137  12.264  12.659   9.272  0.1838  0.1126 -0.3303
33004ION     NA49138   3.115  11.095   5.339 -0.1343  0.2108 -0.0322
33005ION     NA49139  15.247   6.055   9.407 -0.0542  0.1745  0.0910
33006ION     NA49140   6.645   5.023  11.766  0.3573  0.2950  0.2125
33007ION     NA49141  19.244  10.257   9.592 -0.0531 -0.1357 -0.1821
33008ION     NA49142  17.107   9.887  14.921 -0.2532  0.0118 -0.0034
33009ION     NA49143   3.493   1.003   9.445 -0.0694  0.0426  0.2709
33010ION     NA49144  19.158  11.374   9.955  0.0734  0.1768 -0.1758
33011ION     NA49145  12.900  18.968   5.177  0.0081  0.2853 -0.1421
33012ION     NA49146   7.381   7.172   5.773 -0.2957 -0.0221 -0.0055
33013ION     NA49147  16.595  11.241   9.582 -0.0332  0.1251 -0.3082
33014ION     NA49148   9.613   8.545   1.025  0.1104  0.1354 -0.5753
33015ION     NA49149  13.420   4.786   1.323 -0.0703  0.0102  0.0037
33016ION     NA49150   6.588  16.618   9.338  0.0583 -0.0003  0.0881
33017ION     NA49151   4.223  17.060   9.757 -0.0151 -0.0585 -0.2412
33018ION     NA49152   4.070  11.967   5.286  0.0794 -0.1240 -0.2734
33019ION     NA49153  18.922   6.931  11.613  0.4470 -0.2001 -0.0133
33020ION     NA49154   2.575  16.169   2.111 -0.3185  0.0700  0.1913
33021ION     NA49155  16.268   6.573   5.222  0.0828 -0.0507  0.3979
33022ION     NA49156  18.679   9.121   9.507 -0.2313 -0.2687 -0.0390
33023ION     NA49157  13.995  13.365  11.710  0.0433 -0.0112 -0.1287
33024ION     NA49158   9.490   2.287  10.168 -0.5002 -0.1526  0.0148
33025ION     NA49159  13.273   0.614  10.055  0.0259 -0.1476 -0.0188
33026ION     NA49160  16.714   9.915   9.482 -0.0671 -0.3554 -0.1113
33027ION     NA49161   5.146  12.058  10.134  0.1477 -0.0846  0.2185
33028ION     NA49162  15.929  15.787   2.533  0.2304  0.0705 -0.1866
33029ION     NA49163   5.631  19.302   9.367 -0.0882  0.0989  0.3628
33030ION     NA49164   1.254   2.371  11.160 -0.0235  0.2494  0.2232
33031ION     NA49165   0.871   1.698   9.368  0.1578 -0.0268  0.0410
33032ION     NA49166   7.435   2.581   5.387  0.1990  0.2200 -0.1603
33033ION     NA49167   7.751  16.476  14.665  0.0099 -0.0501  0.1094
33034ION     NA49168   4.042  15.502   9.677  0.1944 -0.0154  0.0366
33035ION     NA49169  18.366  15.309   9.885  0.3503  0.2502 -0.1393
33036ION     NA49170  14.612   9.289   3.468  0.3260 -0.2053  0.1419
33037ION     NA49171  18.438  14.141   5.396 -0.0149  0.2172  0.2399
33038ION     NA49172  18.559  10.049   0.844 -0.1591  0.0025  0.0237
33039ION     NA49173  16.102   3.409   0.297 -0.1355 -0.0672  0.2734
33040ION     NA49174   3.421   7.623   9.566  0.0775  0.0143 -0.0449
33041ION     NA49175   7.976  13.429   9.958 -0.0016 -0.2666 -0.2025
33042ION     NA49176   7.134   6.295   3.851  0.0745  0.0449  0.2043
33043ION     NA49177   6.228  16.992   9.569  0.0823 -0.1501 -0.0440
33044ION     NA49178   3.494  19.309   9.392 -0.3474  0.2939 -0.1250
33045ION     NA49179   4.540  12.184  14.997  0.2185 -0.0338 -0.0566
33046ION     NA49180  17.635   1.793  10.375 -0.2865  0.0827  0.1590
33047ION     NA49181  11.749   5.934  10.296  0.1137 -0.0903  0.0026
33048ION     NA49182   7.243   4.284   9.925 -0.1650  0.1606  0.2473
33049ION     NA49183  12.037   7.482   9.499 -0.2728 -0.1022  0.2029
33050ION     NA49184   5.334   7.637   9.451  0.0257  0.1691  0.2978
33051ION     NA49185   2.232  17.537   3.435  0.2777  0.0330  0.0054
33052ION     NA49186   2.489   1.086   9.474 -0.1963  0.0978  0.3797
33053ION     NA49187   9.072   4.265   5.178  0.1491 -0.0637  0.1967
33054ION     NA49188  17.473   8.729   9.559  0.3939 -0.1643  0.1634
33055ION     NA49189  10.346   0.114   6.222 -0.1424  0.2141  0.1212
33056ION     NA49190  11.349   5.712  14.855 -0.0881 -0.2415 -0.2445
33057ION     NA49191  10.193   6.348  14.834  0.0796  0.0706 -0.2135
33058ION     NA49192   6.589   1.007   9.974  0.1818 -0.0415 -0.0613
33059ION     NA49193   7.343   6.064   9.672  0.1248  0.1014 -0.0748
33060ION     NA49194  11.506  13.328  12.975  0.1372 -0.2324 -0.4176
33061ION     NA49195  13.411   3.953   5.364 -0.1098 -0.1574 -0.0130
33062ION     NA49196   4.013  12.468   9.856  0.1951 -0.3502 -0.0747
33063ION     NA49197  11.547   9.257   4.952 -0.5656  0.1386 -0.0929
33064ION     NA49198   9.539   8.059   4.720  0.0222  0.4730 -0.2378
33065ION     NA49199   4.127  13.841  10.336  0.2031 -0.0858 -0.1345
33066ION     NA49200   8.874  16.396   9.579  0.1111 -0.0657 -0.1151
33067ION     NA49201  10.754   9.882  12.488  0.2334 -0.1600  0.1574
33068ION     NA49202   3.501   6.584   9.241  0.3976 -0.0342 -0.1320
33069ION     NA49203  17.287  10.427   5.414  0.2288 -0.3406  0.1101
33070ION     NA49204  15.122   1.918   9.432  0.4512  0.1649 -0.0877
33071ION     NA49205  13.604  10.365   9.607  0.1566 -0.0109  0.0285
33072ION     NA49206   3.752   9.384   9.734 -0.0845 -0.4596 -0.1705
33073ION     NA49207   4.682   6.401   2.721 -0.1556 -0.1519  0.2148
33074ION     NA49208   2.231  17.401  10.085 -0.2986 -0.1508 -0.2750
33075ION     NA49209   9.083  12.571   9.722 -0.0668 -0.1191  0.3742
33076ION     NA49210   2.241   6.034  11.267 -0.0864  0.2459  0.0487
33077ION     NA49211   6.759   3.555   9.954 -0.0057 -0.0920  0.1691
33078ION     NA49212  16.425   2.761   9.512 -0.1587  0.0831 -0.1155
33079ION     NA49213  12.763   5.159   2.453 -0.1437  0.4565 -0.2834
33080ION     NA49214  13.651   6.448   1.930  0.1707  0.0816  0.0560
33081ION     NA49215   1.367   2.821   9.666 -0.0877  0.2328 -0.2792
33082ION     NA49216  16.706   0.530   8.720  0.0365 -0.0736 -0.0370
33083ION     NA49217  11.727   2.308   1.944 -0.0619  0.1096 -0.4176
33084ION     NA49218   0.725  14.148   9.534 -0.1033 -0.1337 -0.0173
33085ION     NA49219  18.511  10.947   9.585  0.0263 -0.0036 -0.2222
33086ION     NA49220  10.088   6.065  10.431 -0.0829 -0.1434 -0.0915
33087ION     NA49221   1.314  12.930  12.654  0.2146 -0.0760 -0.2146
33088ION     NA49222  18.531  15.547   5.006 -0.0021  0.2578 -0.0384
33089ION     NA49223   6.631  15.381   0.298 -0.0894 -0.3095 -0.1762
33090ION     NA49224  16.993   7.692   5.062  0.0457  0.0015 -0.2263
33091ION     NA49225   7.589  15.019   9.745  0.1233  0.2575  0.0901
33092ION     NA49226  16.533  18.079  13.166  0.2708  0.2003  0.1581
33093ION     NA49227  12.527  16.649   9.441  0.1719  0.0956 -0.1269
33094ION     NA49228  15.227   6.874   9.251  0.1690  0.0909 -0.4015
33095ION     NA49229  14.093  17.608   9.452  0.0706  0.2093 -0.1078
33096ION     NA49230  19.028  12.748  10.772 -0.0902 -0.1152 -0.0038
33097ION     NA49231   0.483   9.532   9.807  0.0175  0.1917 -0.0332
33098ION     NA49232  13.003   2.975  14.809  0.1154 -0.1428 -0.2889
33099ION     NA49233   7.309   6.967   9.830 -0.1588 -0.1748  0.1430
33100ION     NA49234   4.353   2.867   9.443  0.5005  0.0095 -0.1701
33101ION     NA49235  12.709   6.588  11.594 -0.0206 -0.0349 -0.1464
33102ION     NA49236  15.017   0.740   9.365  0.3106 -0.0586 -0.4554
33103ION     NA49237   4.339  12.495   2.263 -0.1522 -0.4001 -0.0547
33104ION     NA49238  15.065   1.716   4.438  0.1496  0.2845  0.1228
33105ION     NA49239   6.775  12.352   9.920 -0.1192 -0.1262  0.0461
33106ION     NA49240   6.464  19.230   9.642 -0.0541 -0.1921  0.2327
33107ION     NA49241   1.809   3.902  12.877  0.2453  0.0765 -0.1280
33108ION     NA49242  15.924  10.687   9.463 -0.1293  0.2167  0.1409
33109ION     NA49243   6.737  15.284   9.739  0.1376 -0.0047 -0.3338
33110ION     NA49244   6.031  18.500   9.554  0.0942 -0.1398  0.0042
33111ION     NA49245   4.851  12.699  10.053  0.0308  0.0038  0.2107
33112ION     NA49246   3.700   3.721  13.773 -0.0193  0.0764  0.1250
33113ION     NA49247  12.378   6.378   9.910  0.0304 -0.1227 -0.1061
33114ION     NA49248   0.103   6.645   9.503 -0.1971 -0.0817  0.2179
33115ION     NA49249  11.813  11.687   5.135 -0.0291 -0.0003 -0.0488
33116ION     NA49250  18.515   3.993   9.408  0.1205  0.2108  0.3743
33117ION     NA49251  18.737   6.355  12.938  0.0647 -0.1083 -0.2991
33118ION     NA49252   8.125  10.226   9.569 -0.0295  0.2625  0.0036
33119ION     NA49253   4.087   1.835   3.279  0.1105  0.1231 -0.2202
33120ION     NA49254  19.256   6.899  10.172  0.0354 -0.2794  0.2445
33121ION     NA49255   1.300   3.470   3.406 -0.1449 -0.0116  0.0241
33122ION     NA49256  13.077   1.199  10.032  0.2159 -0.0011 -0.1387
33123ION     NA49257  10.030  18.351   5.633  0.0824 -0.2689  0.1004
33124ION     NA49258  11.439  17.790   1.470 -0.2550 -0.1188 -0.1237
33125ION     NA49259   3.743  12.024   9.687  0.1234  0.0592 -0.1471
33126ION     NA49260   7.702   9.463   9.490  0.1108 -0.1526  0.0315
33127ION     NA49261  10.981   7.518  13.055 -0.2259  0.0726  0.0854
33128ION     NA49262   5.052   4.740   4.140 -0.3568  0.1494  0.1477
33129ION     NA49263   2.415  19.097  12.206 -0.0356 -0.0683  0.0205
33130ION     NA49264   6.712   0.387  14.100 -0.2192  0.3129 -0.2214
33131ION     NA49265  16.631  13.969   9.447 -0.4645 -0.1772 -0.1719
33132ION     NA49266   1.172  12.140   5.682 -0.3339 -0.3405 -0.3623
33133ION     NA49267   4.398   1.055  10.288  0.1261  0.2855 -0.2300
33134ION     NA49268  13.199   6.490  10.679 -0.0424  0.0316 -0.3153
33135ION     NA49269  11.895  15.345   5.226  0.0527 -0.0529 -0.0338
33136ION     NA49270  11.136   6.002   5.301  0.0092  0.0648  0.1382
33137ION     NA49271   1.698   4.751   9.390  0.0077  0.0670 -0.2560
33138ION     NA49272  12.596  11.162   5.233  0.0410 -0.1211 -0.1582
33139ION     NA49273  15.291   6.001   1.064  0.0900 -0.1171  0.0701
33140ION     NA49274   1.882  12.433   5.699 -0.0238 -0.2448 -0.2185
33141ION     NA49275   1.914   9.446   9.582  0.0870 -0.2865  0.1006
33142ION     NA49276   6.603  16.214   9.641  0.0745  0.3287  0.3157
33143ION     NA49277  12.666   1.252   2.583  0.2472 -0.0971 -0.0309
33144ION     NA49278  11.764  17.414  10.454 -0.1327 -0.2638  0.0192
33145ION     NA49279   3.538   9.421   1.821  0.0658 -0.0361  0.2882
33146ION     NA49280  10.119   2.952   1.264  0.2719  0.0991  0.0074
33147ION     NA49281   9.324   4.124   1.705  0.4339  0.2245  0.0149
33148ION     NA49282   4.927   0.498   9.429 -0.0639 -0.1806 -0.0182
33149ION     NA49283  18.851   2.226   9.008  0.1860 -0.1496 -0.0174
33150ION     NA49284  11.519   8.347   9.555 -0.1303 -0.1413  0.3873
33151ION     NA49285   8.436  12.618  10.034 -0.1336 -0.3071  0.1488
33152ION     NA49286   4.961  10.909   3.416 -0.0766 -0.2600 -0.2071
33153ION     NA49287  15.748   9.700   9.363 -0.2336  0.0622  0.1543
33154ION     NA49288  14.248   4.473   9.448  0.0254 -0.1173 -0.0721
33155ION     NA49289   4.498  12.115   5.646  0.0376 -0.2089 -0.3995
33156ION     NA49290  11.936  10.809   9.596  0.1978 -0.1190  0.0048
33157ION     NA49291  10.637  15.227   5.468 -0.3103 -0.1342  0.0061
33158ION     NA49292   5.233   6.580   9.385 -0.0488  0.0140 -0.1926
33159ION     NA49293   9.092  11.127   0.050  0.1594 -0.0134 -0.1428
33160ION     NA49294  17.687   1.728   9.441 -0.0022 -0.2952 -0.1919
33161ION     NA49295   7.124  16.570   5.536 -0.2286  0.0210 -0.0331
33162ION     NA49296  14.729   6.955   9.284 -0.1749  0.0273 -0.0920
33163ION     NA49297   1.729  13.686   9.808 -0.0649  0.2826  0.3243
33164ION     NA49298   0.585   0.551   0.444  0.1139 -0.0493  0.0052
33165ION     NA49299   6.519   5.590   9.834 -0.1265 -0.1256  0.3315
33166ION     NA49300   1.241   3.850   2.508 -0.1030  0.2273  0.2929
33167ION     NA49301  13.420   1.476  10.281  0.3227 -0.0028 -0.4324
33168ION     NA49302  12.534  14.062   4.173 -0.3265 -0.0654 -0.0510
33169ION     NA49303   3.679   3.258   1.810  0.1735  0.0699  0.0008
33170ION     NA49304  18.912  18.854   9.491 -0.1202 -0.0979  0.0981
33171ION     NA49305  17.846  13.178   9.550  0.4745 -0.0876 -0.1205
33172ION     NA49306  16.795   8.691   1.273  0.1899  0.0729 -0.4678
33173ION     NA49307  16.439   9.419  12.897  0.1047  0.1265 -0.0177
33174ION     NA49308  15.812  17.393   9.264  0.0899 -0.0707  0.2263
33175ION     NA49309   1.015  15.492   9.202 -0.1023 -0.0126 -0.0858
33176ION     NA49310   4.238   7.509  13.316  0.2797  0.3351 -0.0245
33177ION     NA49311   8.120  10.652   0.665  0.0386  0.1947  0.2009
33178ION     NA49312   4.162   0.456   5.072  0.1864  0.0403  0.0307
33179ION     NA49313   2.146   1.865   9.327 -0.1048  0.0999 -0.3976
33180ION     NA49314   6.673  10.492  11.785  0.1493  0.0028  0.1644
33181ION     NA49315  14.577  10.461   9.562  0.2401 -0.1371  0.0741
33182ION     NA49316   2.392   9.824   9.503  0.1813  0.1159 -0.5981
33183ION     NA49317   0.930   6.309   3.091 -0.2107 -0.4951 -0.3119
33184ION     NA49318   3.077  11.172  10.855  0.4059  0.3484 -0.1725
33185ION     NA49319   5.712  11.971   2.365 -0.1406 -0.1414  0.1839
33186ION     NA49320  17.606   4.204   4.877  0.1241 -0.0678 -0.0232
33187ION     NA49321   4.595  18.244   0.014 -0.2849 -0.2115  0.0542
33188ION     NA49322  10.976  18.406   4.914  0.1451 -0.3130  0.1269
33189ION     NA49323  10.122   7.617  10.005  0.0609  0.0502  0.1278
33190ION     NA49324  13.696  17.904   5.244 -0.0059 -0.2894 -0.1869
33191ION     NA49325  12.687  12.065  13.086  0.1965 -0.0997 -0.0797
33192ION     NA49326   4.616   9.450   9.566  0.1653 -0.0646 -0.2309
33193ION     NA49327   1.897  11.510  12.883  0.2391 -0.0649  0.0045
33194ION     NA49328   1.050  16.336   9.306 -0.0634 -0.0344  0.1624
33195ION     NA49329   4.459  15.241   3.167  0.1024 -0.0617 -0.0839
33196ION     NA49330   1.272   0.414  11.981 -0.0687 -0.0315  0.3704
33197ION     NA49331   9.343  12.284  10.196  0.0510 -0.3015 -0.1668
33198ION     NA49332  17.501   2.925   3.590  0.2084  0.1444 -0.0808
33199ION     NA49333  12.479  15.841  14.738 -0.1757 -0.0152 -0.2424
33200ION     NA49334  17.568   9.812   9.795 -0.1068 -0.0467 -0.0476
33201ION     NA49335  13.892  12.838   1.009  0.3647  0.2015  0.4208
33202ION     NA49336  10.716   7.871  12.705 -0.3416 -0.2123 -0.2010
33203ION     NA49337  15.901  11.930  12.323 -0.0400 -0.4186  0.0215
33204ION     NA49338  13.691   5.777   1.495  0.1067  0.0133  0.2353
33205ION     NA49339   7.268   3.382   5.374  0.0369  0.0456 -0.0065
33206ION     NA49340   1.078   6.705   9.385 -0.1322  0.0407  0.1183
33207ION     NA49341  10.391   4.257   5.411  0.2592  0.1395  0.3849
33208ION     NA49342  16.886  16.757   9.684  0.2318  0.0307  0.0809
33209ION     NA49343   1.539  14.711   9.480  0.1627  0.1247  0.4337
33210ION     NA49344   5.512  10.619   2.745  0.3767  0.0122 -0.1676
33211ION     NA49345  10.909   8.527   4.079  0.0442 -0.1030  0.0940
33212ION     NA49346  18.855   4.445  10.767 -0.1916 -0.0615 -0.2427
33213ION     NA49347   1.680  12.712   0.956 -0.1214  0.6279  0.2158
33214ION     NA49348  18.453   8.274   9.657 -0.2672  0.0157 -0.0474
33215ION     NA49349  17.494   4.105   9.339 -0.1148  0.2308  0.0842
33216ION     NA49350   5.452   0.858   5.111  0.0306  0.0542 -0.1768
33217ION     NA49351  18.800  14.611   9.483  0.0787 -0.0194 -0.0569
33218ION     NA49352  13.107   8.453   9.500 -0.1223 -0.1373  0.0252
33219ION     NA49353   9.249   9.150   3.390 -0.0177 -0.4255  0.2550
33220ION     NA49354   5.232   3.025   9.666 -0.0732 -0.1094 -0.4831
33221ION     NA49355  19.019   5.251   1.520  0.2651  0.1448  0.2363
33222ION     NA49356   8.215   5.906  11.161 -0.2501  0.2567 -0.0043
33223ION     NA49357   2.510  13.165  13.613 -0.1500 -0.3093  0.0193
33224ION     NA49358  15.545  14.540   9.331  0.1702  0.0863  0.2378
33225ION     NA49359  10.891  16.802   9.854  0.2876 -0.0305  0.3667
33226ION     NA49360  16.704   0.336   2.250 -0.0258 -0.0680  0.0787
33227ION     NA49361   3.193  13.764  10.289 -0.0477  0.2906 -0.1417
33228ION     NA49362   6.329  15.944   4.186 -0.5082 -0.1422  0.0852
33229ION     NA49363  16.480  14.900  14.325 -0.2005 -0.0690  0.2841
33230ION     NA49364  13.930  16.967   9.536  0.1392  0.0825  0.0410
33231ION     NA49365   1.293   2.460   4.839  0.2917 -0.0101  0.0182
33232ION     NA49366  13.450   2.130   9.590  0.1300 -0.1738 -0.0384
33233ION     NA49367  10.612   3.709  10.931 -0.0444 -0.4235 -0.2026
33234ION     NA49368   6.614  13.818  10.852  0.2155  0.1553 -0.0034
33235ION     NA49369  10.592  14.631  11.960 -0.0790  0.0371  0.0922
33236ION     NA49370   1.811   0.837   4.715  0.4974  0.1854  0.1110
33237ION     NA49371  12.848  10.896   9.601  0.4154 -0.2107 -0.1698
33238ION     NA49372   6.271   9.781  14.906  0.1398  0.0304  0.1615
33239ION     NA49373   1.446   3.313   9.600 -0.1800 -0.0539  0.3631
33240ION     NA49374  18.648   7.182   9.486  0.1316  0.1938 -0.3437
33241ION     NA49375   6.631  14.405  10.073 -0.0199  0.0374  0.1997
33242ION     NA49376   2.284  14.942   3.718 -0.2133  0.1737 -0.0899
33243ION     NA49377   3.047   2.245  12.786 -0.2525  0.1011  0.0933
  19.33889  19.33889  15.01031
