INSANE! Membrane UpperLeaflet>loPI:POPI:DPPI:PYPI:ERGO=80.0:5.0:3.0:2.0:10.0 LowerLeaflet>PSPI:POPI:POPS:YOPS:POPE:YOPE:POPC:YOPC:ERGO=6.0:14.0:21.0:9.0:9.0:21.0:12.0:48.0:60.0
49377
    1loPI    C1    1   9.363  17.506  11.039  0.2094 -0.1918  0.2218
    1loPI    C2    2   9.086  17.641  11.293  0.1158 -0.2296  0.1403
    1loPI    C3    3   9.474  17.685  11.379  0.0869  0.0539  0.1346
    1loPI   PO4    4   9.321  17.503  10.819  0.0455  0.1400 -0.0091
    1loPI   GL1    5   9.172  17.355  10.407  0.0023 -0.2827  0.0009
    1loPI   GL2    6   8.895  17.537  10.402  0.0245 -0.0612  0.1902
    1loPI   C1A    7   9.129  17.291   9.979  0.0026  0.1662 -0.0778
    1loPI   C2A    8   9.162  17.449   9.577  0.1647 -0.1586 -0.0124
    1loPI   C3A    9   9.131  17.448   9.178  0.0587  0.0722  0.0134
    1loPI   C4A   10   9.132  17.506   8.838 -0.2307  0.0459  0.4011
    1loPI   C5A   11   8.892  17.367   8.397 -0.3391  0.0416 -0.1523
    1loPI   C6A   12   8.708  16.988   8.269  0.0280 -0.0973 -0.2826
    1loPI   C1B   13   8.737  17.693   9.921 -0.2221 -0.0023 -0.2215
    1loPI   C2B   14   8.682  17.795   9.551 -0.2829 -0.1808  0.2725
    1loPI   C3B   15   8.718  17.766   9.117 -0.2146 -0.3445 -0.3326
    1loPI   C4B   16   8.785  17.893   8.664  0.2959 -0.3139  0.0903
    2loPI    C1   17  10.411  11.198  11.413  0.0658 -0.0032 -0.0749
    2loPI    C2   18  10.270  11.081  11.768  0.2510 -0.0960 -0.0304
    2loPI    C3   19  10.445  11.439  11.730 -0.1993  0.1213 -0.1378
    2loPI   PO4   20  10.246  11.107  11.232  0.1575  0.0238 -0.0385
    2loPI   GL1   21  10.214  11.052  10.867  0.3014 -0.2083 -0.0873
    2loPI   GL2   22  10.188  11.378  10.737  0.0114 -0.0500 -0.0898
    2loPI   C1A   23  10.290  11.069  10.358  0.0517  0.0991  0.2739
    2loPI   C2A   24  10.299  11.091   9.902  0.2292 -0.0309 -0.2058
    2loPI   C3A   25  10.347  11.180   9.491 -0.1726  0.0366 -0.1411
    2loPI   C4A   26  10.234  11.165   9.041 -0.1905  0.1070 -0.2701
    2loPI   C5A   27  10.107  10.990   8.673 -0.0351 -0.2176 -0.1317
    2loPI   C6A   28   9.733  10.886   8.398 -0.2505  0.0124 -0.1380
    2loPI   C1B   29  10.371  11.642  10.473 -0.1486  0.1882 -0.0659
    2loPI   C2B   30  10.376  11.694  10.022  0.0156 -0.0090 -0.1245
    2loPI   C3B   31  10.431  11.650   9.628  0.2118  0.2500 -0.2219
    2loPI   C4B   32  10.397  11.684   9.106 -0.1221 -0.0349 -0.2535
    3loPI    C1   33  13.832   4.117  11.067 -0.0144 -0.0387  0.1811
    3loPI    C2   34  13.447   4.225  11.058  0.0540  0.1915 -0.1603
    3loPI    C3   35  13.662   4.281  11.390 -0.1490  0.2639 -0.0389
    3loPI   PO4   36  13.981   4.234  10.885 -0.2086  0.1391 -0.1658
    3loPI   GL1   37  14.104   4.224  10.464  0.0535  0.1580 -0.0525
    3loPI   GL2   38  14.269   4.524  10.311  0.1146 -0.2313 -0.1740
    3loPI   C1A   39  14.085   4.142  10.071  0.0315  0.2607 -0.1446
    3loPI   C2A   40  14.360   4.110   9.714  0.0496  0.1282  0.3989
    3loPI   C3A   41  14.383   4.105   9.341 -0.0214  0.2742  0.0008
    3loPI   C4A   42  14.304   4.176   8.929  0.0096 -0.1863 -0.0421
    3loPI   C5A   43  14.251   4.253   8.500  0.0818 -0.2882  0.0382
    3loPI   C6A   44  14.085   4.140   8.081  0.0946  0.3050 -0.2159
    3loPI   C1B   45  14.356   4.631   9.893  0.0155  0.2798 -0.0918
    3loPI   C2B   46  14.350   4.599   9.397  0.1523 -0.1481  0.1616
    3loPI   C3B   47  14.367   4.723   8.915  0.0980 -0.1567  0.0483
    3loPI   C4B   48  14.312   4.771   8.526 -0.0719  0.0189 -0.1880
    4loPI    C1   49   1.236  12.569  11.154  0.0265  0.2143  0.0756
    4loPI    C2   50   1.235  12.240  11.381  0.0781  0.2043  0.0614
    4loPI    C3   51   0.905  12.465  11.353  0.0269  0.1257  0.0303
    4loPI   PO4   52   1.234  12.514  10.965 -0.0139  0.3510  0.0659
    4loPI   GL1   53   1.271  12.328  10.599  0.3303  0.4790  0.0690
    4loPI   GL2   54   1.019  12.414  10.425 -0.0373 -0.1135 -0.0491
    4loPI   C1A   55   1.504  12.169  10.221 -0.1342  0.0957  0.0110
    4loPI   C2A   56   1.437  12.176   9.825  0.0424  0.2215 -0.3391
    4loPI   C3A   57   1.491  12.178   9.427 -0.1092 -0.1063 -0.3975
    4loPI   C4A   58   1.543  12.266   9.088 -0.0178 -0.1019  0.0506
    4loPI   C5A   59   1.580  12.341   8.656 -0.0189 -0.0961  0.0614
    4loPI   C6A   60   1.420  12.281   8.317 -0.1236  0.4384 -0.0552
    4loPI   C1B   61   1.033  12.518   9.942 -0.1766 -0.1638  0.3336
    4loPI   C2B   62   1.062  12.477   9.488  0.0014 -0.1610  0.1738
    4loPI   C3B   63   1.043  12.534   9.049  0.0853 -0.2873  0.0762
    4loPI   C4B   64   1.042  12.452   8.652  0.2511 -0.0912  0.1216
    5loPI    C1   65   8.531  17.504  11.316 -0.3050  0.1273 -0.1638
    5loPI    C2   66   8.695  17.806  11.521  0.0951 -0.0656 -0.1899
    5loPI    C3   67   8.502  17.513  11.715 -0.2606  0.1815 -0.1616
    5loPI   PO4   68   8.291  17.624  11.128 -0.2245 -0.2534  0.0638
    5loPI   GL1   69   8.082  17.658  10.801  0.0547  0.1246  0.2939
    5loPI   GL2   70   8.213  17.327  10.655  0.1067  0.1088 -0.0510
    5loPI   C1A   71   7.923  17.760  10.373  0.2272 -0.3431  0.0874
    5loPI   C2A   72   7.819  17.967   9.901  0.1707 -0.0239 -0.1069
    5loPI   C3A   73   7.807  17.911   9.393  0.3123 -0.3783 -0.1183
    5loPI   C4A   74   7.880  17.975   8.947  0.4490  0.0571  0.4844
    5loPI   C5A   75   7.860  17.917   8.561 -0.1410  0.2402 -0.0699
    5loPI   C6A   76   7.549  17.806   8.401  0.4181 -0.2268 -0.0218
    5loPI   C1B   77   8.350  17.440  10.188  0.3299 -0.2668 -0.3262
    5loPI   C2B   78   8.287  17.578   9.730  0.1496 -0.1391 -0.1772
    5loPI   C3B   79   8.291  17.605   9.271  0.0454 -0.1113 -0.1072
    5loPI   C4B   80   8.185  17.595   8.862  0.0089  0.1536  0.0784
    6loPI    C1   81  14.741  16.757  11.662 -0.1809  0.2564 -0.0156
    6loPI    C2   82  14.966  16.988  11.898  0.2258  0.0374 -0.1793
    6loPI    C3   83  14.941  16.596  11.969 -0.1434  0.0645 -0.1396
    6loPI   PO4   84  14.676  16.945  11.439  0.0378 -0.0567  0.2312
    6loPI   GL1   85  14.535  16.898  10.976 -0.0589 -0.2246 -0.0233
    6loPI   GL2   86  14.884  16.835  10.898 -0.0473 -0.0075 -0.1666
    6loPI   C1A   87  14.458  16.913  10.607 -0.1792 -0.1418  0.0474
    6loPI   C2A   88  14.450  17.045  10.202  0.0989  0.1911  0.0573
    6loPI   C3A   89  14.419  17.095   9.673 -0.0176  0.2126 -0.1911
    6loPI   C4A   90  14.417  16.976   9.282  0.1811 -0.0939 -0.0964
    6loPI   C5A   91  14.499  17.007   8.882  0.0595 -0.2234  0.0468
    6loPI   C6A   92  14.312  17.217   8.504 -0.2431  0.0866 -0.1859
    6loPI   C1B   93  14.867  16.760  10.418 -0.0101 -0.2639 -0.0274
    6loPI   C2B   94  14.768  16.761   9.947  0.0459 -0.2650 -0.1374
    6loPI   C3B   95  14.777  16.733   9.512  0.1130 -0.1131  0.1269
    6loPI   C4B   96  14.823  16.712   9.105  0.2278  0.3688  0.0045
    7loPI    C1   97   2.017   0.182  11.726 -0.1341  0.2764  0.1057
    7loPI    C2   98   2.397   0.257  11.825  0.0329 -0.1464 -0.1869
    7loPI    C3   99   2.257  -0.117  11.840 -0.3258 -0.0179 -0.2424
    7loPI   PO4  100   1.942   0.266  11.502 -0.0698  0.1485 -0.0323
    7loPI   GL1  101   1.871   0.558  11.189  0.1610  0.1288  0.1032
    7loPI   GL2  102   1.935   0.233  11.038  0.0132 -0.1319 -0.1720
    7loPI   C1A  103   1.969   0.644  10.781  0.1853 -0.0135 -0.2573
    7loPI   C2A  104   1.909   0.539  10.383  0.1107 -0.0699  0.1429
    7loPI   C3A  105   1.922   0.475  10.025  0.1219  0.4055  0.2040
    7loPI   C4A  106   2.053   0.393   9.544 -0.0936  0.0099  0.1332
    7loPI   C5A  107   1.966   0.356   9.133 -0.0155  0.1471 -0.0578
    7loPI   C6A  108   1.767  -0.049   8.973  0.2004  0.1690 -0.2658
    7loPI   C1B  109   1.876   0.084  10.671  0.4605  0.0215 -0.0748
    7loPI   C2B  110   1.794   0.002  10.280  0.2433  0.1134  0.2024
    7loPI   C3B  111   1.910  -0.037   9.873 -0.1364 -0.3946 -0.1832
    7loPI   C4B  112   1.928  -0.070   9.447 -0.0178 -0.1071 -0.1327
    8loPI    C1  113   9.980  14.122  11.127 -0.1109 -0.0111  0.0871
    8loPI    C2  114   9.837  14.292  11.460  0.1350  0.2384  0.0681
    8loPI    C3  115  10.096  13.989  11.486 -0.1552 -0.0117  0.1014
    8loPI   PO4  116   9.900  14.214  10.882  0.1013 -0.1078 -0.0227
    8loPI   GL1  117   9.997  14.113  10.501 -0.1509 -0.1964 -0.0699
    8loPI   GL2  118   9.799  13.830  10.397  0.0061  0.2678  0.1403
    8loPI   C1A  119  10.018  14.365  10.200  0.0621 -0.0599  0.0597
    8loPI   C2A  120   9.983  14.297   9.755  0.0183  0.3498  0.0268
    8loPI   C3A  121   9.968  14.296   9.350 -0.0581  0.2032 -0.1168
    8loPI   C4A  122   9.887  14.402   8.979 -0.2167 -0.2100  0.1836
    8loPI   C5A  123   9.719  14.379   8.481  0.3107  0.1313  0.0175
    8loPI   C6A  124   9.461  14.168   8.243  0.0340 -0.0592 -0.3386
    8loPI   C1B  125   9.946  13.872   9.980 -0.1431  0.1121  0.0422
    8loPI   C2B  126   9.835  13.810   9.558 -0.2097 -0.2198 -0.1393
    8loPI   C3B  127   9.849  13.900   9.135  0.0554  0.1902  0.2873
    8loPI   C4B  128   9.956  13.994   8.720 -0.0650  0.1137  0.1924
    9loPI    C1  129  13.609  14.901  11.454  0.1062  0.0121  0.0267
    9loPI    C2  130  13.397  14.908  11.794 -0.1123  0.0465 -0.1081
    9loPI    C3  131  13.797  14.914  11.807 -0.1183 -0.0049  0.1491
    9loPI   PO4  132  13.508  15.057  11.277 -0.0338 -0.1166  0.0706
    9loPI   GL1  133  13.418  15.167  10.848  0.1393 -0.0187 -0.2587
    9loPI   GL2  134  13.787  15.039  10.783 -0.0219 -0.1488 -0.1262
    9loPI   C1A  135  13.364  15.007  10.480  0.0505 -0.0960 -0.0196
    9loPI   C2A  136  13.248  15.034  10.063  0.0096 -0.3148 -0.2521
    9loPI   C3A  137  13.303  15.038   9.689 -0.2524 -0.0167 -0.1065
    9loPI   C4A  138  13.281  15.071   9.210  0.2845  0.4041  0.0350
    9loPI   C5A  139  13.141  15.129   8.698 -0.0355  0.1959  0.0844
    9loPI   C6A  140  12.806  15.484   8.551 -0.0169  0.0310  0.0904
    9loPI   C1B  141  13.751  15.240  10.438 -0.0803 -0.0368  0.0471
    9loPI   C2B  142  13.726  15.195  10.040 -0.0396  0.0415  0.1289
    9loPI   C3B  143  13.679  15.325   9.631 -0.0234  0.3378  0.0080
    9loPI   C4B  144  13.709  15.232   9.212 -0.1024 -0.0027  0.0591
   10loPI    C1  145  15.823   6.559  10.761  0.1333  0.0439  0.1889
   10loPI    C2  146  15.691   6.202  10.884  0.0004  0.0861  0.1698
   10loPI    C3  147  15.650   6.523  11.120  0.0822  0.0967  0.1698
   10loPI   PO4  148  15.766   6.581  10.513 -0.4116 -0.1335  0.0184
   10loPI   GL1  149  15.861   6.890  10.265  0.0436  0.1394  0.2231
   10loPI   GL2  150  16.018   7.032   9.969 -0.0173  0.1200 -0.4148
   10loPI   C1A  151  15.595   6.689   9.918  0.2695 -0.2185 -0.1496
   10loPI   C2A  152  15.568   6.637   9.494 -0.4473 -0.1745  0.0493
   10loPI   C3A  153  15.670   6.626   9.019 -0.0869 -0.1769  0.1198
   10loPI   C4A  154  15.627   6.698   8.642 -0.0839 -0.2109  0.0775
   10loPI   C5A  155  15.564   6.858   8.251 -0.0582 -0.0006 -0.1463
   10loPI   C6A  156  15.787   6.940   7.933 -0.2441 -0.2179  0.3126
   10loPI   C1B  157  16.143   6.862   9.559 -0.1509 -0.0170 -0.0987
   10loPI   C2B  158  16.161   6.942   9.116 -0.1901 -0.2399 -0.0343
   10loPI   C3B  159  16.096   7.023   8.756  0.1602  0.0476 -0.2127
   10loPI   C4B  160  15.993   7.122   8.369 -0.3126  0.0671 -0.0002
   11loPI    C1  161  15.127   0.150  11.603 -0.0379 -0.2842  0.0945
   11loPI    C2  162  14.785   0.246  11.785  0.1251  0.0762  0.2198
   11loPI    C3  163  15.128   0.414  11.903  0.3435 -0.2603  0.0771
   11loPI   PO4  164  14.980  -0.033  11.355  0.0264 -0.0273 -0.0600
   11loPI   GL1  165  14.669  -0.312  11.135  0.2945 -0.3508  0.4682
   11loPI   GL2  166  14.972  -0.346  10.992  0.0947 -0.1809 -0.1177
   11loPI   C1A  167  14.552  -0.197  10.750  0.0780  0.1358  0.1019
   11loPI   C2A  168  14.461  -0.141  10.338  0.0292  0.2206  0.1632
   11loPI   C3A  169  14.437  -0.118   9.926 -0.0521 -0.0983  0.1753
   11loPI   C4A  170  14.600  -0.097   9.521  0.0090  0.0042  0.0848
   11loPI   C5A  171  14.635  -0.003   9.070 -0.0282 -0.5525 -0.2541
   11loPI   C6A  172  14.467   0.403   8.886  0.3480 -0.0266 -0.0864
   11loPI   C1B  173  14.942  -0.447  10.534 -0.3216  0.2235  0.1920
   11loPI   C2B  174  14.989  -0.453  10.117  0.2977  0.0420  0.2035
   11loPI   C3B  175  15.034  -0.356   9.668 -0.0484 -0.0202  0.1876
   11loPI   C4B  176  14.852  -0.470   9.267  0.0297 -0.0224 -0.2186
   12loPI    C1  177   1.225  14.415  11.401  0.0263  0.0272 -0.1679
   12loPI    C2  178   1.503  14.371  11.685 -0.0802  0.0457 -0.0598
   12loPI    C3  179   1.219  14.093  11.638 -0.1815  0.1410 -0.0148
   12loPI   PO4  180   1.306  14.510  11.162  0.2075  0.1320  0.1006
   12loPI   GL1  181   1.454  14.519  10.735 -0.0580 -0.3816  0.0605
   12loPI   GL2  182   1.721  14.671  10.791 -0.2410 -0.1095 -0.1687
   12loPI   C1A  183   1.314  14.536  10.225  0.0432  0.2105  0.3489
   12loPI   C2A  184   1.393  14.535   9.852  0.1353  0.1913  0.0259
   12loPI   C3A  185   1.405  14.592   9.456  0.1349 -0.2554  0.0469
   12loPI   C4A  186   1.374  14.550   9.026  0.1631  0.0715  0.2998
   12loPI   C5A  187   1.355  14.807   8.766  0.0615 -0.2283 -0.0398
   12loPI   C6A  188   1.506  15.256   8.667 -0.0758  0.1472 -0.0327
   12loPI   C1B  189   1.758  14.764  10.340  0.1652  0.0606  0.1454
   12loPI   C2B  190   1.852  14.743   9.870 -0.1619  0.0576 -0.0986
   12loPI   C3B  191   1.907  14.737   9.431  0.1098  0.0890  0.2700
   12loPI   C4B  192   1.805  14.825   9.059 -0.1291 -0.1102 -0.1308
   13loPI    C1  193   7.624   6.354  10.714  0.1005  0.0800  0.0356
   13loPI    C2  194   7.862   6.445  11.022  0.0870 -0.0551  0.0867
   13loPI    C3  195   7.535   6.222  11.081  0.0046  0.0414 -0.0011
   13loPI   PO4  196   7.779   6.346  10.534  0.4215 -0.2130 -0.2340
   13loPI   GL1  197   7.973   6.168  10.267 -0.0596  0.0329 -0.1400
   13loPI   GL2  198   8.136   5.929  10.205  0.0162  0.0200  0.1632
   13loPI   C1A  199   7.751   6.327   9.833 -0.0558  0.0305  0.0761
   13loPI   C2A  200   7.755   6.283   9.447  0.0685  0.0285  0.0474
   13loPI   C3A  201   7.584   6.362   9.033  0.0440  0.1213 -0.1375
   13loPI   C4A  202   7.685   6.300   8.685  0.0667 -0.2649 -0.0903
   13loPI   C5A  203   7.732   6.218   8.251 -0.1898  0.3825 -0.1966
   13loPI   C6A  204   7.609   6.052   7.923 -0.0471  0.1734  0.3054
   13loPI   C1B  205   8.040   5.929   9.769  0.2692  0.0764  0.0216
   13loPI   C2B  206   8.096   5.909   9.349  0.0671  0.6084 -0.0519
   13loPI   C3B  207   8.037   6.066   8.985 -0.1033  0.1014  0.2064
   13loPI   C4B  208   8.077   5.969   8.534 -0.0567 -0.0837  0.0576
   14loPI    C1  209  16.076   8.011  10.677 -0.3114  0.1539  0.2286
   14loPI    C2  210  16.301   8.328  10.582 -0.0592 -0.1223 -0.1219
   14loPI    C3  211  16.356   8.141  10.931 -0.0424  0.0714 -0.0197
   14loPI   PO4  212  16.059   7.840  10.439 -0.1785 -0.1921  0.1615
   14loPI   GL1  213  16.153   8.040  10.130  0.3069  0.4064  0.2693
   14loPI   GL2  214  15.849   8.268  10.243 -0.2528  0.0553 -0.1969
   14loPI   C1A  215  16.174   7.898   9.684  0.0491  0.1039  0.0493
   14loPI   C2A  216  16.210   7.917   9.317  0.2482  0.0370 -0.0805
   14loPI   C3A  217  16.280   7.902   8.904  0.0276  0.0168 -0.0278
   14loPI   C4A  218  16.240   7.958   8.415 -0.2032  0.0593  0.2351
   14loPI   C5A  219  16.465   7.981   8.077  0.3452 -0.2667 -0.1819
   14loPI   C6A  220  16.718   8.041   7.741  0.1018  0.0545  0.3879
   14loPI   C1B  221  15.776   8.285   9.876  0.1527 -0.4128 -0.0418
   14loPI   C2B  222  15.813   8.225   9.477  0.1319  0.2631 -0.1566
   14loPI   C3B  223  15.850   8.236   9.048  0.1743  0.1529  0.0251
   14loPI   C4B  224  15.867   8.165   8.604 -0.0650 -0.0288 -0.2079
   15loPI    C1  225   9.643  14.690  11.313 -0.1549 -0.0829 -0.2407
   15loPI    C2  226   9.245  14.651  11.313 -0.1629 -0.0231  0.0574
   15loPI    C3  227   9.423  14.896  11.575  0.0740 -0.0843 -0.0431
   15loPI   PO4  228   9.672  14.684  11.031 -0.1292 -0.0752 -0.0019
   15loPI   GL1  229   9.607  14.514  10.578  0.0984 -0.1193  0.0812
   15loPI   GL2  230   9.482  14.171  10.508 -0.1841 -0.0150 -0.2943
   15loPI   C1A  231   9.560  14.672  10.261 -0.2555 -0.0626  0.0137
   15loPI   C2A  232   9.617  14.625   9.865 -0.1152 -0.1409 -0.0229
   15loPI   C3A  233   9.602  14.623   9.465 -0.2183 -0.0826  0.0691
   15loPI   C4A  234   9.568  14.732   9.038 -0.0909 -0.0576 -0.1845
   15loPI   C5A  235   9.698  14.839   8.710 -0.0887 -0.2811 -0.0183
   15loPI   C6A  236   9.784  14.928   8.314  0.0530 -0.2487 -0.1520
   15loPI   C1B  237   9.535  14.117  10.093 -0.4735  0.0037 -0.2624
   15loPI   C2B  238   9.518  14.164   9.639 -0.0338 -0.1646 -0.0887
   15loPI   C3B  239   9.413  14.142   9.251  0.2324 -0.1654  0.1821
   15loPI   C4B  240   9.461  14.132   8.827  0.0535 -0.1283  0.0351
   16loPI    C1  241   9.173  15.584  11.140 -0.1674  0.3432 -0.2293
   16loPI    C2  242   8.779  15.528  11.182 -0.0765 -0.1313  0.0711
   16loPI    C3  243   8.967  15.805  11.402 -0.1687 -0.2290  0.2757
   16loPI   PO4  244   9.167  15.590  10.876  0.0119  0.2618  0.3243
   16loPI   GL1  245   9.081  15.571  10.369 -0.0064 -0.0785 -0.1196
   16loPI   GL2  246   8.781  15.731  10.241  0.1692 -0.0424 -0.2459
   16loPI   C1A  247   9.297  15.534   9.994 -0.0860  0.0318 -0.0006
   16loPI   C2A  248   9.349  15.420   9.643 -0.1373 -0.1297  0.3076
   16loPI   C3A  249   9.288  15.510   9.200  0.1549 -0.3967 -0.1350
   16loPI   C4A  250   9.237  15.490   8.777  0.0024 -0.1093 -0.1563
   16loPI   C5A  251   9.194  15.699   8.457  0.0262 -0.0803  0.0275
   16loPI   C6A  252   9.245  16.205   8.349  0.1125 -0.0440  0.3345
   16loPI   C1B  253   8.850  15.851   9.839  0.0227  0.1200  0.0550
   16loPI   C2B  254   8.890  15.904   9.440 -0.2628  0.2714 -0.1984
   16loPI   C3B  255   8.953  15.837   9.083  0.1522  0.0370  0.0219
   16loPI   C4B  256   8.851  16.076   8.691  0.1626  0.0639 -0.0793
   17loPI    C1  257  15.299   8.427  10.753  0.1382  0.0953  0.0272
   17loPI    C2  258  15.345   8.762  10.968 -0.1196 -0.0726  0.3535
   17loPI    C3  259  15.461   8.410  11.118 -0.1621 -0.1740  0.1528
   17loPI   PO4  260  15.406   8.511  10.487  0.2061 -0.1511  0.2538
   17loPI   GL1  261  15.333   8.761  10.102  0.0466 -0.0465 -0.1047
   17loPI   GL2  262  15.167   9.009  10.093 -0.3645 -0.2310  0.0165
   17loPI   C1A  263  15.389   8.581   9.767 -0.0836  0.2028  0.1638
   17loPI   C2A  264  15.426   8.513   9.294 -0.1623 -0.0258 -0.1365
   17loPI   C3A  265  15.528   8.568   8.826  0.0488 -0.1231 -0.0659
   17loPI   C4A  266  15.480   8.662   8.401  0.1999 -0.2748 -0.0645
   17loPI   C5A  267  15.283   8.904   8.093 -0.1054 -0.0863 -0.1724
   17loPI   C6A  268  15.071   8.974   7.765  0.1396 -0.2633  0.0043
   17loPI   C1B  269  14.967   8.921   9.768  0.1608  0.1703 -0.2028
   17loPI   C2B  270  14.976   8.956   9.387  0.2501 -0.0671  0.1449
   17loPI   C3B  271  15.171   8.867   8.985 -0.1423  0.3541 -0.2701
   17loPI   C4B  272  15.134   9.006   8.581  0.0851  0.2325  0.2169
   18loPI    C1  273   3.752  12.723  11.363  0.1086 -0.0174  0.0300
   18loPI    C2  274   3.400  12.828  11.521  0.1084 -0.1287  0.1039
   18loPI    C3  275   3.683  12.666  11.753  0.1669 -0.1437  0.0222
   18loPI   PO4  276   3.675  12.759  11.090  0.1474 -0.1599  0.1345
   18loPI   GL1  277   3.615  12.827  10.648  0.2074  0.1400  0.3037
   18loPI   GL2  278   3.586  12.511  10.642  0.0101  0.1799  0.1630
   18loPI   C1A  279   3.878  13.010  10.284  0.1607  0.0649 -0.1869
   18loPI   C2A  280   3.851  13.135   9.817 -0.0026 -0.0773 -0.1816
   18loPI   C3A  281   3.789  13.008   9.499 -0.1299  0.0067  0.2340
   18loPI   C4A  282   3.825  13.023   9.043 -0.2140 -0.0390  0.2558
   18loPI   C5A  283   3.821  13.128   8.623 -0.0813 -0.0749  0.1153
   18loPI   C6A  284   3.642  13.382   8.246 -0.0844  0.1365  0.1836
   18loPI   C1B  285   3.733  12.452  10.227 -0.1669 -0.2377 -0.0948
   18loPI   C2B  286   3.728  12.547   9.769 -0.0976 -0.1191  0.0740
   18loPI   C3B  287   3.829  12.580   9.270 -0.1140 -0.0802  0.2319
   18loPI   C4B  288   3.844  12.524   8.840  0.1347  0.0569  0.0470
   19loPI    C1  289  10.534   5.521  10.991  0.1421 -0.0750  0.1727
   19loPI    C2  290  10.635   5.636  11.361 -0.1884 -0.0419  0.2561
   19loPI    C3  291  10.343   5.368  11.308 -0.2440  0.0642  0.0128
   19loPI   PO4  292  10.658   5.734  10.837 -0.1360 -0.0984 -0.2296
   19loPI   GL1  293  10.709   5.942  10.309 -0.0001  0.0797 -0.1460
   19loPI   GL2  294  10.490   6.171  10.464  0.1152 -0.0571 -0.1834
   19loPI   C1A  295  10.811   5.954   9.989 -0.0129 -0.0173 -0.3350
   19loPI   C2A  296  10.966   5.951   9.636  0.2600  0.2280 -0.0077
   19loPI   C3A  297  10.959   5.995   9.233  0.2556  0.1521 -0.1619
   19loPI   C4A  298  10.806   6.018   8.886 -0.5044 -0.1395  0.0137
   19loPI   C5A  299  10.713   6.245   8.577 -0.1321  0.0842  0.3188
   19loPI   C6A  300  10.884   6.312   8.117 -0.0303 -0.3193  0.0037
   19loPI   C1B  301  10.407   6.359  10.007 -0.0793  0.1012  0.0555
   19loPI   C2B  302  10.617   6.273   9.634 -0.2740 -0.1870  0.1843
   19loPI   C3B  303  10.544   6.352   9.215  0.1357 -0.1678  0.0295
   19loPI   C4B  304  10.269   6.351   8.831 -0.2783  0.0561 -0.0065
   20loPI    C1  305   6.034   2.744  11.400  0.0278 -0.2031 -0.0953
   20loPI    C2  306   5.810   2.484  11.606 -0.1471  0.1786  0.2121
   20loPI    C3  307   6.188   2.554  11.717 -0.0818  0.0191  0.0949
   20loPI   PO4  308   5.920   2.665  11.080 -0.0292  0.0631 -0.2243
   20loPI   GL1  309   5.990   2.811  10.691  0.1406  0.0624  0.2263
   20loPI   GL2  310   6.117   3.027  10.650 -0.1641 -0.0669 -0.0045
   20loPI   C1A  311   5.640   2.739  10.385  0.0908 -0.1976 -0.1671
   20loPI   C2A  312   5.626   2.732   9.934  0.0695 -0.0675 -0.0599
   20loPI   C3A  313   5.613   2.721   9.529  0.2343 -0.0472  0.0321
   20loPI   C4A  314   5.529   2.713   9.041  0.1241  0.2173  0.1533
   20loPI   C5A  315   5.720   2.843   8.683 -0.1875  0.1698 -0.0335
   20loPI   C6A  316   5.609   3.176   8.488 -0.0337  0.1742 -0.2873
   20loPI   C1B  317   6.058   2.982  10.215 -0.1939  0.0556  0.3301
   20loPI   C2B  318   6.016   2.914   9.703 -0.0441 -0.1291 -0.1346
   20loPI   C3B  319   6.010   2.927   9.278  0.1106 -0.0092  0.0144
   20loPI   C4B  320   6.244   2.889   8.795  0.0174 -0.1301 -0.0055
   21loPI    C1  321  11.244   7.678  11.086  0.0015 -0.0480 -0.0374
   21loPI    C2  322  11.198   8.016  10.877 -0.3445 -0.0416  0.0431
   21loPI    C3  323  11.352   8.029  11.246  0.0202 -0.0226 -0.1053
   21loPI   PO4  324  11.406   7.435  10.890  0.0431 -0.0115  0.1616
   21loPI   GL1  325  11.464   7.456  10.578 -0.1736 -0.0855 -0.3346
   21loPI   GL2  326  11.689   7.448  10.409 -0.1442 -0.1438  0.1771
   21loPI   C1A  327  11.193   7.417  10.123 -0.4101  0.2316  0.1702
   21loPI   C2A  328  11.194   7.492   9.713  0.1646  0.1686 -0.1092
   21loPI   C3A  329  11.203   7.576   9.327  0.0198 -0.1119  0.2403
   21loPI   C4A  330  11.093   7.592   8.835  0.1028 -0.1263 -0.3994
   21loPI   C5A  331  11.251   7.641   8.461  0.0348  0.3378 -0.3371
   21loPI   C6A  332  11.219   7.368   8.075  0.1998  0.1412  0.0490
   21loPI   C1B  333  11.670   7.646  10.009  0.4163  0.0242  0.1021
   21loPI   C2B  334  11.595   7.710   9.582  0.1521  0.1694  0.1630
   21loPI   C3B  335  11.695   7.650   9.120 -0.4899  0.0412 -0.2552
   21loPI   C4B  336  11.686   7.763   8.668 -0.2025  0.0706 -0.0949
   22loPI    C1  337  17.156   7.926  10.707  0.0790 -0.1587  0.0244
   22loPI    C2  338  17.496   8.024  10.895  0.0704  0.1545 -0.1172
   22loPI    C3  339  17.143   8.108  11.063  0.0620  0.0915 -0.1025
   22loPI   PO4  340  17.046   7.871  10.488  0.0074 -0.0643 -0.0776
   22loPI   GL1  341  17.128   7.777  10.042 -0.2045 -0.0626  0.1523
   22loPI   GL2  342  17.195   8.155  10.007  0.0165  0.1653 -0.2101
   22loPI   C1A  343  17.253   7.680   9.642  0.0450 -0.2860 -0.1900
   22loPI   C2A  344  17.283   7.814   9.209  0.2722  0.4539  0.1403
   22loPI   C3A  345  17.223   7.784   8.827  0.2392  0.0968  0.0465
   22loPI   C4A  346  17.214   7.775   8.378  0.2671  0.0857 -0.1977
   22loPI   C5A  347  17.007   7.786   8.083  0.1157 -0.3669  0.3182
   22loPI   C6A  348  17.045   7.692   7.628  0.0658  0.3116  0.1067
   22loPI   C1B  349  17.281   8.343   9.653 -0.0504 -0.0466 -0.0895
   22loPI   C2B  350  17.316   8.405   9.166  0.1478 -0.1332  0.0831
   22loPI   C3B  351  17.199   8.239   8.686  0.0724 -0.2662 -0.1820
   22loPI   C4B  352  17.070   8.244   8.283  0.0042  0.0454  0.2128
   23loPI    C1  353  13.166  14.701  11.408  0.1039  0.2531  0.1029
   23loPI    C2  354  13.383  14.372  11.478  0.1050  0.1859 -0.2012
   23loPI    C3  355  13.110  14.492  11.745  0.2834  0.0854  0.0309
   23loPI   PO4  356  13.110  14.671  11.097 -0.2472  0.4797  0.2408
   23loPI   GL1  357  13.229  14.548  10.643 -0.1248 -0.1703 -0.1629
   23loPI   GL2  358  12.969  14.740  10.634  0.1453  0.0109 -0.0380
   23loPI   C1A  359  13.266  14.526  10.333 -0.0729 -0.0111 -0.0785
   23loPI   C2A  360  13.203  14.508   9.888 -0.1471  0.3099 -0.2014
   23loPI   C3A  361  13.245  14.584   9.438 -0.0227  0.1508  0.2321
   23loPI   C4A  362  13.152  14.503   9.075  0.1543 -0.1419  0.2433
   23loPI   C5A  363  13.250  14.312   8.757  0.2273  0.0950  0.0672
   23loPI   C6A  364  13.300  14.429   8.344 -0.3108 -0.1300 -0.0874
   23loPI   C1B  365  12.829  14.873  10.330 -0.3851  0.1047 -0.0621
   23loPI   C2B  366  12.804  14.854   9.831  0.1465 -0.2564 -0.2319
   23loPI   C3B  367  12.839  14.836   9.452  0.2052 -0.1368 -0.1502
   23loPI   C4B  368  12.807  14.901   9.055 -0.2843  0.0153  0.0611
   24loPI    C1  369  14.960   3.604  11.125  0.2241 -0.1225  0.0134
   24loPI    C2  370  14.863   3.791  11.465 -0.2045 -0.1346 -0.0966
   24loPI    C3  371  15.073   3.451  11.477 -0.1774 -0.1109  0.1527
   24loPI   PO4  372  14.753   3.644  10.929  0.1686  0.0692  0.1139
   24loPI   GL1  373  14.752   3.756  10.606  0.4161 -0.1892  0.0749
   24loPI   GL2  374  14.532   4.029  10.389 -0.3062 -0.0614 -0.0866
   24loPI   C1A  375  15.094   3.584  10.329  0.0998  0.0274 -0.0177
   24loPI   C2A  376  15.044   3.546   9.971  0.1665 -0.0577  0.0804
   24loPI   C3A  377  15.021   3.447   9.667  0.0515 -0.0053  0.1447
   24loPI   C4A  378  15.123   3.504   9.250  0.1432  0.2299 -0.3906
   24loPI   C5A  379  15.072   3.574   8.903 -0.1258  0.0482 -0.0012
   24loPI   C6A  380  15.214   3.736   8.449 -0.3014 -0.0374  0.1882
   24loPI   C1B  381  14.691   3.903   9.991  0.0235  0.2536  0.2283
   24loPI   C2B  382  14.770   3.840   9.494 -0.0411  0.0031  0.0904
   24loPI   C3B  383  14.788   3.919   9.047 -0.1944 -0.2866 -0.1999
   24loPI   C4B  384  14.707   3.936   8.575 -0.0147 -0.0412 -0.0951
   25loPI    C1  385  10.315   7.963  11.416 -0.1892 -0.1304 -0.0903
   25loPI    C2  386  10.490   7.615  11.507  0.0892 -0.0176 -0.1821
   25loPI    C3  387  10.179   7.746  11.722  0.1729 -0.1795  0.0400
   25loPI   PO4  388  10.355   7.947  11.105  0.4300  0.2543 -0.1137
   25loPI   GL1  389  10.270   7.923  10.660 -0.0011 -0.0966 -0.2045
   25loPI   GL2  390   9.977   8.048  10.532 -0.1937 -0.0231 -0.0566
   25loPI   C1A  391  10.423   8.016  10.263  0.0274  0.0351  0.2862
   25loPI   C2A  392  10.428   8.145   9.815  0.1484  0.0745  0.2990
   25loPI   C3A  393  10.343   8.199   9.443  0.3858 -0.1268  0.0917
   25loPI   C4A  394  10.286   8.227   8.988 -0.1326 -0.0356 -0.1988
   25loPI   C5A  395  10.409   8.243   8.554  0.1808  0.0911 -0.0577
   25loPI   C6A  396  10.709   8.375   8.263 -0.2267 -0.1767  0.0622
   25loPI   C1B  397   9.905   7.911  10.084 -0.3250 -0.0519  0.0871
   25loPI   C2B  398   9.897   7.995   9.635 -0.0917  0.1038 -0.1094
   25loPI   C3B  399   9.763   8.068   9.213  0.1332  0.3630 -0.1085
   25loPI   C4B  400   9.793   8.190   8.801 -0.0235 -0.0958  0.0736
   26loPI    C1  401   3.403   0.809  11.717 -0.0991  0.2636  0.2547
   26loPI    C2  402   3.612   0.471  11.762 -0.0562  0.2314 -0.1514
   26loPI    C3  403   3.652   0.767  12.028  0.0855  0.0115  0.0769
   26loPI   PO4  404   3.382   0.877  11.403  0.1946 -0.2758  0.0894
   26loPI   GL1  405   3.528   0.854  11.084  0.0864 -0.0103  0.0490
   26loPI   GL2  406   3.474   1.128  10.979  0.1011 -0.1587  0.2435
   26loPI   C1A  407   3.775   0.646  10.844  0.1781  0.0509  0.2969
   26loPI   C2A  408   3.827   0.585  10.473  0.1808 -0.1914  0.1565
   26loPI   C3A  409   3.807   0.632   9.953  0.0014  0.0568 -0.2802
   26loPI   C4A  410   3.825   0.701   9.546 -0.1195  0.2205 -0.2197
   26loPI   C5A  411   3.804   0.821   9.116  0.0570  0.0394 -0.3578
   26loPI   C6A  412   3.974   0.773   8.807  0.1197 -0.1804  0.1889
   26loPI   C1B  413   3.433   0.975  10.557 -0.0936  0.0412  0.1052
   26loPI   C2B  414   3.382   0.939  10.144 -0.1932 -0.0820  0.2270
   26loPI   C3B  415   3.382   1.085   9.765 -0.0804  0.2540  0.0987
   26loPI   C4B  416   3.372   1.076   9.370 -0.0080 -0.1981  0.3203
   27loPI    C1  417   4.719  15.769  11.248  0.1082 -0.2397 -0.2176
   27loPI    C2  418   5.078  15.787  11.424  0.0411  0.1186 -0.1102
   27loPI    C3  419   4.804  15.526  11.554  0.1664  0.0349 -0.0126
   27loPI   PO4  420   4.722  15.668  11.044 -0.0170 -0.0908  0.0513
   27loPI   GL1  421   4.864  15.695  10.738 -0.1467 -0.0992 -0.1245
   27loPI   GL2  422   5.199  15.633  10.762  0.1218 -0.2133 -0.0202
   27loPI   C1A  423   4.844  15.763  10.251 -0.1786  0.1634  0.2485
   27loPI   C2A  424   4.762  15.859   9.843 -0.1892  0.0737 -0.1554
   27loPI   C3A  425   4.892  15.918   9.480  0.1348 -0.1664  0.1731
   27loPI   C4A  426   4.839  15.810   9.040  0.0637 -0.0364 -0.0776
   27loPI   C5A  427   5.063  15.762   8.665 -0.0875 -0.0604  0.1255
   27loPI   C6A  428   4.846  15.947   8.227 -0.1321  0.0889  0.2798
   27loPI   C1B  429   5.236  15.434  10.378  0.1905 -0.3761  0.0886
   27loPI   C2B  430   5.160  15.515   9.929 -0.0153  0.1028  0.0845
   27loPI   C3B  431   5.197  15.532   9.601 -0.0190 -0.2084  0.1668
   27loPI   C4B  432   5.216  15.531   9.199 -0.1511  0.1448  0.0633
   28loPI    C1  433   3.354  11.324  11.180  0.0529 -0.1217 -0.0513
   28loPI    C2  434   3.509  10.956  11.189 -0.1622 -0.2114  0.0725
   28loPI    C3  435   3.375  11.124  11.526 -0.1501 -0.0558  0.0006
   28loPI   PO4  436   3.459  11.416  10.914 -0.0321 -0.0815 -0.1392
   28loPI   GL1  437   3.277  11.537  10.575  0.0542  0.6016 -0.2582
   28loPI   GL2  438   3.092  11.735  10.521 -0.2729 -0.1061  0.1519
   28loPI   C1A  439   3.452  11.438  10.159 -0.1073 -0.0256  0.0251
   28loPI   C2A  440   3.539  11.553   9.760 -0.0261 -0.0095  0.0491
   28loPI   C3A  441   3.596  11.614   9.255 -0.2249  0.1653 -0.0311
   28loPI   C4A  442   3.652  11.636   8.777  0.2047  0.2197  0.1907
   28loPI   C5A  443   3.490  11.707   8.466  0.0507  0.1016  0.2256
   28loPI   C6A  444   3.466  12.027   8.271  0.0004  0.1804  0.0770
   28loPI   C1B  445   3.217  11.827  10.046 -0.0817 -0.2220 -0.2486
   28loPI   C2B  446   3.249  11.928   9.612 -0.2642 -0.2400 -0.0071
   28loPI   C3B  447   3.211  11.947   9.205  0.0403  0.0542 -0.0094
   28loPI   C4B  448   3.220  11.951   8.724  0.0623 -0.2533 -0.0919
   29loPI    C1  449  17.202   9.194  10.679 -0.0400  0.0021  0.0337
   29loPI    C2  450  17.560   9.357  10.746 -0.0032 -0.0091 -0.1325
   29loPI    C3  451  17.253   9.445  10.986  0.0893  0.0688 -0.0416
   29loPI   PO4  452  17.183   8.964  10.692  0.2256 -0.2321 -0.0452
   29loPI   GL1  453  17.173   8.796  10.255  0.1646  0.0356  0.0030
   29loPI   GL2  454  17.044   8.669  10.044 -0.1300 -0.0109 -0.0767
   29loPI   C1A  455  17.380   9.025   9.928 -0.0305  0.1695 -0.2360
   29loPI   C2A  456  17.240   8.828   9.569 -0.0892 -0.1123  0.3678
   29loPI   C3A  457  17.400   8.895   9.093  0.3773 -0.1349  0.1007
   29loPI   C4A  458  17.325   8.747   8.750  0.2109  0.0398  0.2356
   29loPI   C5A  459  17.356   8.651   8.338  0.0964 -0.3139 -0.2493
   29loPI   C6A  460  17.521   8.360   8.120 -0.2782 -0.1060 -0.0674
   29loPI   C1B  461  16.837   8.555   9.658 -0.0579  0.0334 -0.2111
   29loPI   C2B  462  16.853   8.652   9.270  0.2824 -0.1829 -0.0501
   29loPI   C3B  463  16.894   8.558   8.917 -0.0813  0.0434  0.1150
   29loPI   C4B  464  16.832   8.601   8.544  0.2385  0.1215 -0.1439
   30loPI    C1  465   6.832   4.533  11.204  0.0626 -0.1785  0.0144
   30loPI    C2  466   6.770   4.191  11.403  0.1800 -0.2204 -0.0202
   30loPI    C3  467   6.696   4.542  11.580 -0.2818 -0.2687 -0.1044
   30loPI   PO4  468   6.946   4.349  10.950  0.1347 -0.2375 -0.0375
   30loPI   GL1  469   6.919   4.047  10.671  0.0353 -0.0069  0.2760
   30loPI   GL2  470   6.964   4.280  10.452  0.2996  0.1508 -0.2558
   30loPI   C1A  471   7.052   3.670  10.331 -0.4459 -0.1164 -0.0647
   30loPI   C2A  472   7.071   3.708   9.835  0.0319  0.1193 -0.0673
   30loPI   C3A  473   7.049   3.741   9.466  0.1219  0.2570  0.0353
   30loPI   C4A  474   7.087   3.846   9.034 -0.1058  0.3677  0.0286
   30loPI   C5A  475   7.172   3.849   8.547  0.1435 -0.0047 -0.0587
   30loPI   C6A  476   7.264   4.265   8.325 -0.1622 -0.1514 -0.0735
   30loPI   C1B  477   7.204   4.236  10.164 -0.1392  0.0735 -0.0210
   30loPI   C2B  478   7.217   4.306   9.747  0.0770 -0.1060 -0.2706
   30loPI   C3B  479   7.180   4.294   9.279  0.2418 -0.1086  0.1982
   30loPI   C4B  480   7.277   4.338   8.872 -0.1826 -0.0127 -0.3963
   31loPI    C1  481   9.844  13.562  11.380  0.0070  0.1230 -0.0056
   31loPI    C2  482  10.156  13.499  11.622 -0.0363  0.2162  0.0750
   31loPI    C3  483   9.784  13.450  11.759 -0.0624  0.3247  0.0444
   31loPI   PO4  484   9.966  13.548  11.115  0.0107 -0.0327 -0.0093
   31loPI   GL1  485  10.102  13.454  10.654 -0.1817  0.0959 -0.0551
   31loPI   GL2  486  10.172  13.092  10.561  0.1347 -0.0602  0.1587
   31loPI   C1A  487  10.288  13.593  10.204  0.0205  0.3253 -0.1107
   31loPI   C2A  488  10.289  13.539   9.832  0.3407  0.0479 -0.1576
   31loPI   C3A  489  10.275  13.489   9.354  0.1148  0.1368 -0.3431
   31loPI   C4A  490  10.268  13.551   8.899  0.1172  0.3565  0.0694
   31loPI   C5A  491  10.148  13.374   8.538  0.1593  0.3489  0.0385
   31loPI   C6A  492   9.941  13.437   8.141  0.0271  0.2109 -0.0310
   31loPI   C1B  493  10.218  13.069  10.086 -0.1750 -0.2412 -0.0453
   31loPI   C2B  494  10.295  12.991   9.649  0.2101 -0.0224 -0.0410
   31loPI   C3B  495  10.112  13.046   9.201  0.2895 -0.0709 -0.0776
   31loPI   C4B  496  10.103  12.905   8.773  0.3358  0.2630  0.1004
   32loPI    C1  497   8.988   1.259  10.999  0.0719 -0.1076  0.2574
   32loPI    C2  498   9.051   1.614  11.172  0.2568  0.0718 -0.1644
   32loPI    C3  499   8.692   1.440  11.199  0.1607  0.2950  0.0343
   32loPI   PO4  500   9.109   1.287  10.788 -0.0082  0.0279 -0.0032
   32loPI   GL1  501   9.000   1.276  10.366  0.1317 -0.1530  0.2979
   32loPI   GL2  502   8.977   1.553  10.375 -0.1497 -0.0474 -0.1329
   32loPI   C1A  503   8.792   1.027  10.128 -0.2711  0.0047  0.2792
   32loPI   C2A  504   8.890   1.100   9.670  0.0640  0.0722  0.0278
   32loPI   C3A  505   8.831   1.074   9.207 -0.1142 -0.1261 -0.0143
   32loPI   C4A  506   8.916   1.170   8.787 -0.0800  0.0841  0.0041
   32loPI   C5A  507   8.840   1.174   8.346  0.2113  0.0574  0.1591
   32loPI   C6A  508   8.372   0.982   8.195  0.1635 -0.1045 -0.1874
   32loPI   C1B  509   9.007   1.623   9.887 -0.3788  0.0247  0.2665
   32loPI   C2B  510   8.890   1.582   9.501  0.0813  0.0339 -0.0417
   32loPI   C3B  511   9.002   1.612   9.105  0.0584 -0.0402 -0.1495
   32loPI   C4B  512   8.940   1.624   8.606  0.1398 -0.0489 -0.1611
   33loPI    C1  513  16.396  15.132  11.481  0.1375 -0.0345 -0.0249
   33loPI    C2  514  16.132  15.120  11.781  0.0804  0.0676 -0.0705
   33loPI    C3  515  16.368  14.805  11.710  0.1034  0.0479  0.0896
   33loPI   PO4  516  16.325  15.143  11.194 -0.1103  0.0165 -0.1978
   33loPI   GL1  517  16.411  15.099  10.840 -0.1291  0.2458  0.0704
   33loPI   GL2  518  16.564  15.376  10.731  0.0294  0.0872 -0.1282
   33loPI   C1A  519  16.351  14.965  10.447 -0.0499 -0.0539 -0.1206
   33loPI   C2A  520  16.375  15.030   9.982 -0.1129 -0.0851 -0.1031
   33loPI   C3A  521  16.420  14.956   9.601  0.0655 -0.0306  0.1104
   33loPI   C4A  522  16.481  14.919   9.212 -0.2134 -0.2764 -0.0410
   33loPI   C5A  523  16.327  15.181   8.958 -0.1011 -0.2994 -0.1076
   33loPI   C6A  524  15.959  15.355   8.942 -0.0839 -0.1640 -0.0230
   33loPI   C1B  525  16.473  15.471  10.247 -0.1343  0.2408 -0.2262
   33loPI   C2B  526  16.489  15.473   9.771 -0.2472 -0.0963  0.2442
   33loPI   C3B  527  16.532  15.450   9.347 -0.1014 -0.1212 -0.1025
   33loPI   C4B  528  16.838  15.426   8.875  0.3045  0.1421  0.1734
   34loPI    C1  529   6.232   1.051  11.395  0.1851 -0.0243 -0.0613
   34loPI    C2  530   5.925   1.293  11.309  0.3085  0.0383 -0.3368
   34loPI    C3  531   6.189   1.397  11.592 -0.0325 -0.1109  0.0466
   34loPI   PO4  532   6.324   1.005  11.159  0.1353 -0.0220  0.0309
   34loPI   GL1  533   6.164   0.924  10.783  0.3806  0.1227 -0.0696
   34loPI   GL2  534   5.998   1.176  10.861 -0.0687 -0.2788  0.0857
   34loPI   C1A  535   6.280   1.118  10.397  0.3158  0.1172 -0.0423
   34loPI   C2A  536   6.245   1.014   9.945 -0.0263 -0.1552 -0.3388
   34loPI   C3A  537   6.144   1.111   9.573  0.0071  0.1890 -0.0043
   34loPI   C4A  538   6.155   1.050   9.139  0.1005 -0.0183 -0.1073
   34loPI   C5A  539   6.218   1.144   8.772  0.1261 -0.1502 -0.0313
   34loPI   C6A  540   6.502   1.021   8.488 -0.0772 -0.2563  0.1858
   34loPI   C1B  541   5.859   1.339  10.415 -0.0824  0.1451  0.2917
   34loPI   C2B  542   5.780   1.430   9.951  0.1273  0.2377 -0.2184
   34loPI   C3B  543   5.737   1.378   9.451  0.0233 -0.2576 -0.2979
   34loPI   C4B  544   5.799   1.421   8.945 -0.2298  0.0806 -0.0941
   35loPI    C1  545   9.880   6.564  11.061 -0.1128  0.0775 -0.0010
   35loPI    C2  546  10.014   6.796  11.358  0.0085 -0.0891  0.0760
   35loPI    C3  547  10.208   6.459  11.264 -0.1833 -0.1760 -0.0144
   35loPI   PO4  548   9.856   6.636  10.854  0.1482  0.1626 -0.0859
   35loPI   GL1  549   9.899   6.653  10.444  0.0569 -0.0700  0.0556
   35loPI   GL2  550  10.006   6.332  10.365 -0.1034  0.0273 -0.1406
   35loPI   C1A  551  10.020   6.721  10.039  0.1272  0.2036 -0.0109
   35loPI   C2A  552  10.111   6.606   9.646  0.3337  0.0921 -0.1126
   35loPI   C3A  553   9.943   6.699   9.163  0.1242  0.0000 -0.1628
   35loPI   C4A  554   9.998   6.750   8.706 -0.0071 -0.2098 -0.0421
   35loPI   C5A  555  10.072   6.859   8.303  0.3205 -0.0922  0.1247
   35loPI   C6A  556  10.465   6.815   8.023  0.1450 -0.0370 -0.0118
   35loPI   C1B  557   9.929   6.228   9.952 -0.0670  0.0607  0.0270
   35loPI   C2B  558   9.944   6.135   9.563  0.0014  0.1015  0.3416
   35loPI   C3B  559   9.921   6.169   9.164  0.2798 -0.3034  0.2556
   35loPI   C4B  560   9.819   6.239   8.677 -0.1517 -0.1052  0.0594
   36loPI    C1  561   1.798   1.598  11.450  0.0692 -0.4026  0.0167
   36loPI    C2  562   1.483   1.547  11.691 -0.0162  0.0914  0.0202
   36loPI    C3  563   1.854   1.519  11.838 -0.0585 -0.1945  0.0792
   36loPI   PO4  564   1.734   1.460  11.231  0.4705  0.4331 -0.3011
   36loPI   GL1  565   1.423   1.447  10.840  0.0363  0.2837  0.2402
   36loPI   GL2  566   1.134   1.165  10.836  0.1632  0.0540 -0.0010
   36loPI   C1A  567   1.581   1.352  10.478 -0.1307  0.1165  0.1047
   36loPI   C2A  568   1.582   1.205  10.021  0.0122 -0.1248 -0.0743
   36loPI   C3A  569   1.627   1.300   9.642  0.3612  0.3354  0.0475
   36loPI   C4A  570   1.652   1.294   9.271 -0.0007 -0.2248 -0.0182
   36loPI   C5A  571   1.594   1.265   8.852 -0.3045  0.2096 -0.2787
   36loPI   C6A  572   1.321   1.045   8.501  0.2547  0.0452  0.1772
   36loPI   C1B  573   1.105   1.077  10.360  0.0606 -0.1138 -0.0034
   36loPI   C2B  574   1.060   1.098   9.852 -0.0003  0.1628  0.2651
   36loPI   C3B  575   1.259   0.998   9.472 -0.1069  0.0999 -0.1668
   36loPI   C4B  576   1.214   1.040   9.063  0.5041  0.0678  0.2051
   37loPI    C1  577  11.987   8.077  10.515 -0.1386 -0.1245 -0.0647
   37loPI    C2  578  12.152   7.959  10.860 -0.0794 -0.1054 -0.0864
   37loPI    C3  579  11.806   7.799  10.738 -0.1197 -0.0847  0.0004
   37loPI   PO4  580  11.953   8.393  10.535 -0.1139  0.1537  0.0514
   37loPI   GL1  581  12.079   8.692  10.212  0.1965 -0.1611  0.1454
   37loPI   GL2  582  12.248   8.404  10.173 -0.1085 -0.0268 -0.0682
   37loPI   C1A  583  11.849   8.805   9.931 -0.0172  0.0129  0.1928
   37loPI   C2A  584  11.751   8.850   9.533 -0.0359 -0.3954  0.3385
   37loPI   C3A  585  11.701   8.813   9.100  0.1376  0.2231 -0.0058
   37loPI   C4A  586  11.822   8.763   8.713 -0.0000 -0.0398 -0.0447
   37loPI   C5A  587  11.738   8.859   8.245 -0.2199 -0.1898  0.2482
   37loPI   C6A  588  11.595   8.828   7.805  0.2985 -0.0940  0.0143
   37loPI   C1B  589  12.110   8.475   9.712  0.0207 -0.0866 -0.1827
   37loPI   C2B  590  12.061   8.529   9.232  0.1192  0.3081  0.1364
   37loPI   C3B  591  12.229   8.375   8.795 -0.3145 -0.1229  0.1535
   37loPI   C4B  592  12.220   8.460   8.332  0.0401 -0.1208  0.3067
   38loPI    C1  593  15.063   2.664  11.285  0.2436  0.1524  0.1547
   38loPI    C2  594  14.887   2.936  11.520 -0.1484  0.0995 -0.0688
   38loPI    C3  595  14.807   2.547  11.569  0.0137  0.0631 -0.0855
   38loPI   PO4  596  15.032   2.695  10.996 -0.0151  0.0835  0.1550
   38loPI   GL1  597  15.074   2.860  10.628  0.0755 -0.1604  0.1990
   38loPI   GL2  598  15.384   2.616  10.485 -0.3287  0.2381  0.0797
   38loPI   C1A  599  14.964   3.039  10.184  0.0711  0.1717  0.2097
   38loPI   C2A  600  14.947   2.980   9.797 -0.2271  0.1192  0.2600
   38loPI   C3A  601  14.895   2.972   9.331 -0.1440  0.0167  0.1255
   38loPI   C4A  602  15.024   3.056   9.040  0.1953 -0.2033  0.0063
   38loPI   C5A  603  14.983   3.206   8.622  0.3348 -0.6481 -0.2104
   38loPI   C6A  604  14.620   3.448   8.373 -0.0905  0.1930 -0.1731
   38loPI   C1B  605  15.336   2.732  10.036  0.0961  0.1644  0.1344
   38loPI   C2B  606  15.331   2.690   9.634  0.1302  0.1723  0.1857
   38loPI   C3B  607  15.470   2.644   9.272  0.2029 -0.1009  0.0791
   38loPI   C4B  608  15.391   2.698   8.853 -0.0059 -0.0198  0.1048
   39loPI    C1  609  10.569   4.169  11.049 -0.0840  0.2052  0.1092
   39loPI    C2  610  10.242   4.089  11.266 -0.1680  0.2093 -0.0147
   39loPI    C3  611  10.601   3.964  11.391 -0.2641 -0.1323 -0.0705
   39loPI   PO4  612  10.427   4.159  10.762  0.1669  0.0867  0.1390
   39loPI   GL1  613  10.446   4.123  10.313 -0.1376  0.0321 -0.1748
   39loPI   GL2  614  10.247   4.364  10.179 -0.0252  0.1349 -0.1126
   39loPI   C1A  615  10.405   4.008   9.876  0.4118  0.2297  0.1284
   39loPI   C2A  616  10.332   3.921   9.448 -0.0092  0.1787  0.0102
   39loPI   C3A  617  10.392   3.907   8.952 -0.1690 -0.3503 -0.0949
   39loPI   C4A  618  10.360   4.005   8.567  0.0561 -0.1996 -0.3138
   39loPI   C5A  619  10.419   4.072   8.045 -0.0343  0.1574  0.0891
   39loPI   C6A  620  10.279   4.321   7.667 -0.1979 -0.0910 -0.1336
   39loPI   C1B  621  10.175   4.391   9.688  0.0450  0.0845 -0.0456
   39loPI   C2B  622  10.119   4.332   9.291  0.0391 -0.0735  0.1274
   39loPI   C3B  623  10.096   4.335   8.890  0.0574  0.0243 -0.0354
   39loPI   C4B  624  10.064   4.391   8.322 -0.0792 -0.3265  0.0566
   40loPI    C1  625   4.778  15.172  11.209 -0.0172 -0.1516  0.0403
   40loPI    C2  626   4.928  15.234  10.844 -0.1749  0.1609  0.0254
   40loPI    C3  627   5.141  15.334  11.167 -0.1268  0.0919  0.0151
   40loPI   PO4  628   4.621  14.945  11.166 -0.0637 -0.2366 -0.2793
   40loPI   GL1  629   4.602  14.841  10.695  0.2598  0.0378 -0.2293
   40loPI   GL2  630   4.924  14.571  10.637  0.3564 -0.1288  0.1141
   40loPI   C1A  631   4.552  14.807  10.319 -0.0682  0.3815  0.0336
   40loPI   C2A  632   4.552  14.797   9.927  0.0150 -0.1834 -0.3548
   40loPI   C3A  633   4.540  14.778   9.488  0.0174  0.2761  0.0124
   40loPI   C4A  634   4.713  14.891   9.104  0.1191  0.1999 -0.2814
   40loPI   C5A  635   4.560  14.870   8.722 -0.0109 -0.1148 -0.0139
   40loPI   C6A  636   4.595  14.481   8.490 -0.2937 -0.1764 -0.1123
   40loPI   C1B  637   4.948  14.483  10.155  0.2159 -0.2117  0.1262
   40loPI   C2B  638   4.980  14.474   9.686  0.0769  0.0960 -0.3410
   40loPI   C3B  639   4.928  14.387   9.285 -0.0638 -0.1657 -0.1338
   40loPI   C4B  640   4.984  14.530   8.895 -0.0538 -0.1092 -0.1190
   41loPI    C1  641  12.386   2.547  10.941  0.0281 -0.0954  0.0438
   41loPI    C2  642  12.036   2.420  11.085 -0.0490 -0.1424 -0.1815
   41loPI    C3  643  12.139   2.804  11.124 -0.1566 -0.1136 -0.1760
   41loPI   PO4  644  12.438   2.460  10.703 -0.0945  0.1290  0.2554
   41loPI   GL1  645  12.498   2.241  10.363  0.0332  0.1127 -0.2019
   41loPI   GL2  646  12.827   2.414  10.393 -0.0862  0.0974  0.2773
   41loPI   C1A  647  12.590   2.121   9.982  0.0946 -0.2749 -0.3030
   41loPI   C2A  648  12.683   2.006   9.530  0.0334  0.0164 -0.4023
   41loPI   C3A  649  12.553   2.061   9.036  0.2803 -0.0873 -0.0060
   41loPI   C4A  650  12.435   2.302   8.690  0.3396  0.0641 -0.1074
   41loPI   C5A  651  12.647   2.437   8.368  0.0646 -0.1004  0.1333
   41loPI   C6A  652  12.529   2.577   7.979 -0.0695  0.1990  0.0571
   41loPI   C1B  653  13.021   2.260  10.153  0.1401  0.0626  0.1380
   41loPI   C2B  654  13.115   2.201   9.700  0.0762  0.1403 -0.0876
   41loPI   C3B  655  13.081   2.191   9.257  0.1286 -0.2165  0.1457
   41loPI   C4B  656  12.959   2.332   8.834  0.1831 -0.0446 -0.3734
   42loPI    C1  657  17.274  15.011  11.439  0.0132 -0.0952 -0.0539
   42loPI    C2  658  16.920  14.996  11.623 -0.0212  0.0635 -0.1057
   42loPI    C3  659  17.240  14.825  11.791 -0.0472  0.2245  0.1129
   42loPI   PO4  660  17.242  14.954  11.183 -0.2107 -0.4429  0.0140
   42loPI   GL1  661  17.296  15.041  10.827 -0.1460  0.0351 -0.0881
   42loPI   GL2  662  17.172  15.295  10.775 -0.1451 -0.1841  0.1621
   42loPI   C1A  663  17.384  14.814  10.470 -0.1442 -0.4183  0.2254
   42loPI   C2A  664  17.251  14.848  10.134  0.2373 -0.1012  0.0994
   42loPI   C3A  665  17.250  14.827   9.679 -0.3379  0.1265  0.0572
   42loPI   C4A  666  17.321  14.706   9.290  0.3760 -0.0711 -0.0221
   42loPI   C5A  667  17.348  14.735   8.919  0.3382 -0.0611 -0.1853
   42loPI   C6A  668  17.592  14.821   8.531 -0.0258 -0.2586  0.0073
   42loPI   C1B  669  17.405  15.327  10.401 -0.2997  0.0237  0.2903
   42loPI   C2B  670  17.300  15.325   9.983 -0.0511 -0.1212 -0.2821
   42loPI   C3B  671  17.373  15.371   9.578 -0.2359  0.0798  0.2341
   42loPI   C4B  672  17.332  15.226   9.125  0.5522 -0.2487  0.0719
   43loPI    C1  673   7.928  11.019  11.316  0.1273  0.1257 -0.0687
   43loPI    C2  674   7.529  11.026  11.348  0.1215 -0.0667 -0.0895
   43loPI    C3  675   7.756  11.143  11.656  0.0494  0.0550 -0.0820
   43loPI   PO4  676   7.916  11.109  11.046  0.6527  0.0156  0.3498
   43loPI   GL1  677   7.990  11.048  10.545  0.0930  0.1693  0.1781
   43loPI   GL2  678   7.702  10.980  10.533 -0.0326 -0.2162  0.2385
   43loPI   C1A  679   8.082  11.190  10.204 -0.0437  0.1973  0.0909
   43loPI   C2A  680   8.012  11.303   9.789 -0.0560  0.2129 -0.3449
   43loPI   C3A  681   8.034  11.275   9.363  0.2934 -0.0909 -0.1217
   43loPI   C4A  682   8.013  11.251   8.923 -0.1581  0.0052  0.0013
   43loPI   C5A  683   7.941  11.466   8.505 -0.0326 -0.2289 -0.1478
   43loPI   C6A  684   7.463  11.572   8.452  0.1338 -0.1562 -0.2202
   43loPI   C1B  685   7.659  11.055  10.093  0.2562  0.0419  0.1789
   43loPI   C2B  686   7.578  11.047   9.622 -0.1986 -0.0439 -0.0080
   43loPI   C3B  687   7.541  11.018   9.203 -0.0835 -0.0104  0.1199
   43loPI   C4B  688   7.491  11.148   8.813  0.2792 -0.1280  0.0190
   44loPI    C1  689  14.862   4.827  11.149  0.0343 -0.1882  0.1041
   44loPI    C2  690  14.669   4.503  11.281 -0.1386 -0.0080  0.3028
   44loPI    C3  691  14.914   4.703  11.526 -0.0518  0.0269  0.1886
   44loPI   PO4  692  14.965   4.705  10.891  0.0901  0.2540  0.1690
   44loPI   GL1  693  14.901   4.503  10.529  0.1697  0.2230 -0.1302
   44loPI   GL2  694  15.114   4.634  10.358  0.2684 -0.2169 -0.0236
   44loPI   C1A  695  14.719   4.431  10.115  0.1745 -0.0791 -0.0318
   44loPI   C2A  696  14.753   4.412   9.724 -0.3146  0.0578  0.0382
   44loPI   C3A  697  14.798   4.357   9.369  0.1850 -0.1578 -0.2006
   44loPI   C4A  698  14.753   4.454   8.937  0.0467 -0.3777 -0.0636
   44loPI   C5A  699  14.716   4.457   8.467 -0.0756 -0.0391  0.2749
   44loPI   C6A  700  14.579   4.220   8.113 -0.5144  0.0699 -0.1018
   44loPI   C1B  701  15.199   4.537   9.948  0.0832 -0.1304 -0.4277
   44loPI   C2B  702  15.179   4.544   9.552  0.0507  0.1906 -0.0038
   44loPI   C3B  703  15.276   4.593   9.081  0.2267 -0.0750 -0.0955
   44loPI   C4B  704  15.184   4.640   8.672  0.2120  0.1568  0.0767
   45loPI    C1  705   6.680  10.704  11.471  0.2510 -0.0835  0.1719
   45loPI    C2  706   6.790  10.375  11.670  0.3012 -0.0291  0.2348
   45loPI    C3  707   6.546  10.641  11.842  0.1879 -0.0776  0.1501
   45loPI   PO4  708   6.639  10.636  11.243  0.2952  0.0449  0.3013
   45loPI   GL1  709   6.741  10.696  10.820  0.0619  0.0896  0.0396
   45loPI   GL2  710   6.915  11.012  10.707 -0.1420 -0.1111  0.1259
   45loPI   C1A  711   6.639  10.751  10.318  0.0086 -0.0332 -0.1338
   45loPI   C2A  712   6.618  10.686   9.933  0.0191  0.0037  0.3400
   45loPI   C3A  713   6.564  10.680   9.466  0.0656 -0.2310  0.2368
   45loPI   C4A  714   6.618  10.739   9.137 -0.0943  0.0336 -0.1031
   45loPI   C5A  715   6.446  10.881   8.746 -0.0958  0.0395 -0.0934
   45loPI   C6A  716   6.275  11.223   8.473  0.1184  0.3300 -0.3369
   45loPI   C1B  717   7.166  10.996  10.263 -0.1924  0.1174  0.0749
   45loPI   C2B  718   7.135  10.913   9.873 -0.4020 -0.2740  0.0408
   45loPI   C3B  719   7.059  10.880   9.412 -0.1446 -0.1988 -0.2788
   45loPI   C4B  720   7.026  10.861   8.943 -0.0802 -0.0583 -0.0406
   46loPI    C1  721   9.208   5.783  10.732  0.1389  0.0481 -0.1194
   46loPI    C2  722   9.291   5.978  11.071 -0.0625  0.1691 -0.1380
   46loPI    C3  723   9.177   5.595  11.084  0.1301  0.1121 -0.0859
   46loPI   PO4  724   9.349   5.777  10.599 -0.2344  0.0294  0.1226
   46loPI   GL1  725   9.427   6.083  10.284 -0.0389  0.0490 -0.2314
   46loPI   GL2  726   9.514   6.278  10.205  0.0944  0.1322 -0.3062
   46loPI   C1A  727   9.506   5.967   9.857 -0.2160  0.0049  0.2207
   46loPI   C2A  728   9.436   5.888   9.552  0.0307 -0.2668 -0.2021
   46loPI   C3A  729   9.472   5.994   9.203  0.1087 -0.2173  0.0283
   46loPI   C4A  730   9.305   6.007   8.804  0.0133  0.1775 -0.0188
   46loPI   C5A  731   9.322   6.045   8.347  0.2352 -0.1851 -0.1573
   46loPI   C6A  732   9.553   6.352   8.166 -0.2378 -0.0916 -0.1545
   46loPI   C1B  733   9.539   6.522   9.861  0.2004 -0.0827  0.3742
   46loPI   C2B  734   9.561   6.422   9.466  0.0498  0.1726 -0.0657
   46loPI   C3B  735   9.504   6.460   9.015 -0.0724 -0.0295  0.0836
   46loPI   C4B  736   9.354   6.555   8.622  0.1919 -0.0081 -0.1417
   47loPI    C1  737  12.578  15.968  11.570 -0.2385  0.3236  0.1581
   47loPI    C2  738  12.247  15.968  11.794 -0.2842  0.3086  0.0907
   47loPI    C3  739  12.286  15.705  11.495 -0.0051 -0.0136  0.4028
   47loPI   PO4  740  12.574  16.178  11.397 -0.0793  0.1034 -0.0552
   47loPI   GL1  741  12.529  16.396  11.029  0.1489 -0.1639 -0.2694
   47loPI   GL2  742  12.734  16.599  10.812  0.1509 -0.2363 -0.0757
   47loPI   C1A  743  12.604  16.201  10.587  0.0388  0.2708 -0.1534
   47loPI   C2A  744  12.541  16.175  10.148 -0.2885  0.3814 -0.1334
   47loPI   C3A  745  12.540  16.183   9.671  0.0653  0.0003 -0.0326
   47loPI   C4A  746  12.532  16.268   9.173 -0.2285 -0.1178 -0.4154
   47loPI   C5A  747  12.606  16.375   8.796 -0.0079  0.2903 -0.3380
   47loPI   C6A  748  12.605  16.638   8.389 -0.2832 -0.1374  0.0991
   47loPI   C1B  749  12.623  16.638  10.380  0.1850 -0.1162 -0.0406
   47loPI   C2B  750  12.681  16.646   9.931  0.1119 -0.1693  0.2896
   47loPI   C3B  751  12.689  16.725   9.398  0.2518  0.0472  0.1693
   47loPI   C4B  752  12.466  16.818   8.961 -0.0256 -0.1577 -0.0360
   48loPI    C1  753   6.025   0.156  11.468 -0.1677 -0.0389  0.0069
   48loPI    C2  754   5.746   0.023  11.722 -0.2218 -0.1070 -0.0875
   48loPI    C3  755   6.090   0.172  11.863 -0.2973 -0.0414  0.0286
   48loPI   PO4  756   5.822   0.243  11.255 -0.0400  0.0120  0.0800
   48loPI   GL1  757   5.763   0.234  10.835  0.0124  0.0690 -0.2689
   48loPI   GL2  758   5.945   0.446  10.755 -0.0389  0.4169 -0.0336
   48loPI   C1A  759   5.605   0.360  10.415  0.2985  0.0674 -0.2043
   48loPI   C2A  760   5.629   0.406  10.006 -0.1132 -0.0254  0.1878
   48loPI   C3A  761   5.629   0.337   9.591 -0.0445  0.0045  0.1336
   48loPI   C4A  762   5.632   0.343   9.160  0.1556  0.2531 -0.0329
   48loPI   C5A  763   5.922   0.106   8.898  0.4144 -0.2659  0.1105
   48loPI   C6A  764   5.875  -0.162   8.438 -0.1672  0.2456 -0.3039
   48loPI   C1B  765   6.112   0.550  10.462  0.1421  0.1837 -0.1177
   48loPI   C2B  766   6.198   0.532  10.086 -0.0955 -0.2744  0.2280
   48loPI   C3B  767   6.146   0.561   9.683 -0.0736 -0.0444  0.0765
   48loPI   C4B  768   6.114   0.535   9.266 -0.1969 -0.0597 -0.1574
   49loPI    C1  769   7.644   9.659  11.180  0.1552 -0.3577  0.2055
   49loPI    C2  770   7.555   9.962  11.426  0.1098 -0.1307 -0.0849
   49loPI    C3  771   7.858   9.715  11.514  0.0731 -0.0736  0.2131
   49loPI   PO4  772   7.609   9.723  10.945 -0.0731  0.0348  0.1508
   49loPI   GL1  773   7.446   9.851  10.646 -0.1310 -0.3359  0.1889
   49loPI   GL2  774   7.755   9.779  10.478  0.1447  0.1891  0.3543
   49loPI   C1A  775   7.392  10.084  10.177  0.1224  0.1355  0.0795
   49loPI   C2A  776   7.394  10.125   9.803  0.0164 -0.2576  0.1017
   49loPI   C3A  777   7.457  10.041   9.322  0.0354 -0.0009  0.2269
   49loPI   C4A  778   7.404   9.966   8.813 -0.0068  0.1042 -0.2866
   49loPI   C5A  779   7.117   9.887   8.457 -0.0420  0.0821 -0.0350
   49loPI   C6A  780   6.976  10.190   8.295  0.1022 -0.0325 -0.0449
   49loPI   C1B  781   7.886   9.702  10.017  0.0371  0.1576  0.3295
   49loPI   C2B  782   7.858   9.705   9.516  0.0160  0.2531 -0.1620
   49loPI   C3B  783   7.746   9.744   9.063 -0.0293  0.0738 -0.3184
   49loPI   C4B  784   7.560   9.623   8.506  0.0430  0.2581  0.1289
   50loPI    C1  785   7.292   3.631  10.839  0.0414  0.0301  0.0324
   50loPI    C2  786   7.131   3.872  11.115  0.0180  0.1512 -0.0861
   50loPI    C3  787   6.911   3.582  10.950 -0.0246  0.2002 -0.1154
   50loPI   PO4  788   7.514   3.676  10.828 -0.1379  0.3470 -0.0039
   50loPI   GL1  789   7.796   3.594  10.542  0.3093 -0.0077 -0.0180
   50loPI   GL2  790   8.131   3.603  10.528 -0.0899 -0.2338 -0.1140
   50loPI   C1A  791   7.501   3.484  10.233  0.1832 -0.2502  0.3516
   50loPI   C2A  792   7.485   3.402   9.789 -0.0571 -0.0290  0.0026
   50loPI   C3A  793   7.399   3.447   9.389 -0.3199 -0.0164 -0.0938
   50loPI   C4A  794   7.512   3.463   8.972  0.0034  0.1003 -0.0699
   50loPI   C5A  795   7.495   3.462   8.563  0.0775 -0.1030 -0.0066
   50loPI   C6A  796   7.355   3.292   8.202 -0.0535  0.0970  0.0716
   50loPI   C1B  797   7.974   3.592  10.106 -0.0337 -0.1462  0.0128
   50loPI   C2B  798   7.962   3.635   9.649  0.1740  0.4681  0.1408
   50loPI   C3B  799   7.938   3.641   9.197 -0.1359 -0.1260 -0.4454
   50loPI   C4B  800   8.033   3.660   8.813  0.2036 -0.0939 -0.2634
   51loPI    C1  801   0.047   3.656  11.122  0.0238  0.0814  0.2664
   51loPI    C2  802  -0.165   3.826  11.415  0.0985  0.1783  0.2647
   51loPI    C3  803   0.189   3.979  11.310 -0.0688  0.3339 -0.0870
   51loPI   PO4  804  -0.074   3.626  10.862 -0.1557  0.1023  0.0458
   51loPI   GL1  805  -0.063   3.740  10.525 -0.1753 -0.0057  0.0134
   51loPI   GL2  806   0.190   3.744  10.444 -0.3497  0.0078  0.0540
   51loPI   C1A  807  -0.342   3.527  10.148  0.2670 -0.2544  0.1866
   51loPI   C2A  808  -0.330   3.414   9.687  0.1598  0.2462 -0.2650
   51loPI   C3A  809  -0.273   3.407   9.263 -0.1099  0.1011 -0.3289
   51loPI   C4A  810  -0.262   3.506   8.830 -0.1648 -0.1000 -0.2250
   51loPI   C5A  811  -0.653   3.495   8.588 -0.0184 -0.0052 -0.0287
   51loPI   C6A  812  -1.003   3.510   8.234 -0.1717 -0.0939  0.1719
   51loPI   C1B  813   0.142   3.656  10.009 -0.0125  0.1250  0.0868
   51loPI   C2B  814   0.139   3.655   9.628 -0.6933  0.0017 -0.0170
   51loPI   C3B  815   0.184   3.612   9.163 -0.0264 -0.1390 -0.0004
   51loPI   C4B  816   0.308   3.660   8.769 -0.0707 -0.0635  0.0126
   52loPI    C1  817   0.445   6.167  10.877 -0.0557  0.0128  0.2579
   52loPI    C2  818   0.775   6.125  11.099  0.0103 -0.1394  0.1327
   52loPI    C3  819   0.608   6.486  11.056  0.1355 -0.0689  0.2318
   52loPI   PO4  820   0.462   5.996  10.669  0.2977  0.3874  0.0169
   52loPI   GL1  821   0.447   6.061  10.276 -0.0550  0.1765  0.1290
   52loPI   GL2  822   0.690   6.251  10.130  0.2261 -0.0070 -0.1046
   52loPI   C1A  823   0.484   5.638   9.952 -0.0294  0.1607  0.0824
   52loPI   C2A  824   0.543   5.596   9.569  0.0789  0.4098  0.0427
   52loPI   C3A  825   0.548   5.739   9.175 -0.0191 -0.0478  0.0106
   52loPI   C4A  826   0.522   5.703   8.738 -0.0493 -0.1746  0.0154
   52loPI   C5A  827   0.381   5.981   8.374  0.1657 -0.3772  0.1070
   52loPI   C6A  828  -0.055   6.125   8.232 -0.1308  0.2392 -0.3084
   52loPI   C1B  829   0.553   6.170   9.820 -0.1638  0.0553 -0.0427
   52loPI   C2B  830   0.636   6.214   9.350 -0.1530 -0.2927  0.1977
   52loPI   C3B  831   0.653   6.252   9.015  0.0147 -0.2536  0.2260
   52loPI   C4B  832   0.664   6.325   8.571  0.0919 -0.3174  0.1309
   53loPI    C1  833  13.146   6.596  10.767 -0.2664 -0.0080 -0.0490
   53loPI    C2  834  13.089   6.992  10.744 -0.3330 -0.0149 -0.0065
   53loPI    C3  835  13.066   6.807  11.098  0.3605  0.0424  0.0820
   53loPI   PO4  836  13.110   6.501  10.521  0.0666  0.0601  0.1282
   53loPI   GL1  837  12.765   6.319  10.274 -0.0898 -0.0734  0.1565
   53loPI   GL2  838  12.845   6.614  10.104 -0.0858  0.0967  0.0232
   53loPI   C1A  839  12.741   6.154   9.912  0.0309  0.1388  0.1695
   53loPI   C2A  840  12.825   6.064   9.521  0.3617 -0.0908 -0.1489
   53loPI   C3A  841  12.788   6.132   9.139 -0.0722 -0.1434  0.0036
   53loPI   C4A  842  12.805   6.156   8.691  0.0297 -0.1372  0.0081
   53loPI   C5A  843  12.674   6.289   8.311  0.0565 -0.0215 -0.2273
   53loPI   C6A  844  12.460   6.007   8.011 -0.1252  0.1005 -0.1766
   53loPI   C1B  845  12.916   6.575   9.602 -0.0742 -0.1455 -0.0416
   53loPI   C2B  846  12.890   6.747   9.131  0.0803 -0.1315 -0.2139
   53loPI   C3B  847  12.828   6.721   8.654  0.1710  0.0067  0.0737
   53loPI   C4B  848  12.751   6.787   8.302 -0.1388 -0.0986  0.0069
   54loPI    C1  849   8.599   0.872  11.142 -0.2072  0.0350 -0.0624
   54loPI    C2  850   8.418   0.613  11.387 -0.0019 -0.1386 -0.0923
   54loPI    C3  851   8.507   0.981  11.515 -0.1304 -0.1425  0.0092
   54loPI   PO4  852   8.426   0.827  10.903 -0.1746  0.1227  0.1583
   54loPI   GL1  853   8.078   0.570  10.520  0.0020  0.2354 -0.1313
   54loPI   GL2  854   8.429   0.701  10.413  0.0338  0.0701 -0.1938
   54loPI   C1A  855   8.000   0.721  10.153  0.0676 -0.0820 -0.1927
   54loPI   C2A  856   7.892   0.782   9.735 -0.1373 -0.0863 -0.1801
   54loPI   C3A  857   7.938   0.813   9.288  0.1492 -0.0209 -0.2312
   54loPI   C4A  858   7.899   0.822   8.852  0.0863  0.1243  0.1507
   54loPI   C5A  859   7.927   1.070   8.516  0.1760 -0.0175  0.0700
   54loPI   C6A  860   8.032   1.491   8.558  0.1927 -0.0889  0.1085
   54loPI   C1B  861   8.409   0.849   9.955  0.0354  0.0651 -0.1952
   54loPI   C2B  862   8.373   0.923   9.534 -0.0099 -0.1313  0.3286
   54loPI   C3B  863   8.403   0.910   9.119  0.2907  0.1570  0.0155
   54loPI   C4B  864   8.518   0.935   8.696 -0.0083  0.3042  0.1579
   55loPI    C1  865  13.079   8.103  10.733 -0.0100 -0.1927  0.2456
   55loPI    C2  866  12.837   8.377  10.895 -0.1358 -0.0855 -0.1150
   55loPI    C3  867  13.226   8.457  10.849 -0.0882 -0.1376  0.1774
   55loPI   PO4  868  12.967   8.050  10.538  0.0927  0.2755  0.2218
   55loPI   GL1  869  13.154   8.146  10.187  0.1599 -0.0753 -0.3121
   55loPI   GL2  870  13.376   7.933   9.998 -0.1461  0.3399  0.0310
   55loPI   C1A  871  13.065   8.218   9.770 -0.0071  0.0661 -0.1179
   55loPI   C2A  872  13.103   8.243   9.298 -0.0187 -0.2828 -0.0333
   55loPI   C3A  873  13.147   8.210   8.881 -0.1409  0.2731 -0.1247
   55loPI   C4A  874  13.145   8.161   8.433  0.1083 -0.2811 -0.2520
   55loPI   C5A  875  12.848   7.939   8.119 -0.1046 -0.1135 -0.2212
   55loPI   C6A  876  12.465   8.031   8.004 -0.0263  0.1419  0.0618
   55loPI   C1B  877  13.436   7.781   9.630  0.0165  0.0750  0.0758
   55loPI   C2B  878  13.390   7.893   9.193 -0.0541 -0.3365  0.0521
   55loPI   C3B  879  13.528   7.897   8.791 -0.3325  0.3494  0.1744
   55loPI   C4B  880  13.496   7.811   8.318  0.0416  0.1360  0.0649
   56loPI    C1  881   5.078  14.798  11.357  0.2210 -0.0782  0.1014
   56loPI    C2  882   5.426  14.953  11.479  0.1440  0.1509  0.0348
   56loPI    C3  883   5.082  15.114  11.602  0.0637  0.3035 -0.3745
   56loPI   PO4  884   5.134  14.823  11.043  0.2699 -0.1004  0.3349
   56loPI   GL1  885   5.328  15.040  10.633 -0.0307  0.1998  0.2592
   56loPI   GL2  886   5.606  15.055  10.546 -0.1519  0.0927  0.1440
   56loPI   C1A  887   5.080  14.958  10.328 -0.1715 -0.0308  0.0204
   56loPI   C2A  888   5.041  14.921   9.840  0.2369 -0.3747  0.1057
   56loPI   C3A  889   5.104  14.938   9.397 -0.1333 -0.0348 -0.0795
   56loPI   C4A  890   5.200  14.999   8.968 -0.2562 -0.0883  0.1460
   56loPI   C5A  891   5.341  15.256   8.612  0.1347 -0.1635  0.0106
   56loPI   C6A  892   5.612  14.858   8.385 -0.3864 -0.1421  0.1194
   56loPI   C1B  893   5.506  15.081  10.105 -0.1581  0.1846 -0.1822
   56loPI   C2B  894   5.493  15.160   9.734  0.0665  0.1264 -0.2301
   56loPI   C3B  895   5.570  15.176   9.298 -0.1795 -0.1986  0.1840
   56loPI   C4B  896   5.764  15.241   8.936 -0.1343 -0.1413  0.1553
   57loPI    C1  897  13.242  10.838  10.937  0.1150 -0.0542  0.0002
   57loPI    C2  898  13.475  10.631  11.188 -0.1369 -0.2594  0.0692
   57loPI    C3  899  13.163  10.839  11.329  0.0800  0.1277 -0.0061
   57loPI   PO4  900  13.142  10.713  10.633 -0.0033  0.1039 -0.0720
   57loPI   GL1  901  12.856  10.459  10.447 -0.0993  0.0352  0.1818
   57loPI   GL2  902  12.710  10.740  10.473 -0.1013 -0.3082  0.1467
   57loPI   C1A  903  12.980  10.669  10.063 -0.0164 -0.2536  0.2803
   57loPI   C2A  904  13.076  10.653   9.530 -0.1280 -0.1254 -0.1888
   57loPI   C3A  905  12.975  10.589   9.111 -0.0844 -0.2166 -0.0920
   57loPI   C4A  906  12.869  10.666   8.658 -0.1864 -0.0829  0.3079
   57loPI   C5A  907  13.051  10.536   8.237 -0.0002  0.2225  0.1337
   57loPI   C6A  908  13.235  10.620   7.910 -0.0774 -0.0922  0.1406
   57loPI   C1B  909  12.592  10.922   9.968  0.0111 -0.0673 -0.0017
   57loPI   C2B  910  12.486  11.060   9.573  0.0148  0.2445 -0.1094
   57loPI   C3B  911  12.569  10.985   9.158 -0.2427  0.0802  0.0196
   57loPI   C4B  912  12.504  10.984   8.715 -0.0983 -0.0703 -0.1373
   58loPI    C1  913  13.799   1.824  11.401  0.2313 -0.1789  0.1142
   58loPI    C2  914  13.439   1.779  11.569  0.0737 -0.0098 -0.1699
   58loPI    C3  915  13.753   1.887  11.793 -0.1089  0.1093  0.0326
   58loPI   PO4  916  13.799   2.015  11.185 -0.0743  0.3108  0.4338
   58loPI   GL1  917  13.821   1.895  10.862  0.2266  0.1794  0.0723
   58loPI   GL2  918  13.729   1.639  10.670 -0.0999  0.1543  0.1403
   58loPI   C1A  919  13.896   2.091  10.402  0.2137  0.0707 -0.3273
   58loPI   C2A  920  13.947   2.098  10.004 -0.4063 -0.1977  0.3054
   58loPI   C3A  921  13.974   2.118   9.518  0.0556 -0.0926 -0.0216
   58loPI   C4A  922  13.967   1.983   9.181  0.0677  0.0677  0.1859
   58loPI   C5A  923  13.864   2.210   8.792 -0.1779 -0.0009 -0.2216
   58loPI   C6A  924  14.063   2.216   8.495 -0.1749 -0.0516  0.1242
   58loPI   C1B  925  13.796   1.642  10.193  0.0016 -0.2272 -0.4201
   58loPI   C2B  926  13.866   1.628   9.791  0.0091 -0.0873  0.2709
   58loPI   C3B  927  13.908   1.483   9.399  0.3195 -0.0443  0.2062
   58loPI   C4B  928  13.928   1.580   8.876 -0.1344  0.1040 -0.0003
   59loPI    C1  929   7.071   3.381  11.393  0.1119  0.3306 -0.0512
   59loPI    C2  930   7.232   3.295  11.749 -0.2183 -0.2874 -0.0373
   59loPI    C3  931   6.837   3.261  11.695 -0.2351  0.2743 -0.3360
   59loPI   PO4  932   7.257   3.242  11.188  0.2578  0.1359 -0.0794
   59loPI   GL1  933   7.333   3.100  10.751  0.0738 -0.1241  0.1637
   59loPI   GL2  934   7.018   3.174  10.596 -0.1403  0.0053 -0.0488
   59loPI   C1A  935   7.355   2.919  10.356  0.1154 -0.0012  0.3595
   59loPI   C2A  936   7.343   2.943   9.948  0.2961 -0.0352 -0.0058
   59loPI   C3A  937   7.355   2.961   9.479 -0.1056 -0.0118  0.0615
   59loPI   C4A  938   7.311   2.936   9.058  0.0972  0.1326 -0.2326
   59loPI   C5A  939   7.388   2.974   8.626  0.0527 -0.1371 -0.0903
   59loPI   C6A  940   7.689   2.880   8.170  0.1865 -0.1279  0.0084
   59loPI   C1B  941   6.952   3.187  10.127  0.0976  0.0439 -0.1426
   59loPI   C2B  942   6.983   3.201   9.706  0.1279 -0.2552 -0.0125
   59loPI   C3B  943   6.934   3.303   9.330 -0.1691  0.3664  0.0586
   59loPI   C4B  944   7.016   3.377   8.859 -0.1882  0.1339 -0.0293
   60loPI    C1  945   7.272  14.380  11.216 -0.0646  0.2232  0.1536
   60loPI    C2  946   7.607  14.570  11.324  0.1417 -0.0101 -0.0618
   60loPI    C3  947   7.535  14.200  11.458 -0.0256  0.0342 -0.0264
   60loPI   PO4  948   7.284  14.419  10.951  0.0980 -0.0121  0.2344
   60loPI   GL1  949   7.407  14.354  10.515 -0.0756 -0.0989  0.1174
   60loPI   GL2  950   7.661  14.369  10.449  0.0497 -0.0783  0.0151
   60loPI   C1A  951   7.221  14.254  10.055  0.2057 -0.1240 -0.0506
   60loPI   C2A  952   7.196  14.279   9.683  0.1410 -0.1937  0.0391
   60loPI   C3A  953   7.189  14.295   9.215 -0.0656 -0.1456  0.1035
   60loPI   C4A  954   7.124  14.218   8.762  0.0640  0.0349 -0.0435
   60loPI   C5A  955   7.169  13.770   8.509  0.2404 -0.0692  0.0041
   60loPI   C6A  956   7.533  13.696   8.337  0.0803 -0.1042 -0.2499
   60loPI   C1B  957   7.709  14.447  10.062  0.0741 -0.0416  0.2603
   60loPI   C2B  958   7.638  14.516   9.710  0.0772  0.2443  0.3076
   60loPI   C3B  959   7.774  14.571   9.286  0.0682  0.0879  0.2866
   60loPI   C4B  960   7.783  14.621   8.834  0.1128  0.0090  0.0484
   61loPI    C1  961  10.906   1.377  11.135  0.2944 -0.0720  0.0653
   61loPI    C2  962  10.637   1.517  11.396  0.1750 -0.1465 -0.0166
   61loPI    C3  963  10.985   1.368  11.527  0.2226  0.0486  0.0831
   61loPI   PO4  964  10.907   1.545  10.929  0.0110  0.0326  0.1628
   61loPI   GL1  965  10.799   1.400  10.494  0.1387  0.1869  0.1948
   61loPI   GL2  966  10.489   1.285  10.409 -0.4079 -0.0033 -0.0454
   61loPI   C1A  967  10.819   1.351  10.082  0.0774  0.1501 -0.1201
   61loPI   C2A  968  10.831   1.262   9.678 -0.0087  0.1241 -0.3031
   61loPI   C3A  969  10.744   1.254   9.267  0.0902  0.1191  0.1729
   61loPI   C4A  970  10.808   1.326   8.779 -0.6278  0.0944  0.4587
   61loPI   C5A  971  10.709   1.227   8.305  0.1424  0.2739 -0.1388
   61loPI   C6A  972  10.625   1.222   7.803  0.1462  0.0783 -0.0773
   61loPI   C1B  973  10.308   1.190   9.937  0.0820 -0.3928  0.0032
   61loPI   C2B  974  10.292   1.175   9.523 -0.1226  0.1038  0.0816
   61loPI   C3B  975  10.303   1.121   9.095  0.1265 -0.0378 -0.0170
   61loPI   C4B  976  10.319   1.155   8.658 -0.2535  0.1255 -0.1995
   62loPI    C1  977   0.508  17.201  11.816  0.1001  0.0346  0.1995
   62loPI    C2  978   0.393  17.357  12.165  0.1658  0.1725  0.1601
   62loPI    C3  979   0.766  17.220  12.121  0.1338  0.0819  0.1682
   62loPI   PO4  980   0.428  17.354  11.503 -0.0261 -0.0268  0.0790
   62loPI   GL1  981   0.362  17.487  11.173  0.0009 -0.2963 -0.0979
   62loPI   GL2  982   0.654  17.619  11.051 -0.0855 -0.3848  0.2272
   62loPI   C1A  983   0.384  17.271  10.798  0.0214 -0.2791 -0.1438
   62loPI   C2A  984   0.421  17.017  10.564 -0.0306  0.0928  0.1554
   62loPI   C3A  985   0.305  17.031  10.148  0.0705 -0.3697 -0.4356
   62loPI   C4A  986   0.426  17.032   9.685  0.0530  0.0937  0.1439
   62loPI   C5A  987   0.479  17.051   9.254 -0.0770 -0.0682 -0.2386
   62loPI   C6A  988   0.433  17.083   8.841  0.3564 -0.0086 -0.2090
   62loPI   C1B  989   0.480  17.745  10.751  0.1656 -0.1625  0.1655
   62loPI   C2B  990   0.403  17.698  10.228  0.1518  0.3867  0.1437
   62loPI   C3B  991   0.398  17.647   9.826  0.1168 -0.1311 -0.2179
   62loPI   C4B  992   0.489  17.536   9.426 -0.2270 -0.0130 -0.1191
   63loPI    C1  993   6.282  14.038  11.238 -0.1312 -0.0777  0.1243
   63loPI    C2  994   6.534  14.039  11.549 -0.0553 -0.1115  0.0634
   63loPI    C3  995   6.191  13.834  11.569 -0.1231  0.0120  0.1821
   63loPI   PO4  996   6.446  14.064  11.007 -0.1898  0.1263  0.2269
   63loPI   GL1  997   6.560  14.087  10.619 -0.0185  0.0272 -0.1482
   63loPI   GL2  998   6.740  14.409  10.768  0.0488  0.0086  0.2522
   63loPI   C1A  999   6.702  14.026  10.200 -0.1242 -0.2156 -0.1913
   63loPI   C2A 1000   6.808  14.044   9.815  0.1309  0.1872  0.0320
   63loPI   C3A 1001   6.739  14.171   9.416  0.0864 -0.1271 -0.2545
   63loPI   C4A 1002   6.626  14.229   9.028 -0.2410  0.3248 -0.0841
   63loPI   C5A 1003   6.331  14.248   8.613  0.0112  0.1194 -0.1352
   63loPI   C6A 1004   5.997  14.382   8.381 -0.0002  0.0925  0.1130
   63loPI   C1B 1005   6.905  14.476  10.408  0.0579 -0.1121  0.1156
   63loPI   C2B 1006   6.792  14.599  10.036  0.0155 -0.1897  0.1167
   63loPI   C3B 1007   6.754  14.583   9.693 -0.1490  0.1510 -0.0116
   63loPI   C4B 1008   6.814  14.657   9.226 -0.1941  0.1671 -0.1363
   64loPI    C1 1009  15.996  13.510  11.257  0.1082  0.2079 -0.1382
   64loPI    C2 1010  16.385  13.521  11.349  0.0881 -0.1219  0.0030
   64loPI    C3 1011  16.113  13.467  11.637 -0.0672  0.1463 -0.0898
   64loPI   PO4 1012  15.992  13.723  10.998 -0.0081  0.0183  0.0228
   64loPI   GL1 1013  15.898  13.553  10.651 -0.0571 -0.1946  0.2426
   64loPI   GL2 1014  15.741  13.291  10.593  0.0588  0.2928 -0.0057
   64loPI   C1A 1015  15.868  13.589  10.151 -0.1184  0.1543  0.0270
   64loPI   C2A 1016  15.780  13.650   9.774  0.1390 -0.1633 -0.1596
   64loPI   C3A 1017  15.646  13.698   9.398  0.1503 -0.0378 -0.2378
   64loPI   C4A 1018  15.583  13.661   8.934  0.0905  0.1556 -0.0121
   64loPI   C5A 1019  15.198  13.804   8.648 -0.0439  0.0296  0.2781
   64loPI   C6A 1020  14.714  13.929   8.582  0.2789  0.2505  0.3535
   64loPI   C1B 1021  15.452  13.331  10.154 -0.0256 -0.1969  0.0842
   64loPI   C2B 1022  15.304  13.458   9.738  0.1075  0.1282  0.0818
   64loPI   C3B 1023  15.237  13.478   9.323  0.0927 -0.0041  0.0822
   64loPI   C4B 1024  15.179  13.356   8.916 -0.0835 -0.1719 -0.2087
   65loPI    C1 1025   1.877   4.963  10.715  0.2450 -0.2734  0.0602
   65loPI    C2 1026   1.752   5.124  11.059  0.0880 -0.0530 -0.0974
   65loPI    C3 1027   1.818   4.730  11.035 -0.0326 -0.0900  0.1461
   65loPI   PO4 1028   2.090   5.116  10.616 -0.2225 -0.1198 -0.0446
   65loPI   GL1 1029   2.137   5.275  10.284 -0.1761  0.2653  0.1019
   65loPI   GL2 1030   1.857   5.340  10.047  0.0189 -0.0139 -0.0936
   65loPI   C1A 1031   2.448   5.260   9.926 -0.0968  0.1317  0.1301
   65loPI   C2A 1032   2.569   5.245   9.505 -0.0725  0.2221  0.0227
   65loPI   C3A 1033   2.721   5.107   9.053  0.2143  0.1213 -0.4215
   65loPI   C4A 1034   2.739   5.023   8.657 -0.1690  0.0968  0.0077
   65loPI   C5A 1035   2.906   5.068   8.243  0.1280 -0.0615 -0.0892
   65loPI   C6A 1036   2.774   5.354   7.962  0.1528  0.2164 -0.2447
   65loPI   C1B 1037   2.036   5.275   9.672 -0.5677 -0.1991 -0.0921
   65loPI   C2B 1038   2.049   5.296   9.337 -0.1078  0.1073  0.3450
   65loPI   C3B 1039   1.824   5.315   8.994  0.0803 -0.1334  0.3516
   65loPI   C4B 1040   1.922   5.222   8.546 -0.0946 -0.1423  0.0170
   66loPI    C1 1041  14.334   3.295  11.022 -0.3002  0.0131 -0.1278
   66loPI    C2 1042  14.109   3.554  11.226 -0.0054 -0.0113  0.2400
   66loPI    C3 1043  14.482   3.477  11.346  0.2099  0.0370 -0.3641
   66loPI   PO4 1044  14.214   3.315  10.713  0.1271  0.1062 -0.0166
   66loPI   GL1 1045  13.899   3.093  10.435 -0.2697  0.1481 -0.0666
   66loPI   GL2 1046  13.551   3.133  10.279 -0.2141  0.0604  0.0781
   66loPI   C1A 1047  14.023   3.214  10.105 -0.0075  0.2234  0.4335
   66loPI   C2A 1048  14.043   3.235   9.671  0.2805  0.1618  0.0115
   66loPI   C3A 1049  14.044   3.179   9.240  0.2201  0.0403 -0.2516
   66loPI   C4A 1050  14.158   3.161   8.835 -0.2669  0.0225  0.0843
   66loPI   C5A 1051  13.905   3.170   8.485 -0.2540 -0.1634 -0.0007
   66loPI   C6A 1052  13.716   2.863   8.217  0.1745  0.1271  0.0245
   66loPI   C1B 1053  13.624   2.980   9.857 -0.3083  0.2422 -0.1437
   66loPI   C2B 1054  13.610   2.942   9.449 -0.0215  0.0643  0.1820
   66loPI   C3B 1055  13.642   2.960   8.933 -0.0745  0.0545 -0.0646
   66loPI   C4B 1056  13.409   3.056   8.549 -0.1508  0.1491  0.0134
   67loPI    C1 1057   8.471  13.035  11.288  0.0059  0.4396  0.0544
   67loPI    C2 1058   8.099  13.027  11.435  0.0499 -0.0054  0.1577
   67loPI    C3 1059   8.399  13.167  11.659 -0.0103  0.0896  0.1797
   67loPI   PO4 1060   8.473  13.106  11.046  0.0123  0.1737  0.1158
   67loPI   GL1 1061   8.468  12.764  10.719  0.0477  0.2426  0.2392
   67loPI   GL2 1062   8.242  12.842  10.526  0.2230 -0.0492  0.0057
   67loPI   C1A 1063   8.708  12.866  10.355 -0.0844  0.0310 -0.3622
   67loPI   C2A 1064   8.831  12.998   9.931  0.1857 -0.0343  0.0248
   67loPI   C3A 1065   8.754  12.888   9.542  0.1485  0.0018  0.1969
   67loPI   C4A 1066   8.705  13.037   9.065  0.0840  0.1199 -0.0932
   67loPI   C5A 1067   8.476  13.240   8.713 -0.3043 -0.0730 -0.0376
   67loPI   C6A 1068   8.301  13.111   8.239 -0.2667  0.0956  0.2357
   67loPI   C1B 1069   8.294  12.685  10.115  0.0981 -0.0392  0.2811
   67loPI   C2B 1070   8.252  12.732   9.663 -0.0086  0.3241 -0.2505
   67loPI   C3B 1071   8.268  12.832   9.250 -0.0124 -0.0208 -0.0810
   67loPI   C4B 1072   8.272  12.812   8.824  0.2182 -0.0885  0.2019
   68loPI    C1 1073   3.390   2.845  11.233  0.0418  0.2688 -0.0849
   68loPI    C2 1074   3.173   3.111  11.437 -0.0821  0.0928  0.0151
   68loPI    C3 1075   3.178   2.727  11.551  0.1645  0.0677 -0.0757
   68loPI   PO4 1076   3.371   2.900  11.006 -0.0682  0.2237  0.2593
   68loPI   GL1 1077   3.232   2.806  10.707  0.0069  0.0454 -0.0428
   68loPI   GL2 1078   2.930   2.942  10.676 -0.1009  0.3088  0.1701
   68loPI   C1A 1079   3.268   2.844  10.274 -0.1092  0.0947  0.0226
   68loPI   C2A 1080   3.240   2.828   9.913 -0.0841 -0.0960 -0.3839
   68loPI   C3A 1081   3.323   2.834   9.431  0.0803  0.0733 -0.2047
   68loPI   C4A 1082   3.258   2.808   9.020 -0.4063  0.0482 -0.2066
   68loPI   C5A 1083   3.445   2.598   8.833  0.2716 -0.2791 -0.0023
   68loPI   C6A 1084   3.716   2.718   8.721  0.1378  0.2503 -0.2931
   68loPI   C1B 1085   2.774   2.708  10.243 -0.2041  0.0851  0.1066
   68loPI   C2B 1086   2.768   2.690   9.769 -0.2788 -0.3272  0.0611
   68loPI   C3B 1087   2.779   2.752   9.322  0.4571  0.0363  0.1094
   68loPI   C4B 1088   2.855   2.559   8.871 -0.0016 -0.1345  0.1504
   69loPI    C1 1089   6.451  14.946  11.330  0.2191  0.2460 -0.1365
   69loPI    C2 1090   6.786  15.002  11.542  0.2121  0.0414 -0.0692
   69loPI    C3 1091   6.436  14.950  11.730  0.1905 -0.0432 -0.1327
   69loPI   PO4 1092   6.497  14.882  11.165  0.3751 -0.3661 -0.2195
   69loPI   GL1 1093   6.561  14.895  10.771  0.1197 -0.3594 -0.0754
   69loPI   GL2 1094   6.378  14.849  10.526  0.1320 -0.0686  0.0552
   69loPI   C1A 1095   6.908  14.999  10.408  0.0748  0.0973 -0.1029
   69loPI   C2A 1096   6.832  15.087   9.968 -0.0447  0.0230  0.0781
   69loPI   C3A 1097   6.894  15.056   9.589 -0.2812  0.2009  0.2889
   69loPI   C4A 1098   6.917  15.181   9.135 -0.0307 -0.1226  0.1157
   69loPI   C5A 1099   6.932  15.276   8.697  0.2436  0.0763 -0.3028
   69loPI   C6A 1100   7.167  15.145   8.321 -0.1126  0.1254 -0.0027
   69loPI   C1B 1101   6.368  14.959  10.082  0.0136 -0.1283 -0.0011
   69loPI   C2B 1102   6.370  14.903   9.706 -0.3424 -0.1872  0.3781
   69loPI   C3B 1103   6.422  14.973   9.312 -0.0947  0.2425 -0.0458
   69loPI   C4B 1104   6.492  15.129   8.872  0.2410 -0.1717 -0.2737
   70loPI    C1 1105   9.317   6.726  10.840  0.1768 -0.1148 -0.2674
   70loPI    C2 1106   9.387   6.479  11.147  0.0281  0.1639 -0.0038
   70loPI    C3 1107   9.506   6.861  11.166 -0.0593  0.2059 -0.2583
   70loPI   PO4 1108   9.404   6.654  10.593  0.0092  0.1651  0.3655
   70loPI   GL1 1109   9.445   6.850  10.233  0.1737 -0.0651  0.0082
   70loPI   GL2 1110   9.691   7.056  10.182  0.1298  0.3618 -0.0940
   70loPI   C1A 1111   9.191   6.862   9.884  0.0690  0.3227 -0.1737
   70loPI   C2A 1112   9.107   6.808   9.450  0.1753 -0.1986  0.2044
   70loPI   C3A 1113   9.060   6.779   9.007  0.0599 -0.0488 -0.1081
   70loPI   C4A 1114   8.967   7.037   8.673 -0.2900 -0.1358  0.0327
   70loPI   C5A 1115   9.016   6.988   8.257 -0.1825  0.1262 -0.2583
   70loPI   C6A 1116   8.955   7.078   7.860 -0.0195  0.1822 -0.2172
   70loPI   C1B 1117   9.745   6.969   9.752 -0.1375 -0.2344  0.0970
   70loPI   C2B 1118   9.577   6.926   9.398  0.3227 -0.0295  0.3222
   70loPI   C3B 1119   9.508   6.978   8.916 -0.0942  0.3683 -0.2010
   70loPI   C4B 1120   9.504   6.994   8.509 -0.0749 -0.0720  0.3767
   71loPI    C1 1121  10.449   6.868  11.064 -0.1123  0.0712  0.1410
   71loPI    C2 1122  10.331   7.190  11.270 -0.0141  0.0976  0.1565
   71loPI    C3 1123  10.501   6.882  11.461  0.0963  0.1309  0.1126
   71loPI   PO4 1124  10.636   7.022  10.743  0.0270  0.0583 -0.1173
   71loPI   GL1 1125  10.537   7.268  10.363  0.1417 -0.1731 -0.1551
   71loPI   GL2 1126  10.279   7.046  10.328  0.1912 -0.0302  0.1419
   71loPI   C1A 1127  10.717   7.223  10.105 -0.0837  0.0157  0.0174
   71loPI   C2A 1128  10.762   7.248   9.677  0.0349  0.2698  0.2483
   71loPI   C3A 1129  10.708   7.405   9.260 -0.1628 -0.1190  0.0324
   71loPI   C4A 1130  10.506   7.448   8.903 -0.4146  0.1152  0.0566
   71loPI   C5A 1131  10.419   7.222   8.579 -0.2826 -0.1746  0.0555
   71loPI   C6A 1132  10.370   7.320   8.156  0.2366  0.1052 -0.1174
   71loPI   C1B 1133  10.260   7.140   9.847 -0.0205  0.0531  0.0518
   71loPI   C2B 1134  10.079   7.141   9.483 -0.2500  0.0827  0.0357
   71loPI   C3B 1135  10.012   7.271   9.036 -0.1541 -0.1262 -0.0709
   71loPI   C4B 1136   9.901   7.261   8.660  0.2778  0.0283  0.0252
   72loPI    C1 1137   4.920  16.267  11.514  0.1412  0.0935 -0.0601
   72loPI    C2 1138   4.686  16.400  11.810  0.0021 -0.1696 -0.0483
   72loPI    C3 1139   5.082  16.376  11.863  0.0075  0.0433  0.0184
   72loPI   PO4 1140   4.882  16.484  11.273 -0.2358  0.0976  0.3091
   72loPI   GL1 1141   4.793  16.661  10.943 -0.2391 -0.2263 -0.0811
   72loPI   GL2 1142   4.950  16.919  10.696  0.0289  0.1473  0.0170
   72loPI   C1A 1143   4.608  16.620  10.524  0.0255 -0.0150  0.1434
   72loPI   C2A 1144   4.415  16.581  10.149 -0.3810 -0.0082  0.1000
   72loPI   C3A 1145   4.488  16.628   9.744  0.0903 -0.1514 -0.2567
   72loPI   C4A 1146   4.538  16.729   9.308  0.0790  0.0592  0.0323
   72loPI   C5A 1147   4.455  16.574   8.848  0.2107  0.1043  0.0065
   72loPI   C6A 1148   4.596  16.445   8.392  0.0073  0.1282  0.3478
   72loPI   C1B 1149   4.939  16.853  10.269 -0.0824 -0.2137  0.0488
   72loPI   C2B 1150   4.994  16.816   9.850  0.1718 -0.1561 -0.1011
   72loPI   C3B 1151   5.041  16.893   9.329 -0.2243  0.2760 -0.0815
   72loPI   C4B 1152   4.892  16.787   8.918 -0.0879 -0.0493  0.0654
   73loPI    C1 1153  13.612   7.335  10.658  0.0745 -0.1894  0.1615
   73loPI    C2 1154  13.450   7.246  11.013 -0.1630 -0.0673  0.0857
   73loPI    C3 1155  13.637   7.596  10.961 -0.0490 -0.1232  0.1150
   73loPI   PO4 1156  13.444   7.307  10.487  0.3181  0.0770 -0.1643
   73loPI   GL1 1157  13.376   7.227  10.063 -0.1677 -0.0156  0.0784
   73loPI   GL2 1158  13.218   6.917  10.243 -0.1233 -0.0458 -0.0506
   73loPI   C1A 1159  13.398   7.248   9.628 -0.0834  0.0311 -0.3630
   73loPI   C2A 1160  13.386   7.372   9.313  0.1515 -0.0945 -0.0839
   73loPI   C3A 1161  13.352   7.399   8.888 -0.0698 -0.0404 -0.1518
   73loPI   C4A 1162  13.502   7.357   8.508  0.1196 -0.0571  0.1626
   73loPI   C5A 1163  13.882   7.505   8.136 -0.1861  0.1518 -0.0008
   73loPI   C6A 1164  14.049   7.950   7.951  0.1775 -0.2048  0.1710
   73loPI   C1B 1165  13.312   6.799   9.774 -0.1612 -0.1229 -0.0725
   73loPI   C2B 1166  13.341   6.841   9.316  0.4671  0.3216 -0.1316
   73loPI   C3B 1167  13.348   6.831   8.883 -0.0031  0.0843 -0.0135
   73loPI   C4B 1168  13.388   6.877   8.425 -0.0336  0.0233  0.1344
   74loPI    C1 1169  15.424   3.043  11.210  0.1003  0.0843 -0.1336
   74loPI    C2 1170  15.611   2.759  11.421 -0.0736  0.0685  0.0010
   74loPI    C3 1171  15.428   3.061  11.610  0.1028  0.2670 -0.1411
   74loPI   PO4 1172  15.457   2.940  10.951  0.1189  0.1586  0.1651
   74loPI   GL1 1173  15.768   2.962  10.514  0.0103  0.0296 -0.1298
   74loPI   GL2 1174  15.476   3.162  10.399  0.2542  0.0762  0.0599
   74loPI   C1A 1175  15.824   2.873  10.137  0.1478 -0.0735  0.0551
   74loPI   C2A 1176  15.748   2.897   9.768 -0.0317 -0.0224  0.1418
   74loPI   C3A 1177  15.916   2.839   9.371 -0.1677 -0.0736 -0.1898
   74loPI   C4A 1178  15.935   2.868   8.880 -0.1145 -0.0973  0.1994
   74loPI   C5A 1179  15.833   2.913   8.501 -0.0484  0.0317  0.2418
   74loPI   C6A 1180  15.678   2.782   8.071  0.0948  0.1721 -0.0933
   74loPI   C1B 1181  15.431   3.222   9.958  0.2830  0.0993 -0.0133
   74loPI   C2B 1182  15.437   3.190   9.481  0.3194 -0.1585  0.1595
   74loPI   C3B 1183  15.544   3.157   9.079  0.1076 -0.2168 -0.0744
   74loPI   C4B 1184  15.524   3.278   8.690 -0.0317 -0.0382 -0.1570
   75loPI    C1 1185   2.118   0.699  11.729 -0.3347 -0.0445  0.0029
   75loPI    C2 1186   2.348   0.795  12.042 -0.1279 -0.0050 -0.1593
   75loPI    C3 1187   2.011   0.588  12.098 -0.1252  0.0564  0.0960
   75loPI   PO4 1188   2.307   0.661  11.540  0.0279 -0.1645  0.2116
   75loPI   GL1 1189   2.466   0.552  11.219 -0.0179 -0.0748 -0.1748
   75loPI   GL2 1190   2.365   0.253  11.229 -0.2699 -0.2983  0.0743
   75loPI   C1A 1191   2.506   0.670  10.887  0.0154  0.1359  0.1751
   75loPI   C2A 1192   2.410   0.680  10.471  0.2549 -0.4291 -0.0913
   75loPI   C3A 1193   2.516   0.587   9.971 -0.0546 -0.0282 -0.2302
   75loPI   C4A 1194   2.537   0.638   9.620  0.1949  0.0776  0.1627
   75loPI   C5A 1195   2.439   0.589   9.140 -0.1881 -0.1507  0.1589
   75loPI   C6A 1196   2.109   0.812   8.930  0.0858 -0.0580  0.1487
   75loPI   C1B 1197   2.360   0.163  10.733  0.0310 -0.1062 -0.1463
   75loPI   C2B 1198   2.289   0.200  10.322 -0.0348 -0.4527 -0.3785
   75loPI   C3B 1199   2.384   0.100   9.884  0.3444  0.1902  0.1901
   75loPI   C4B 1200   2.490   0.110   9.437  0.0258 -0.1832  0.1618
   76loPI    C1 1201   1.820  11.444  11.037 -0.3466  0.2296  0.3031
   76loPI    C2 1202   2.171  11.616  10.950 -0.1936 -0.1903  0.0639
   76loPI    C3 1203   1.981  11.711  11.289  0.0759  0.1506  0.1252
   76loPI   PO4 1204   1.656  11.458  10.736  0.3085 -0.1139 -0.1167
   76loPI   GL1 1205   1.751  11.371  10.342  0.0397 -0.4255 -0.2209
   76loPI   GL2 1206   1.421  11.626  10.294  0.2101 -0.0296 -0.0618
   76loPI   C1A 1207   1.850  11.798  10.057 -0.2241 -0.2873 -0.0769
   76loPI   C2A 1208   1.873  11.858   9.722  0.1766 -0.1003 -0.2255
   76loPI   C3A 1209   1.926  11.931   9.226  0.0605 -0.0074 -0.0915
   76loPI   C4A 1210   1.945  11.953   8.878  0.0852 -0.0582  0.0676
   76loPI   C5A 1211   1.957  12.006   8.437 -0.2199  0.0787  0.1954
   76loPI   C6A 1212   1.878  12.404   8.111  0.3612 -0.1738  0.0045
   76loPI   C1B 1213   1.421  11.640   9.849  0.2910 -0.1663  0.1318
   76loPI   C2B 1214   1.425  11.704   9.527 -0.0322  0.2078 -0.0468
   76loPI   C3B 1215   1.398  11.715   9.133  0.2279 -0.2013 -0.2537
   76loPI   C4B 1216   1.417  11.882   8.743  0.2210  0.1508 -0.1184
   77loPI    C1 1217   3.281  12.007  10.949 -0.0171 -0.0459 -0.0366
   77loPI    C2 1218   3.353  11.801  11.285  0.2546 -0.0342 -0.0846
   77loPI    C3 1219   2.997  11.974  11.228  0.2509  0.0764  0.2577
   77loPI   PO4 1220   3.496  11.949  10.764  0.2727 -0.0123  0.1782
   77loPI   GL1 1221   3.613  11.928  10.303  0.1757 -0.1406 -0.1786
   77loPI   GL2 1222   3.366  12.190  10.362  0.5802  0.2617  0.0206
   77loPI   C1A 1223   3.714  12.032   9.909  0.1614 -0.0141  0.0712
   77loPI   C2A 1224   3.712  12.136   9.416  0.1295  0.0521  0.0716
   77loPI   C3A 1225   3.684  12.107   9.046  0.1757  0.2500  0.0972
   77loPI   C4A 1226   3.811  12.100   8.662  0.2418 -0.2162  0.2360
   77loPI   C5A 1227   4.141  11.964   8.372  0.1323 -0.0170  0.1410
   77loPI   C6A 1228   4.188  11.943   7.861 -0.0286 -0.3001 -0.4179
   77loPI   C1B 1229   3.292  12.370   9.916  0.0934  0.2022  0.0308
   77loPI   C2B 1230   3.297  12.447   9.528  0.2972 -0.0398 -0.0103
   77loPI   C3B 1231   3.343  12.472   9.122 -0.2537 -0.5575  0.1409
   77loPI   C4B 1232   3.348  12.413   8.744  0.0968 -0.0179  0.2963
   78loPI    C1 1233   8.867  14.986  11.192 -0.1544  0.1408 -0.0350
   78loPI    C2 1234   8.600  15.112  11.462 -0.1291 -0.1096  0.1100
   78loPI    C3 1235   8.987  15.203  11.505 -0.1361 -0.0816  0.1139
   78loPI   PO4 1236   8.891  15.098  10.875  0.2169 -0.2150 -0.1088
   78loPI   GL1 1237   8.706  14.942  10.518  0.0475 -0.0603  0.0502
   78loPI   GL2 1238   8.752  15.153  10.348  0.1243  0.2436  0.0535
   78loPI   C1A 1239   8.720  14.778  10.073 -0.1864 -0.1134 -0.1246
   78loPI   C2A 1240   8.684  14.824   9.674 -0.1961  0.1030 -0.1894
   78loPI   C3A 1241   8.741  14.861   9.183  0.0057 -0.0154  0.1126
   78loPI   C4A 1242   8.700  14.914   8.757 -0.1671 -0.1288  0.1324
   78loPI   C5A 1243   8.939  15.110   8.378 -0.0212 -0.0224 -0.0263
   78loPI   C6A 1244   9.347  15.252   8.371 -0.0916 -0.0521 -0.1099
   78loPI   C1B 1245   8.864  15.302   9.924  0.0882  0.3597  0.2602
   78loPI   C2B 1246   8.861  15.285   9.481 -0.0330  0.0831  0.0032
   78loPI   C3B 1247   8.809  15.381   9.067  0.2647 -0.0467 -0.2802
   78loPI   C4B 1248   8.719  15.423   8.663  0.5055 -0.2280 -0.3177
   79loPI    C1 1249   7.316  13.554  11.400 -0.0131  0.1530 -0.0256
   79loPI    C2 1250   7.016  13.577  11.664  0.1890 -0.0182  0.2243
   79loPI    C3 1251   7.361  13.404  11.769  0.2380 -0.1805 -0.1863
   79loPI   PO4 1252   7.294  13.798  11.285  0.1861 -0.0475 -0.2183
   79loPI   GL1 1253   7.321  13.918  10.778 -0.4037 -0.1481 -0.4032
   79loPI   GL2 1254   7.097  13.912  10.531 -0.1018 -0.0068 -0.1468
   79loPI   C1A 1255   7.582  13.918  10.216 -0.2144  0.4327 -0.1550
   79loPI   C2A 1256   7.624  14.040   9.849  0.0642  0.2744  0.0575
   79loPI   C3A 1257   7.536  13.989   9.500 -0.0674 -0.4135  0.0338
   79loPI   C4A 1258   7.659  14.065   9.076  0.1654 -0.0407  0.2115
   79loPI   C5A 1259   7.641  14.093   8.711  0.1421  0.0318  0.2860
   79loPI   C6A 1260   7.542  14.292   8.320 -0.1932 -0.0714 -0.1379
   79loPI   C1B 1261   7.066  13.681  10.221 -0.0291  0.1055 -0.2807
   79loPI   C2B 1262   7.199  13.767   9.913  0.2706  0.1464  0.0562
   79loPI   C3B 1263   7.078  13.792   9.508  0.0588 -0.2693 -0.2744
   79loPI   C4B 1264   7.155  13.850   9.051  0.3493  0.3906 -0.1535
   80loPI    C1 1265  15.329   1.175  11.405 -0.1628 -0.0342  0.2186
   80loPI    C2 1266  15.106   1.475  11.263 -0.2380 -0.1489  0.0914
   80loPI    C3 1267  15.235   1.483  11.642  0.0128  0.1893  0.0036
   80loPI   PO4 1268  15.476   1.109  11.185  0.1164 -0.0471 -0.1588
   80loPI   GL1 1269  15.468   1.341  10.889 -0.1980 -0.0359 -0.1301
   80loPI   GL2 1270  15.212   1.569  10.761 -0.2339  0.1182 -0.0489
   80loPI   C1A 1271  15.526   1.326  10.427 -0.1946 -0.0544  0.1719
   80loPI   C2A 1272  15.593   1.266  10.064  0.0070  0.0990 -0.0368
   80loPI   C3A 1273  15.690   1.307   9.660  0.0222  0.2760  0.0207
   80loPI   C4A 1274  15.683   1.344   9.225  0.0196 -0.1122 -0.2140
   80loPI   C5A 1275  15.635   1.401   8.757 -0.1614  0.1559 -0.0780
   80loPI   C6A 1276  15.555   1.535   8.307 -0.0862 -0.0165 -0.0924
   80loPI   C1B 1277  15.180   1.708  10.396 -0.0317 -0.1529  0.0298
   80loPI   C2B 1278  15.162   1.651   9.963 -0.1240 -0.1665  0.2000
   80loPI   C3B 1279  15.307   1.607   9.516 -0.1827  0.0236  0.0732
   80loPI   C4B 1280  15.376   1.696   9.084 -0.1514 -0.2141  0.1404
   81loPI    C1 1281  11.837   1.910  11.160 -0.2262  0.0849 -0.0143
   81loPI    C2 1282  11.607   2.107  11.422 -0.3394 -0.0882  0.0181
   81loPI    C3 1283  12.000   2.068  11.489 -0.3459 -0.0206  0.0969
   81loPI   PO4 1284  11.750   1.980  10.964 -0.0999  0.1141 -0.0595
   81loPI   GL1 1285  11.364   1.841  10.644 -0.1508 -0.1057  0.0367
   81loPI   GL2 1286  11.631   1.954  10.467 -0.2867  0.0133  0.3157
   81loPI   C1A 1287  11.238   1.543  10.334 -0.0309  0.2478 -0.2157
   81loPI   C2A 1288  11.293   1.405   9.867 -0.1638 -0.1872 -0.0412
   81loPI   C3A 1289  11.258   1.422   9.442  0.0037  0.2198  0.0336
   81loPI   C4A 1290  11.216   1.459   9.046  0.1082  0.1212 -0.1894
   81loPI   C5A 1291  11.207   1.597   8.687 -0.2112 -0.0477 -0.1428
   81loPI   C6A 1292  10.810   1.727   8.484 -0.1081 -0.1080 -0.0222
   81loPI   C1B 1293  11.338   1.951  10.057  0.0587  0.0043 -0.1566
   81loPI   C2B 1294  11.325   1.883   9.650 -0.1056 -0.0730 -0.0281
   81loPI   C3B 1295  11.342   1.939   9.261  0.2054  0.2167 -0.0800
   81loPI   C4B 1296  11.477   2.030   8.831  0.3239  0.1672  0.0658
   82loPI    C1 1297   6.234  11.449  11.315  0.0384  0.1154 -0.2405
   82loPI    C2 1298   5.905  11.677  11.317  0.0883  0.1872 -0.1297
   82loPI    C3 1299   6.135  11.655  11.644  0.0252 -0.1079 -0.1022
   82loPI   PO4 1300   6.279  11.528  11.076 -0.3059 -0.0119  0.0036
   82loPI   GL1 1301   6.289  11.525  10.584 -0.2214  0.0773  0.2257
   82loPI   GL2 1302   6.551  11.449  10.622  0.1000 -0.2873  0.2732
   82loPI   C1A 1303   6.289  11.529  10.177 -0.0607  0.0538 -0.3285
   82loPI   C2A 1304   6.268  11.493   9.717 -0.4101 -0.1634  0.2790
   82loPI   C3A 1305   6.372  11.588   9.315 -0.2832 -0.2126  0.0671
   82loPI   C4A 1306   6.250  11.616   8.910 -0.2951  0.1156 -0.1487
   82loPI   C5A 1307   5.980  11.822   8.661  0.3638 -0.2989 -0.1254
   82loPI   C6A 1308   5.623  12.047   8.393  0.1338 -0.1770  0.0266
   82loPI   C1B 1309   6.693  11.234  10.219  0.0259  0.1906  0.1481
   82loPI   C2B 1310   6.722  11.254   9.738 -0.0889 -0.0705 -0.5053
   82loPI   C3B 1311   6.663  11.176   9.386  0.1853  0.1364 -0.0304
   82loPI   C4B 1312   6.604  11.304   8.961 -0.0238 -0.3758 -0.0068
   83loPI    C1 1313  14.388  12.870  11.062  0.1797  0.1492  0.0183
   83loPI    C2 1314  14.128  12.670  11.292  0.1248 -0.0152 -0.1838
   83loPI    C3 1315  14.389  12.924  11.458  0.0034 -0.0389  0.0459
   83loPI   PO4 1316  14.267  12.965  10.896  0.1153  0.0504 -0.2154
   83loPI   GL1 1317  14.191  12.874  10.478 -0.0874 -0.1788  0.0271
   83loPI   GL2 1318  14.421  12.671  10.480  0.2493 -0.0088 -0.3095
   83loPI   C1A 1319  14.297  13.083  10.082 -0.2181 -0.1932  0.0055
   83loPI   C2A 1320  14.276  13.072   9.645 -0.2518  0.1179  0.2269
   83loPI   C3A 1321  14.313  13.069   9.246  0.0169  0.3417  0.1007
   83loPI   C4A 1322  14.188  13.038   8.761  0.0548 -0.1167  0.1415
   83loPI   C5A 1323  14.088  12.856   8.421 -0.1952 -0.3135  0.0821
   83loPI   C6A 1324  14.088  12.983   7.997  0.1543 -0.0522  0.0248
   83loPI   C1B 1325  14.315  12.581  10.091 -0.0817 -0.1135  0.1203
   83loPI   C2B 1326  14.225  12.537   9.644 -0.0484 -0.1327  0.3552
   83loPI   C3B 1327  14.303  12.571   9.207 -0.2749  0.2228 -0.1641
   83loPI   C4B 1328  14.075  12.540   8.825 -0.2188  0.2284 -0.0554
   84loPI    C1 1329  15.417  15.438  11.490 -0.0556  0.0874  0.0504
   84loPI    C2 1330  15.687  15.434  11.785 -0.0234  0.2683  0.0241
   84loPI    C3 1331  15.337  15.622  11.836 -0.0561  0.2192 -0.0192
   84loPI   PO4 1332  15.368  15.175  11.340  0.0980  0.2382  0.3502
   84loPI   GL1 1333  15.539  14.822  11.090 -0.1322 -0.2509  0.2831
   84loPI   GL2 1334  15.904  14.892  10.971  0.1008  0.3035  0.2223
   84loPI   C1A 1335  15.519  14.887  10.634  0.0471 -0.1616 -0.2141
   84loPI   C2A 1336  15.484  14.981  10.140 -0.2726 -0.1089 -0.0594
   84loPI   C3A 1337  15.498  15.015   9.671 -0.0987  0.1528 -0.1565
   84loPI   C4A 1338  15.459  15.070   9.286 -0.1209  0.1425  0.0545
   84loPI   C5A 1339  15.570  15.034   8.899  0.0118  0.0569 -0.1580
   84loPI   C6A 1340  15.532  14.964   8.486  0.1664 -0.2190  0.0964
   84loPI   C1B 1341  15.912  15.126  10.704  0.1352  0.1110  0.0962
   84loPI   C2B 1342  16.011  15.320  10.297  0.3158  0.4260 -0.0961
   84loPI   C3B 1343  15.985  15.285   9.876  0.0418  0.0012 -0.0772
   84loPI   C4B 1344  15.971  15.275   9.431 -0.1044 -0.2657  0.3068
   85loPI    C1 1345  14.538   5.878  10.961  0.0484  0.1592 -0.0304
   85loPI    C2 1346  14.595   6.043  11.320  0.0169  0.0558  0.0226
   85loPI    C3 1347  14.229   6.034  11.161  0.0122  0.0042  0.0364
   85loPI   PO4 1348  14.721   5.967  10.807 -0.0623 -0.1223 -0.1864
   85loPI   GL1 1349  14.815   6.092  10.495  0.0125 -0.0831 -0.0927
   85loPI   GL2 1350  14.552   5.944  10.370 -0.2010 -0.0908 -0.0292
   85loPI   C1A 1351  14.994   5.954  10.102 -0.0446 -0.3957 -0.0520
   85loPI   C2A 1352  14.939   5.945   9.711 -0.0320  0.0862  0.2943
   85loPI   C3A 1353  14.959   5.900   9.226  0.1887  0.0414  0.3924
   85loPI   C4A 1354  14.951   6.007   8.764  0.0411  0.0160 -0.0834
   85loPI   C5A 1355  14.912   6.087   8.369  0.4492  0.0641  0.0911
   85loPI   C6A 1356  14.723   6.306   8.044  0.1475  0.1602  0.2054
   85loPI   C1B 1357  14.491   5.875   9.969  0.0371 -0.0852 -0.2471
   85loPI   C2B 1358  14.513   5.885   9.460  0.1568 -0.0604 -0.0342
   85loPI   C3B 1359  14.509   5.783   8.959 -0.0323  0.0551  0.2827
   85loPI   C4B 1360  14.507   5.820   8.441 -0.0045  0.0362 -0.0992
   86loPI    C1 1361  12.134  12.108  11.317 -0.1086  0.0119 -0.0560
   86loPI    C2 1362  12.084  11.712  11.292  0.1061 -0.0300  0.1449
   86loPI    C3 1363  12.348  11.864  11.552  0.0782  0.2420  0.0167
   86loPI   PO4 1364  12.240  12.183  11.045  0.2457  0.2250  0.0665
   86loPI   GL1 1365  12.145  12.247  10.578  0.1366  0.2516  0.2538
   86loPI   GL2 1366  12.422  12.330  10.561  0.3586 -0.1308  0.0058
   86loPI   C1A 1367  11.834  12.193  10.184  0.3113  0.0696  0.0122
   86loPI   C2A 1368  11.812  12.211   9.836 -0.2524 -0.5047 -0.2649
   86loPI   C3A 1369  11.796  12.146   9.365  0.1088 -0.3802 -0.2508
   86loPI   C4A 1370  11.801  12.155   8.916 -0.0585  0.0825  0.1551
   86loPI   C5A 1371  11.936  12.031   8.491  0.0372 -0.2243  0.2536
   86loPI   C6A 1372  12.247  11.806   8.259  0.0152 -0.3491 -0.1064
   86loPI   C1B 1373  12.385  12.456  10.096 -0.0273 -0.3006  0.2419
   86loPI   C2B 1374  12.367  12.466   9.590  0.3522  0.0493 -0.2322
   86loPI   C3B 1375  12.466  12.358   9.237  0.1940  0.1413  0.2127
   86loPI   C4B 1376  12.261  12.299   8.823 -0.0774 -0.0640 -0.0858
   87loPI    C1 1377  16.998   0.371  11.824  0.0917  0.0191 -0.0915
   87loPI    C2 1378  17.238   0.688  11.866 -0.0908  0.1124  0.2828
   87loPI    C3 1379  16.903   0.660  12.083 -0.2518 -0.1753  0.0054
   87loPI   PO4 1380  17.089   0.311  11.510  0.1474  0.0494 -0.0580
   87loPI   GL1 1381  17.133   0.415  11.013  0.2096  0.1737 -0.1409
   87loPI   GL2 1382  17.299   0.205  11.019  0.0421 -0.1229  0.1126
   87loPI   C1A 1383  17.234   0.471  10.564  0.1778  0.1226 -0.3099
   87loPI   C2A 1384  17.251   0.558  10.181  0.1454 -0.0751 -0.0411
   87loPI   C3A 1385  17.250   0.542   9.787 -0.1563  0.0513  0.2292
   87loPI   C4A 1386  17.261   0.482   9.345 -0.2220  0.3326  0.2215
   87loPI   C5A 1387  17.327   0.308   8.897  0.2211  0.3481  0.0148
   87loPI   C6A 1388  17.131   0.462   8.525  0.1122 -0.1439 -0.0305
   87loPI   C1B 1389  17.173   0.011  10.617 -0.0521 -0.1060  0.1142
   87loPI   C2B 1390  17.181   0.069  10.178  0.0284  0.2045 -0.1298
   87loPI   C3B 1391  17.244   0.039   9.782 -0.0073  0.1430  0.1705
   87loPI   C4B 1392  17.347  -0.007   9.251  0.2550  0.2242 -0.2264
   88loPI    C1 1393   3.558   9.513  11.143 -0.0704 -0.0620 -0.1835
   88loPI    C2 1394   3.323   9.326  11.407 -0.1800  0.1511 -0.1274
   88loPI    C3 1395   3.459   9.694  11.486  0.1741  0.0311 -0.1602
   88loPI   PO4 1396   3.464   9.412  10.900 -0.1670  0.0296  0.0107
   88loPI   GL1 1397   3.185   9.557  10.560  0.3245 -0.4596 -0.0963
   88loPI   GL2 1398   2.966   9.506  10.340 -0.0495  0.0484  0.0872
   88loPI   C1A 1399   3.380   9.793  10.291 -0.0142 -0.1037 -0.1763
   88loPI   C2A 1400   3.593   9.703   9.893  0.1728  0.2302  0.1901
   88loPI   C3A 1401   3.575   9.659   9.348 -0.2252 -0.0060 -0.3393
   88loPI   C4A 1402   3.585   9.670   8.991  0.0234  0.1349  0.1697
   88loPI   C5A 1403   3.729   9.607   8.594  0.1833 -0.0950  0.1277
   88loPI   C6A 1404   3.698   9.364   8.209 -0.1522 -0.0965  0.1448
   88loPI   C1B 1405   3.002   9.604   9.985 -0.0568  0.0991  0.0421
   88loPI   C2B 1406   3.103   9.596   9.589 -0.0870  0.0516 -0.2712
   88loPI   C3B 1407   3.104   9.553   9.108 -0.1098  0.1344 -0.1914
   88loPI   C4B 1408   3.175   9.518   8.632  0.0138 -0.1719  0.0403
   89loPI    C1 1409  11.596   9.840  10.873  0.0375  0.0909  0.0279
   89loPI    C2 1410  11.351  10.127  11.006  0.1245  0.1630  0.0335
   89loPI    C3 1411  11.662  10.010  11.229  0.2130  0.2150 -0.0622
   89loPI   PO4 1412  11.579   9.898  10.630 -0.1066 -0.0606 -0.0377
   89loPI   GL1 1413  11.394   9.664  10.359 -0.0863 -0.2004  0.0764
   89loPI   GL2 1414  11.269   9.406  10.460 -0.2674 -0.4160  0.0647
   89loPI   C1A 1415  11.402   9.657   9.906  0.0728 -0.1598 -0.0679
   89loPI   C2A 1416  11.352   9.611   9.450 -0.1078  0.2600  0.0339
   89loPI   C3A 1417  11.383   9.603   9.027 -0.0596 -0.1279 -0.1129
   89loPI   C4A 1418  11.472   9.591   8.632  0.2099  0.1017  0.0788
   89loPI   C5A 1419  11.280   9.657   8.208  0.1028  0.1475  0.2480
   89loPI   C6A 1420  11.065   9.652   7.877  0.1914 -0.2274  0.1454
   89loPI   C1B 1421  10.998   9.350  10.053  0.1702 -0.0175  0.2234
   89loPI   C2B 1422  10.980   9.397   9.584  0.1621 -0.0794  0.3018
   89loPI   C3B 1423  10.933   9.460   9.087  0.0032  0.1565 -0.1641
   89loPI   C4B 1424  10.935   9.548   8.648 -0.1198 -0.1893  0.2435
   90loPI    C1 1425   6.065   5.861  11.367  0.0914  0.0668 -0.0402
   90loPI    C2 1426   6.084   5.931  11.760  0.0368  0.2114 -0.0624
   90loPI    C3 1427   5.833   5.653  11.618  0.3105 -0.0916  0.0333
   90loPI   PO4 1428   6.222   5.880  11.152 -0.0300  0.4594 -0.1400
   90loPI   GL1 1429   6.297   5.650  10.798  0.0506  0.2510  0.3329
   90loPI   GL2 1430   6.282   5.874  10.571  0.2972 -0.1474  0.2362
   90loPI   C1A 1431   6.043   5.381  10.551 -0.0529 -0.0984  0.0195
   90loPI   C2A 1432   5.967   5.278  10.181 -0.0662 -0.3037  0.0042
   90loPI   C3A 1433   5.977   5.291   9.730 -0.0662  0.2741  0.1518
   90loPI   C4A 1434   6.008   5.263   9.285 -0.1364 -0.3027  0.2233
   90loPI   C5A 1435   5.990   5.298   8.795 -0.1247  0.2287 -0.2464
   90loPI   C6A 1436   5.957   5.020   8.531 -0.0425 -0.1640 -0.1813
   90loPI   C1B 1437   6.065   5.820  10.194 -0.1011  0.3547  0.0970
   90loPI   C2B 1438   6.086   5.875   9.909 -0.1462 -0.0949 -0.1283
   90loPI   C3B 1439   6.086   5.819   9.456  0.1511 -0.1816  0.2936
   90loPI   C4B 1440   6.151   5.726   9.082 -0.0700 -0.0260 -0.1056
   91loPI    C1 1441   2.050   7.783  10.691 -0.2092 -0.2782 -0.0531
   91loPI    C2 1442   2.079   8.154  10.839  0.0219 -0.2036 -0.2769
   91loPI    C3 1443   2.031   7.843  11.086  0.1746 -0.0597 -0.0623
   91loPI   PO4 1444   2.229   7.749  10.558  0.0475 -0.0368 -0.0166
   91loPI   GL1 1445   2.531   7.830  10.161 -0.1760  0.0431  0.1600
   91loPI   GL2 1446   2.677   7.591  10.059 -0.1764  0.1550 -0.0733
   91loPI   C1A 1447   2.786   8.043   9.834  0.0751  0.0662  0.0139
   91loPI   C2A 1448   2.709   7.990   9.410 -0.0618  0.4132  0.0042
   91loPI   C3A 1449   2.665   8.036   8.959  0.0873  0.0938 -0.1283
   91loPI   C4A 1450   2.817   7.968   8.596  0.0309 -0.1493  0.0948
   91loPI   C5A 1451   3.113   8.084   8.315  0.1050  0.1713 -0.0431
   91loPI   C6A 1452   3.396   8.249   8.003  0.0468  0.0769 -0.1455
   91loPI   C1B 1453   2.638   7.517   9.677 -0.1954  0.2596  0.2787
   91loPI   C2B 1454   2.700   7.482   9.223 -0.0032  0.4479  0.0430
   91loPI   C3B 1455   2.698   7.563   8.828 -0.2187 -0.0163  0.0253
   91loPI   C4B 1456   2.653   7.431   8.437  0.0116  0.0210  0.0178
   92loPI    C1 1457   4.440   9.804  11.031  0.1137 -0.0192 -0.0580
   92loPI    C2 1458   4.547   9.557  11.328  0.0479 -0.1702 -0.1585
   92loPI    C3 1459   4.516   9.950  11.396  0.0171 -0.2058  0.0387
   92loPI   PO4 1460   4.400   9.544  10.824 -0.2500  0.0706  0.0009
   92loPI   GL1 1461   4.639   9.358  10.450 -0.2526  0.0862 -0.0630
   92loPI   GL2 1462   4.648   9.042  10.473 -0.0057 -0.1412  0.0602
   92loPI   C1A 1463   4.485   9.477   9.968 -0.1004  0.2792 -0.0504
   92loPI   C2A 1464   4.533   9.587   9.481  0.2482 -0.0927 -0.1220
   92loPI   C3A 1465   4.453   9.450   9.056  0.0306 -0.0683  0.0347
   92loPI   C4A 1466   4.441   9.441   8.615  0.0035 -0.1911 -0.3695
   92loPI   C5A 1467   4.463   9.302   8.274  0.2518 -0.1219  0.0506
   92loPI   C6A 1468   4.207   8.848   8.112  0.2641 -0.0375 -0.1383
   92loPI   C1B 1469   4.338   9.067  10.138  0.0226 -0.3866  0.1576
   92loPI   C2B 1470   4.353   9.043   9.700  0.1449  0.0135  0.1178
   92loPI   C3B 1471   4.300   8.998   9.206  0.1245 -0.0410  0.2233
   92loPI   C4B 1472   4.344   8.967   8.786  0.1896  0.1762  0.0899
   93loPI    C1 1473  14.419  11.570  11.164  0.0998 -0.0175  0.0468
   93loPI    C2 1474  14.139  11.296  11.244 -0.0643  0.0944 -0.1339
   93loPI    C3 1475  14.308  11.503  11.542  0.0262 -0.1666 -0.0005
   93loPI   PO4 1476  14.363  11.614  10.916 -0.3102 -0.0661  0.0451
   93loPI   GL1 1477  14.056  11.524  10.511 -0.1528  0.0905  0.1688
   93loPI   GL2 1478  14.394  11.403  10.411 -0.2454  0.0255  0.2339
   93loPI   C1A 1479  14.093  11.553  10.078  0.0364 -0.1677  0.3149
   93loPI   C2A 1480  14.057  11.601   9.703  0.2033 -0.1452  0.0492
   93loPI   C3A 1481  14.000  11.568   9.199  0.1246 -0.1387 -0.1432
   93loPI   C4A 1482  14.010  11.555   8.835 -0.4775 -0.0227  0.0343
   93loPI   C5A 1483  14.003  11.304   8.521 -0.1417  0.4685  0.3961
   93loPI   C6A 1484  14.292  11.095   8.233  0.1563 -0.2802 -0.0562
   93loPI   C1B 1485  14.480  11.270   9.992 -0.1645  0.2313 -0.0409
   93loPI   C2B 1486  14.502  11.176   9.528 -0.1636 -0.0704  0.1586
   93loPI   C3B 1487  14.360  11.241   9.111  0.0324 -0.0783 -0.1586
   93loPI   C4B 1488  14.431  11.148   8.686  0.2258 -0.2010 -0.1467
   94loPI    C1 1489   7.153  10.611  11.078 -0.2207  0.0355  0.1864
   94loPI    C2 1490   6.988  10.280  10.927 -0.0330  0.0740 -0.1096
   94loPI    C3 1491   7.102  10.289  11.310  0.0095 -0.2220 -0.1126
   94loPI   PO4 1492   7.333  10.670  10.930  0.1299  0.1125 -0.0609
   94loPI   GL1 1493   7.389  10.391  10.564 -0.0982 -0.2825 -0.0592
   94loPI   GL2 1494   7.138  10.481  10.492  0.0616  0.1152 -0.4707
   94loPI   C1A 1495   7.551  10.612  10.262 -0.0563  0.1626 -0.0349
   94loPI   C2A 1496   7.531  10.616   9.794  0.2012  0.2073 -0.0755
   94loPI   C3A 1497   7.447  10.561   9.479  0.1183 -0.0690 -0.1918
   94loPI   C4A 1498   7.435  10.502   9.043 -0.0227 -0.2063  0.1636
   94loPI   C5A 1499   7.426  10.457   8.622 -0.1483 -0.1392  0.3683
   94loPI   C6A 1500   7.313  10.583   8.166 -0.3594 -0.3047  0.0244
   94loPI   C1B 1501   7.047  10.474  10.085  0.0851 -0.1622  0.0313
   94loPI   C2B 1502   6.978  10.382   9.637 -0.2022  0.0264  0.0224
   94loPI   C3B 1503   6.926  10.342   9.228 -0.1954 -0.0383  0.1484
   94loPI   C4B 1504   6.965  10.381   8.842 -0.0747 -0.1958 -0.1975
   95loPI    C1 1505   4.643  14.142  11.330 -0.0197 -0.0613  0.0679
   95loPI    C2 1506   4.754  14.454  11.106  0.0381 -0.1964 -0.0928
   95loPI    C3 1507   5.004  14.306  11.381 -0.0814  0.0498  0.1527
   95loPI   PO4 1508   4.462  13.991  11.182 -0.2265 -0.0796  0.0598
   95loPI   GL1 1509   4.636  13.816  10.806  0.0239 -0.2094  0.2077
   95loPI   GL2 1510   4.819  14.039  10.809  0.1982  0.1782 -0.1475
   95loPI   C1A 1511   4.404  13.739  10.405 -0.1215  0.1148 -0.1768
   95loPI   C2A 1512   4.362  13.792  10.009  0.0685  0.1271 -0.1999
   95loPI   C3A 1513   4.390  13.684   9.576 -0.3494  0.2080 -0.1723
   95loPI   C4A 1514   4.359  13.625   9.146  0.2626  0.2058  0.2155
   95loPI   C5A 1515   4.421  13.886   8.775  0.0999 -0.0323  0.0748
   95loPI   C6A 1516   4.370  13.995   8.372 -0.1860  0.2884  0.0556
   95loPI   C1B 1517   4.839  13.979  10.368  0.0061  0.3096  0.1357
   95loPI   C2B 1518   4.889  13.985   9.989  0.1103  0.1387  0.1632
   95loPI   C3B 1519   4.814  13.925   9.610 -0.0152 -0.4376 -0.1264
   95loPI   C4B 1520   4.770  13.884   9.143  0.1406 -0.1246 -0.2197
   96loPI    C1 1521   9.953   2.664  10.864 -0.1139  0.0360 -0.1009
   96loPI    C2 1522   9.848   3.046  10.814 -0.2747  0.0196  0.1010
   96loPI    C3 1523   9.946   2.911  11.178 -0.0447 -0.0894  0.0004
   96loPI   PO4 1524   9.800   2.532  10.759 -0.3916 -0.0536  0.0408
   96loPI   GL1 1525   9.645   2.216  10.552 -0.1654  0.1714  0.0027
   96loPI   GL2 1526   9.953   2.132  10.456  0.0283 -0.0058 -0.2616
   96loPI   C1A 1527   9.523   2.306  10.128 -0.0904  0.1700  0.1105
   96loPI   C2A 1528   9.593   2.304   9.628  0.0413 -0.0876  0.0513
   96loPI   C3A 1529   9.525   2.205   9.327  0.1584 -0.2171 -0.0775
   96loPI   C4A 1530   9.584   2.295   8.981 -0.0327  0.0480 -0.3061
   96loPI   C5A 1531   9.508   2.220   8.553 -0.0667  0.0619  0.0482
   96loPI   C6A 1532   9.445   2.471   8.137  0.0290 -0.0402  0.2063
   96loPI   C1B 1533   9.968   1.942  10.036 -0.1420  0.0531  0.2706
   96loPI   C2B 1534   9.905   1.975   9.564 -0.0459  0.1741 -0.0746
   96loPI   C3B 1535   9.973   1.979   9.115  0.4267  0.0022  0.1939
   96loPI   C4B 1536  10.004   1.950   8.639 -0.1265 -0.4518 -0.3457
   97loPI    C1 1537  12.844   8.878  10.896  0.1452 -0.2360 -0.0733
   97loPI    C2 1538  12.969   8.747  11.253  0.2211  0.0900  0.0230
   97loPI    C3 1539  12.660   9.000  11.229  0.1183 -0.0498 -0.1554
   97loPI   PO4 1540  13.036   8.966  10.722 -0.1488 -0.1385 -0.0740
   97loPI   GL1 1541  12.775   9.137  10.406 -0.0341 -0.0411  0.0492
   97loPI   GL2 1542  12.429   9.089  10.301 -0.1487 -0.1118  0.0923
   97loPI   C1A 1543  12.839   9.127  10.038  0.0634  0.1078  0.0543
   97loPI   C2A 1544  12.696   9.082   9.552 -0.0052  0.2243  0.0086
   97loPI   C3A 1545  12.680   9.139   9.113 -0.4771 -0.3665  0.0551
   97loPI   C4A 1546  12.876   9.093   8.711  0.2715  0.3605  0.3067
   97loPI   C5A 1547  13.067   9.001   8.331 -0.1040  0.0814  0.1915
   97loPI   C6A 1548  13.351   8.746   8.295 -0.0787  0.0386  0.2699
   97loPI   C1B 1549  12.323   8.960   9.886  0.1331  0.0355 -0.2644
   97loPI   C2B 1550  12.218   8.980   9.446 -0.0839  0.0964  0.0405
   97loPI   C3B 1551  12.212   8.921   9.009 -0.2653 -0.1124  0.0375
   97loPI   C4B 1552  12.388   8.878   8.552 -0.1844 -0.2013 -0.0980
   98loPI    C1 1553  10.748   6.297  10.908  0.4002 -0.1381  0.1451
   98loPI    C2 1554  10.750   6.453  11.276 -0.0561 -0.0607  0.1203
   98loPI    C3 1555  10.629   6.076  11.220  0.0786 -0.0949  0.0571
   98loPI   PO4 1556  10.813   6.543  10.731  0.1893 -0.0063 -0.0391
   98loPI   GL1 1557  10.671   6.740  10.308  0.0656 -0.1319 -0.0346
   98loPI   GL2 1558  10.991   6.908  10.310 -0.3177  0.1813 -0.0601
   98loPI   C1A 1559  10.594   6.778   9.853 -0.1847 -0.0599  0.0179
   98loPI   C2A 1560  10.574   6.822   9.329 -0.1126  0.0662 -0.0472
   98loPI   C3A 1561  10.517   6.885   8.929  0.0067 -0.1199 -0.0475
   98loPI   C4A 1562  10.488   6.655   8.533 -0.2844  0.0615  0.0876
   98loPI   C5A 1563  10.296   6.307   8.312  0.0393  0.1700  0.1818
   98loPI   C6A 1564  10.074   6.009   8.094  0.0145 -0.3229 -0.1534
   98loPI   C1B 1565  11.143   6.947   9.857  0.4118  0.2927  0.0253
   98loPI   C2B 1566  11.053   6.883   9.482  0.0348  0.1429  0.0582
   98loPI   C3B 1567  11.082   7.058   9.111  0.2341  0.1974  0.1000
   98loPI   C4B 1568  10.945   7.164   8.624  0.3418  0.1054  0.0306
   99loPI    C1 1569   8.869   0.504  11.222 -0.0549  0.2419  0.0889
   99loPI    C2 1570   9.264   0.445  11.226 -0.0582  0.1686 -0.3148
   99loPI    C3 1571   9.118   0.817  11.234  0.0090  0.1905  0.1117
   99loPI   PO4 1572   8.666   0.318  11.028 -0.2019  0.2471 -0.2082
   99loPI   GL1 1573   8.796   0.287  10.538  0.0293  0.1056 -0.2195
   99loPI   GL2 1574   8.492   0.208  10.547  0.0591  0.3195  0.0516
   99loPI   C1A 1575   8.829   0.471  10.153  0.0820  0.1229 -0.3183
   99loPI   C2A 1576   8.739   0.566   9.738  0.1948  0.0590 -0.0808
   99loPI   C3A 1577   8.726   0.605   9.372  0.2121  0.2003  0.0388
   99loPI   C4A 1578   8.849   0.652   8.949  0.3142  0.2443  0.2208
   99loPI   C5A 1579   9.039   0.648   8.664  0.2750 -0.0405  0.0785
   99loPI   C6A 1580   9.278   0.561   8.254 -0.2627  0.0888  0.0284
   99loPI   C1B 1581   8.352   0.304  10.113 -0.3105 -0.2998 -0.1036
   99loPI   C2B 1582   8.260   0.430   9.678 -0.1232 -0.0632 -0.1097
   99loPI   C3B 1583   8.266   0.425   9.247  0.0943 -0.1666  0.1574
   99loPI   C4B 1584   8.361   0.404   8.864 -0.2338 -0.0131 -0.1107
  100loPI    C1 1585  11.188   6.466  10.998  0.0338 -0.0825 -0.1426
  100loPI    C2 1586  11.202   6.103  11.165 -0.2633 -0.0370 -0.0136
  100loPI    C3 1587  11.234   6.430  11.393 -0.2442  0.0212 -0.0991
  100loPI   PO4 1588  11.347   6.460  10.802 -0.0361 -0.1055  0.2007
  100loPI   GL1 1589  11.334   6.553  10.434  0.0017 -0.2541 -0.2844
  100loPI   GL2 1590  11.122   6.431  10.338 -0.0092 -0.1799  0.1301
  100loPI   C1A 1591  11.559   6.545  10.008 -0.4472  0.1457  0.2691
  100loPI   C2A 1592  11.523   6.578   9.561  0.0854 -0.1091 -0.1103
  100loPI   C3A 1593  11.521   6.687   9.146 -0.1328 -0.0469  0.3578
  100loPI   C4A 1594  11.412   6.770   8.610 -0.0426  0.0098  0.0095
  100loPI   C5A 1595  11.357   6.594   8.212  0.2815 -0.0238  0.0513
  100loPI   C6A 1596  11.433   6.233   7.962  0.1290 -0.2091  0.2065
  100loPI   C1B 1597  11.107   6.433   9.821 -0.0879  0.0817  0.0298
  100loPI   C2B 1598  11.034   6.450   9.457  0.1273 -0.1246  0.0936
  100loPI   C3B 1599  10.975   6.561   8.927  0.3313 -0.1428  0.0347
  100loPI   C4B 1600  10.952   6.642   8.428 -0.1149 -0.1750 -0.1826
  101loPI    C1 1601   8.155   4.912  10.812  0.1711 -0.2734  0.0568
  101loPI    C2 1602   8.520   4.850  10.962  0.2633  0.2727  0.0810
  101loPI    C3 1603   8.209   4.900  11.208  0.1896 -0.0665  0.0618
  101loPI   PO4 1604   8.185   4.958  10.611 -0.2153 -0.1071  0.0124
  101loPI   GL1 1605   8.211   4.830  10.263 -0.0474  0.3371  0.2676
  101loPI   GL2 1606   8.172   5.082  10.112  0.1039  0.1356 -0.0090
  101loPI   C1A 1607   8.094   4.661   9.891 -0.0377  0.3636 -0.0083
  101loPI   C2A 1608   8.151   4.659   9.460 -0.1291 -0.1134  0.1786
  101loPI   C3A 1609   8.107   4.644   8.998  0.2851 -0.1707 -0.1699
  101loPI   C4A 1610   8.303   4.494   8.600  0.0523  0.0013  0.0818
  101loPI   C5A 1611   8.421   4.517   8.187  0.0851 -0.1147 -0.0849
  101loPI   C6A 1612   8.773   4.268   8.059 -0.2046 -0.1803  0.2698
  101loPI   C1B 1613   8.298   5.057   9.725  0.0007 -0.2782  0.1218
  101loPI   C2B 1614   8.268   5.115   9.283 -0.0057  0.3247  0.1837
  101loPI   C3B 1615   8.366   5.061   8.806  0.0076 -0.0758  0.2459
  101loPI   C4B 1616   8.416   4.991   8.383 -0.2307  0.1533 -0.4278
  102loPI    C1 1617  14.640   1.667  11.509 -0.1894 -0.1601  0.0483
  102loPI    C2 1618  14.248   1.738  11.547 -0.1825  0.0418 -0.2226
  102loPI    C3 1619  14.426   1.468  11.782 -0.4854 -0.0615 -0.1065
  102loPI   PO4 1620  14.686   1.845  11.337 -0.0302 -0.2063 -0.1560
  102loPI   GL1 1621  14.784   1.793  10.921 -0.2510  0.1199  0.2245
  102loPI   GL2 1622  14.717   1.530  10.755  0.0138  0.0855 -0.2383
  102loPI   C1A 1623  14.755   1.956  10.444  0.1728 -0.0493  0.0225
  102loPI   C2A 1624  14.807   1.986  10.051  0.0580 -0.1054  0.0236
  102loPI   C3A 1625  14.833   1.924   9.650  0.0433  0.1547  0.2487
  102loPI   C4A 1626  14.935   1.918   9.216 -0.2549  0.1058 -0.1089
  102loPI   C5A 1627  14.885   1.943   8.797  0.1292 -0.1595 -0.1894
  102loPI   C6A 1628  14.812   1.888   8.341 -0.0697  0.0356 -0.1391
  102loPI   C1B 1629  14.695   1.510  10.288 -0.1450  0.0729 -0.2141
  102loPI   C2B 1630  14.719   1.474   9.899  0.4418  0.1307 -0.0038
  102loPI   C3B 1631  14.701   1.436   9.384  0.3419  0.0216 -0.2005
  102loPI   C4B 1632  14.865   1.472   8.988 -0.0506  0.0233  0.0990
  103loPI    C1 1633   1.655   1.066  11.638  0.0881 -0.2236 -0.3264
  103loPI    C2 1634   1.644   0.720  11.838 -0.0617 -0.0468 -0.0201
  103loPI    C3 1635   1.821   1.039  12.001 -0.1212  0.0819 -0.2035
  103loPI   PO4 1636   1.685   0.984  11.416 -0.1874 -0.1422 -0.0521
  103loPI   GL1 1637   1.596   0.958  11.054  0.1560  0.5001 -0.0185
  103loPI   GL2 1638   1.344   0.741  11.049 -0.1038  0.1699 -0.0409
  103loPI   C1A 1639   1.519   0.818  10.534 -0.5191  0.2899  0.1355
  103loPI   C2A 1640   1.438   0.759  10.068  0.1689 -0.3946 -0.1510
  103loPI   C3A 1641   1.622   0.672   9.678  0.0438 -0.2071 -0.1242
  103loPI   C4A 1642   1.695   0.760   9.255 -0.0253 -0.1133  0.3951
  103loPI   C5A 1643   1.638   0.747   8.844  0.1343  0.0692  0.1635
  103loPI   C6A 1644   1.740   0.614   8.426 -0.0709  0.0317  0.0719
  103loPI   C1B 1645   1.080   0.649  10.632 -0.3341  0.0917 -0.2963
  103loPI   C2B 1646   0.985   0.650  10.164  0.2143 -0.0836  0.0563
  103loPI   C3B 1647   1.030   0.611   9.726  0.0812  0.2010 -0.0680
  103loPI   C4B 1648   0.993   0.618   9.237 -0.0997 -0.0938 -0.0143
  104loPI    C1 1649   8.077  15.720  11.244  0.1118 -0.1044  0.1044
  104loPI    C2 1650   8.261  15.653  10.895  0.0884  0.0175  0.0681
  104loPI    C3 1651   8.298  15.390  11.195  0.1611 -0.0556 -0.0045
  104loPI   PO4 1652   7.836  15.852  11.179  0.0905 -0.2409 -0.0049
  104loPI   GL1 1653   7.674  15.911  10.692 -0.1864 -0.0860  0.3647
  104loPI   GL2 1654   7.936  15.910  10.630  0.0226 -0.0170  0.0993
  104loPI   C1A 1655   7.602  16.276  10.237 -0.0278  0.3117  0.0323
  104loPI   C2A 1656   7.548  16.384   9.808 -0.1376  0.2448  0.0499
  104loPI   C3A 1657   7.645  16.466   9.321  0.2377  0.0408 -0.0975
  104loPI   C4A 1658   7.577  16.450   8.866  0.2378  0.1327 -0.2246
  104loPI   C5A 1659   7.424  16.514   8.432 -0.0030  0.0869 -0.1511
  104loPI   C6A 1660   7.731  16.803   8.435  0.0297  0.0048  0.0126
  104loPI   C1B 1661   7.980  15.920  10.168  0.0710  0.0561 -0.1976
  104loPI   C2B 1662   7.960  16.042   9.674  0.2872  0.0132 -0.1983
  104loPI   C3B 1663   8.023  16.132   9.323  0.1101  0.3013 -0.1623
  104loPI   C4B 1664   8.013  16.145   8.979  0.0055 -0.2750  0.2769
  105loPI    C1 1665  12.363   3.622  10.708  0.2673 -0.0740  0.0001
  105loPI    C2 1666  12.166   3.298  10.834  0.2033 -0.0293  0.0151
  105loPI    C3 1667  12.082   3.656  10.990  0.1801  0.0145 -0.0969
  105loPI   PO4 1668  12.391   3.619  10.405 -0.1258  0.1968 -0.2993
  105loPI   GL1 1669  12.275   3.533  10.004 -0.1174  0.2165  0.0539
  105loPI   GL2 1670  12.567   3.294  10.004  0.3454 -0.0324 -0.2648
  105loPI   C1A 1671  12.291   3.536   9.629  0.1766 -0.0170  0.0779
  105loPI   C2A 1672  12.288   3.507   9.286 -0.0429 -0.1085 -0.3091
  105loPI   C3A 1673  12.164   3.637   8.941 -0.2254 -0.1222  0.0367
  105loPI   C4A 1674  12.202   3.749   8.524  0.0791  0.0235 -0.0952
  105loPI   C5A 1675  12.017   3.467   8.196 -0.0540 -0.4391  0.1374
  105loPI   C6A 1676  11.717   3.129   8.109 -0.1235 -0.0512 -0.1803
  105loPI   C1B 1677  12.732   3.106   9.628 -0.1963 -0.3297 -0.0945
  105loPI   C2B 1678  12.750   3.114   9.189 -0.0867 -0.0254  0.0176
  105loPI   C3B 1679  12.571   3.346   8.856  0.2044 -0.0851  0.2079
  105loPI   C4B 1680  12.446   3.370   8.405 -0.5124  0.1071  0.0846
  106loPI    C1 1681   3.529   5.111  11.128 -0.3130  0.1919  0.0062
  106loPI    C2 1682   3.271   4.936  11.378 -0.0744 -0.4343 -0.1658
  106loPI    C3 1683   3.627   5.059  11.512 -0.3289  0.1559  0.0054
  106loPI   PO4 1684   3.591   4.901  10.915  0.0722 -0.0808 -0.0864
  106loPI   GL1 1685   3.765   4.886  10.548  0.4076 -0.1037 -0.0691
  106loPI   GL2 1686   3.550   4.865  10.391  0.0372  0.2906 -0.1897
  106loPI   C1A 1687   4.024   4.642  10.237  0.0269 -0.1254  0.0756
  106loPI   C2A 1688   4.083   4.575   9.869  0.2285 -0.2076  0.0809
  106loPI   C3A 1689   4.074   4.593   9.483  0.4322  0.1446  0.1451
  106loPI   C4A 1690   4.117   4.546   9.207  0.1791  0.2219 -0.1867
  106loPI   C5A 1691   4.101   4.580   8.789 -0.0582  0.2236 -0.0800
  106loPI   C6A 1692   4.021   4.425   8.529  0.0352 -0.3449 -0.5206
  106loPI   C1B 1693   3.699   4.882  10.032 -0.3055  0.0113 -0.1698
  106loPI   C2B 1694   3.675   4.905   9.637 -0.1220 -0.0251 -0.0063
  106loPI   C3B 1695   3.671   4.831   9.248  0.1651 -0.0348 -0.2875
  106loPI   C4B 1696   3.673   4.868   8.717 -0.2985  0.1442 -0.0474
  107loPI    C1 1697   6.900   9.116  11.139  0.0265  0.1452  0.0079
  107loPI    C2 1698   7.139   8.799  11.091 -0.1812 -0.0016 -0.0733
  107loPI    C3 1699   6.973   8.873  11.447  0.1487  0.2212  0.0397
  107loPI   PO4 1700   6.744   9.093  10.974  0.1523 -0.0650  0.0193
  107loPI   GL1 1701   6.870   9.157  10.589  0.1240 -0.1204 -0.2139
  107loPI   GL2 1702   7.175   9.027  10.523 -0.0423  0.3697 -0.0413
  107loPI   C1A 1703   6.766   9.391  10.150  0.1589 -0.1256  0.0652
  107loPI   C2A 1704   6.793   9.389   9.631 -0.1136  0.0101 -0.1193
  107loPI   C3A 1705   6.677   9.482   9.190 -0.4089  0.0474 -0.0937
  107loPI   C4A 1706   6.655   9.326   8.812  0.3868  0.0942 -0.1134
  107loPI   C5A 1707   6.954   9.388   8.478  0.1360  0.3086  0.3947
  107loPI   C6A 1708   7.256   9.066   8.446  0.0450 -0.1785  0.0655
  107loPI   C1B 1709   7.226   9.037  10.152 -0.0754  0.0050 -0.5094
  107loPI   C2B 1710   7.323   9.040   9.703  0.2406  0.0680 -0.0385
  107loPI   C3B 1711   7.276   9.051   9.329  0.0822 -0.3329  0.2291
  107loPI   C4B 1712   7.247   9.008   8.991  0.0380  0.0573  0.2974
  108loPI    C1 1713   4.655   6.544  11.065 -0.1420 -0.1243  0.0523
  108loPI    C2 1714   4.525   6.835  10.823  0.1509 -0.0431 -0.0110
  108loPI    C3 1715   4.586   6.910  11.211 -0.0487 -0.0987  0.0326
  108loPI   PO4 1716   4.797   6.441  10.849 -0.0629  0.0930  0.0024
  108loPI   GL1 1717   4.649   6.399  10.462  0.1470 -0.0380 -0.2791
  108loPI   GL2 1718   4.407   6.556  10.364  0.0863 -0.1626 -0.0455
  108loPI   C1A 1719   4.825   6.242  10.120  0.2422 -0.2420 -0.0777
  108loPI   C2A 1720   4.818   6.283   9.753 -0.0296  0.1727  0.2724
  108loPI   C3A 1721   4.806   6.320   9.272 -0.1828 -0.0444 -0.0970
  108loPI   C4A 1722   4.802   6.248   8.864  0.0519 -0.0121 -0.0429
  108loPI   C5A 1723   4.866   6.290   8.497  0.0851  0.0260  0.1836
  108loPI   C6A 1724   4.990   6.418   8.032  0.0955 -0.3233  0.2630
  108loPI   C1B 1725   4.427   6.596   9.987 -0.2230 -0.2128 -0.0255
  108loPI   C2B 1726   4.434   6.641   9.565 -0.0213 -0.2440  0.2609
  108loPI   C3B 1727   4.364   6.659   9.186 -0.0293  0.0213  0.2571
  108loPI   C4B 1728   4.467   6.644   8.786 -0.0937 -0.0154 -0.1139
  109loPI    C1 1729   9.731   7.156  10.693 -0.0036  0.0997 -0.0056
  109loPI    C2 1730   9.852   7.181  11.074  0.0723 -0.0558 -0.0188
  109loPI    C3 1731  10.109   7.069  10.788 -0.0623 -0.2376 -0.0701
  109loPI   PO4 1732   9.460   7.229  10.643  0.2434  0.0647  0.2513
  109loPI   GL1 1733   9.298   7.343  10.243 -0.1962  0.1716 -0.2614
  109loPI   GL2 1734   9.077   7.502  10.371 -0.2132  0.1080 -0.0492
  109loPI   C1A 1735   9.395   7.374   9.867  0.1160 -0.0413  0.1523
  109loPI   C2A 1736   9.277   7.315   9.479  0.2848  0.1455 -0.0328
  109loPI   C3A 1737   9.188   7.410   9.090 -0.0307 -0.3228  0.0060
  109loPI   C4A 1738   9.249   7.425   8.632 -0.1026 -0.1627 -0.2142
  109loPI   C5A 1739   9.359   7.359   8.176  0.1295  0.1186  0.0465
  109loPI   C6A 1740   9.204   7.508   7.769  0.0969  0.1355 -0.2966
  109loPI   C1B 1741   8.892   7.299  10.012 -0.1477 -0.1193  0.0258
  109loPI   C2B 1742   8.774   7.201   9.534 -0.1361  0.0592 -0.3042
  109loPI   C3B 1743   8.701   7.200   9.112  0.1642  0.1419  0.1904
  109loPI   C4B 1744   8.527   7.206   8.640 -0.2678  0.1149  0.2675
  110loPI    C1 1745   7.080  13.188  11.162  0.0767  0.0237  0.0659
  110loPI    C2 1746   7.446  13.239  11.009  0.0567 -0.0964 -0.0235
  110loPI    C3 1747   7.145  13.474  10.889  0.0977 -0.0171  0.0279
  110loPI   PO4 1748   7.056  12.921  11.103  0.1944 -0.2740  0.1295
  110loPI   GL1 1749   7.008  12.945  10.662  0.1155  0.4098  0.1707
  110loPI   GL2 1750   7.114  13.141  10.536  0.1599  0.1923 -0.0981
  110loPI   C1A 1751   6.899  12.689  10.276 -0.0819  0.1761  0.1671
  110loPI   C2A 1752   6.946  12.724   9.794 -0.1274  0.0970 -0.0750
  110loPI   C3A 1753   6.974  12.779   9.377 -0.2414 -0.0922  0.1907
  110loPI   C4A 1754   6.903  12.763   8.905  0.0451  0.0226 -0.2453
  110loPI   C5A 1755   7.088  12.898   8.583  0.1671  0.1354  0.1685
  110loPI   C6A 1756   7.203  13.247   8.365 -0.1145 -0.1972 -0.0387
  110loPI   C1B 1757   7.041  13.173  10.163  0.2027  0.0619  0.0782
  110loPI   C2B 1758   7.031  13.234   9.756 -0.1649  0.0292  0.0537
  110loPI   C3B 1759   6.976  13.290   9.311 -0.1459 -0.0676 -0.1076
  110loPI   C4B 1760   7.019  13.375   8.805 -0.0612 -0.0671 -0.2336
  111loPI    C1 1761  11.090   3.315  10.872 -0.0584 -0.1352 -0.0877
  111loPI    C2 1762  10.879   3.001  11.003  0.0545 -0.1698  0.0130
  111loPI    C3 1763  11.251   3.062  11.137 -0.0091  0.0736  0.0844
  111loPI   PO4 1764  11.003   3.331  10.619  0.2170  0.0627  0.0398
  111loPI   GL1 1765  11.107   3.182  10.269  0.0474  0.1737  0.0218
  111loPI   GL2 1766  11.337   3.307  10.177  0.0097  0.1347  0.0138
  111loPI   C1A 1767  10.861   2.965   9.894 -0.1078  0.1879 -0.0427
  111loPI   C2A 1768  10.784   3.044   9.552 -0.1638  0.0957 -0.0348
  111loPI   C3A 1769  10.785   3.121   9.197  0.0456 -0.1795  0.2695
  111loPI   C4A 1770  10.670   3.116   8.777 -0.1329 -0.3097 -0.0032
  111loPI   C5A 1771  10.571   3.232   8.313 -0.0064  0.1060 -0.0925
  111loPI   C6A 1772  10.411   3.577   8.045  0.0705 -0.0190 -0.3974
  111loPI   C1B 1773  11.177   3.428   9.818 -0.2234  0.1742 -0.2722
  111loPI   C2B 1774  11.081   3.423   9.444 -0.0234  0.1424  0.0793
  111loPI   C3B 1775  11.194   3.332   9.056  0.2967 -0.0778  0.2373
  111loPI   C4B 1776  11.257   3.306   8.754 -0.0487 -0.0764  0.2322
  112loPI    C1 1777   7.275  15.115  11.355 -0.0648  0.1066  0.0119
  112loPI    C2 1778   7.542  14.950  11.603 -0.3577 -0.0972  0.1971
  112loPI    C3 1779   7.261  15.197  11.746 -0.2619  0.1289  0.0011
  112loPI   PO4 1780   7.405  15.067  11.130 -0.0048  0.3361 -0.1452
  112loPI   GL1 1781   7.345  15.043  10.664  0.1249  0.0038 -0.0374
  112loPI   GL2 1782   7.386  15.304  10.677 -0.1487  0.0270  0.0987
  112loPI   C1A 1783   7.317  14.775  10.294 -0.2124 -0.2115 -0.2170
  112loPI   C2A 1784   7.229  14.797   9.881 -0.0029 -0.1178  0.0394
  112loPI   C3A 1785   7.244  14.732   9.480 -0.0072  0.0178 -0.0391
  112loPI   C4A 1786   7.356  14.957   9.174 -0.0341  0.0745  0.3272
  112loPI   C5A 1787   7.386  15.125   8.758  0.3315 -0.0948  0.0332
  112loPI   C6A 1788   7.558  15.419   8.543 -0.2369 -0.0369 -0.1084
  112loPI   C1B 1789   7.337  15.316  10.254  0.0611  0.2810 -0.3139
  112loPI   C2B 1790   7.223  15.326   9.822 -0.0586  0.0759 -0.0744
  112loPI   C3B 1791   7.292  15.370   9.401  0.2582  0.0415  0.1789
  112loPI   C4B 1792   7.487  15.507   9.054 -0.0666  0.3392  0.1169
  113loPI    C1 1793   2.198  11.013  10.897 -0.1700  0.0973 -0.1955
  113loPI    C2 1794   2.521  11.243  10.944 -0.0861 -0.0063 -0.2593
  113loPI    C3 1795   2.247  11.221  11.235  0.0441 -0.0425 -0.1383
  113loPI   PO4 1796   2.125  11.110  10.639 -0.2921 -0.0842  0.3394
  113loPI   GL1 1797   2.316  11.515  10.361 -0.2847 -0.0252 -0.1145
  113loPI   GL2 1798   2.588  11.491  10.505 -0.0182 -0.1442  0.1809
  113loPI   C1A 1799   2.281  11.551   9.955  0.0818 -0.1860 -0.0180
  113loPI   C2A 1800   2.254  11.634   9.510  0.1188  0.1500  0.1648
  113loPI   C3A 1801   2.293  11.596   9.069  0.0317  0.2878 -0.2407
  113loPI   C4A 1802   2.392  11.657   8.648  0.1545 -0.0437 -0.0790
  113loPI   C5A 1803   2.800  11.578   8.482 -0.1570  0.0630 -0.0512
  113loPI   C6A 1804   3.143  11.319   8.550 -0.1682  0.1819 -0.0538
  113loPI   C1B 1805   2.741  11.688  10.187  0.2735 -0.3514 -0.0377
  113loPI   C2B 1806   2.723  11.728   9.749 -0.2000 -0.3770  0.0183
  113loPI   C3B 1807   2.765  11.744   9.330  0.0057  0.0053  0.1611
  113loPI   C4B 1808   2.788  11.781   8.875 -0.0270 -0.0403 -0.1424
  114loPI    C1 1809   0.263  12.444  11.082  0.2823 -0.1783  0.0034
  114loPI    C2 1810   0.379  12.812  10.977  0.0603 -0.0849  0.0790
  114loPI    C3 1811   0.478  12.666  11.336  0.2746 -0.1576 -0.0081
  114loPI   PO4 1812   0.244  12.305  10.824 -0.3068  0.1463  0.2595
  114loPI   GL1 1813   0.017  12.415  10.425 -0.1763  0.0261  0.2796
  114loPI   GL2 1814   0.262  12.578  10.345 -0.1566  0.2501 -0.0719
  114loPI   C1A 1815  -0.298  12.468  10.029 -0.2269  0.1177  0.0297
  114loPI   C2A 1816  -0.346  12.434   9.593  0.0236  0.1136 -0.2475
  114loPI   C3A 1817  -0.313  12.366   9.166 -0.2964 -0.1380  0.3806
  114loPI   C4A 1818  -0.286  12.328   8.708  0.0447  0.2434 -0.1784
  114loPI   C5A 1819  -0.059  12.179   8.395 -0.0376 -0.1565  0.0883
  114loPI   C6A 1820   0.337  12.086   8.248 -0.1093 -0.1172 -0.2065
  114loPI   C1B 1821   0.169  12.584   9.898  0.2390 -0.1944 -0.2246
  114loPI   C2B 1822   0.171  12.605   9.405 -0.4070  0.2825 -0.1766
  114loPI   C3B 1823   0.144  12.509   8.945  0.0666 -0.2353 -0.0014
  114loPI   C4B 1824   0.087  12.647   8.528 -0.1570 -0.1666  0.1473
  115loPI    C1 1825   0.685  15.258  11.602  0.0601  0.1305 -0.0442
  115loPI    C2 1826   0.807  14.937  11.809  0.2894  0.1862 -0.0897
  115loPI    C3 1827   0.572  15.210  11.983 -0.1182 -0.1307 -0.1272
  115loPI   PO4 1828   0.514  15.267  11.318 -0.3404 -0.0654 -0.1303
  115loPI   GL1 1829   0.538  15.143  10.834 -0.3769  0.0511 -0.1633
  115loPI   GL2 1830   0.736  14.871  10.843 -0.2256 -0.0812 -0.1834
  115loPI   C1A 1831   0.598  15.184  10.409  0.0517  0.0294  0.0035
  115loPI   C2A 1832   0.529  15.216   9.996 -0.0261 -0.3328 -0.0524
  115loPI   C3A 1833   0.627  15.119   9.568  0.3772 -0.0500  0.3394
  115loPI   C4A 1834   0.584  15.180   9.182 -0.1841  0.0153 -0.0360
  115loPI   C5A 1835   0.680  14.965   8.800  0.0947  0.0087 -0.3784
  115loPI   C6A 1836   0.905  14.618   8.608  0.0799 -0.4561  0.0870
  115loPI   C1B 1837   0.956  14.803  10.530 -0.2039 -0.0544 -0.1916
  115loPI   C2B 1838   0.949  14.869  10.137  0.3035  0.1662 -0.0272
  115loPI   C3B 1839   0.998  14.823   9.629 -0.3409 -0.0477 -0.3058
  115loPI   C4B 1840   1.012  14.817   9.217 -0.1732 -0.1309  0.0724
  116loPI    C1 1841  13.153   5.535  10.861  0.1230 -0.1853 -0.0780
  116loPI    C2 1842  13.233   5.202  11.067 -0.1196  0.0461  0.4079
  116loPI    C3 1843  13.480   5.515  11.091  0.0414 -0.0485  0.0517
  116loPI   PO4 1844  13.128   5.470  10.614 -0.1062 -0.2281 -0.1547
  116loPI   GL1 1845  12.827   5.372  10.317  0.1790 -0.1373 -0.1546
  116loPI   GL2 1846  12.649   5.495  10.197  0.2014  0.1203 -0.1426
  116loPI   C1A 1847  13.082   5.216   9.960 -0.1447  0.3639 -0.0884
  116loPI   C2A 1848  13.142   5.310   9.538  0.2154  0.1557 -0.2602
  116loPI   C3A 1849  13.116   5.268   9.051  0.0369 -0.1658  0.0573
  116loPI   C4A 1850  13.024   5.244   8.681  0.2659 -0.0156 -0.1324
  116loPI   C5A 1851  12.898   5.413   8.349  0.1365  0.1657  0.1044
  116loPI   C6A 1852  13.027   5.938   8.270  0.1076 -0.0555  0.0058
  116loPI   C1B 1853  12.717   5.620   9.824 -0.2440 -0.0219  0.3132
  116loPI   C2B 1854  12.689   5.574   9.352 -0.2893 -0.3705  0.1165
  116loPI   C3B 1855  12.559   5.587   8.976  0.2092  0.0893 -0.2025
  116loPI   C4B 1856  12.527   5.763   8.487 -0.1956  0.0686 -0.0627
  117loPI    C1 1857   5.473  12.808  11.316  0.0165  0.0688  0.0689
  117loPI    C2 1858   5.583  12.975  11.662  0.1393  0.0233  0.0521
  117loPI    C3 1859   5.422  12.609  11.659  0.4313 -0.1080  0.0334
  117loPI   PO4 1860   5.485  12.974  11.117 -0.2643  0.1112  0.0883
  117loPI   GL1 1861   5.510  12.983  10.757  0.0988  0.0487  0.2518
  117loPI   GL2 1862   5.719  13.181  10.527  0.2651  0.2045 -0.3108
  117loPI   C1A 1863   5.233  13.136  10.477 -0.1002 -0.1089 -0.1129
  117loPI   C2A 1864   5.151  13.113   9.951 -0.0159 -0.0419 -0.2903
  117loPI   C3A 1865   5.217  13.102   9.538 -0.2484  0.0105 -0.1954
  117loPI   C4A 1866   5.126  13.045   9.042  0.2698  0.2102 -0.2930
  117loPI   C5A 1867   5.197  13.039   8.615 -0.0607 -0.1380  0.0273
  117loPI   C6A 1868   5.171  13.300   8.263  0.0504  0.2282  0.0015
  117loPI   C1B 1869   5.667  13.287  10.104 -0.1918  0.2732 -0.2471
  117loPI   C2B 1870   5.713  13.282   9.686 -0.2776  0.0030  0.2453
  117loPI   C3B 1871   5.653  13.270   9.248  0.1815  0.1277 -0.2740
  117loPI   C4B 1872   5.649  13.308   8.788 -0.1027 -0.0810  0.1847
  118loPI    C1 1873   1.225  16.841  11.683  0.0962  0.1798  0.1819
  118loPI    C2 1874   1.137  17.224  11.756  0.0512  0.1611  0.2263
  118loPI    C3 1875   1.490  17.075  11.870 -0.0314  0.1237  0.4384
  118loPI   PO4 1876   1.159  16.748  11.458  0.1588 -0.1437 -0.0859
  118loPI   GL1 1877   1.310  16.729  11.080 -0.1614  0.2154 -0.1259
  118loPI   GL2 1878   1.303  16.962  10.881 -0.1086 -0.2154  0.1397
  118loPI   C1A 1879   1.668  16.607  10.759  0.1917 -0.0944 -0.0925
  118loPI   C2A 1880   1.760  16.651  10.266  0.0750 -0.2030  0.2216
  118loPI   C3A 1881   1.703  16.564   9.828  0.0674 -0.1315 -0.0045
  118loPI   C4A 1882   1.733  16.617   9.437  0.1046 -0.0932 -0.0636
  118loPI   C5A 1883   1.846  16.716   9.014  0.1879 -0.0162 -0.0096
  118loPI   C6A 1884   1.909  16.502   8.649 -0.0745 -0.0804 -0.2118
  118loPI   C1B 1885   1.306  16.980  10.520  0.4201  0.0779 -0.2622
  118loPI   C2B 1886   1.230  16.942  10.095  0.0363  0.0851 -0.0360
  118loPI   C3B 1887   1.347  16.845   9.633 -0.1080 -0.0394 -0.2041
  118loPI   C4B 1888   1.281  16.911   9.172  0.3187 -0.0837 -0.3276
  119loPI    C1 1889  17.104  14.231  11.483 -0.0536 -0.1160  0.0313
  119loPI    C2 1890  17.389  14.306  11.753  0.1202 -0.3074 -0.0961
  119loPI    C3 1891  17.006  14.285  11.867  0.1590 -0.0824  0.0817
  119loPI   PO4 1892  17.127  14.462  11.323  0.0888 -0.0936  0.1134
  119loPI   GL1 1893  17.013  14.656  10.847 -0.0911  0.0716  0.0079
  119loPI   GL2 1894  16.807  14.841  10.781 -0.0985  0.1434 -0.0933
  119loPI   C1A 1895  17.126  14.285  10.459  0.2162  0.4107  0.0722
  119loPI   C2A 1896  17.152  14.268   9.988  0.0276  0.1271  0.1491
  119loPI   C3A 1897  17.173  14.251   9.524 -0.1103  0.1336  0.3474
  119loPI   C4A 1898  17.227  14.216   9.066  0.1731  0.3364  0.1855
  119loPI   C5A 1899  17.018  14.059   8.615  0.1793  0.1080  0.2580
  119loPI   C6A 1900  16.917  14.163   8.240 -0.2596  0.1713 -0.0072
  119loPI   C1B 1901  16.879  15.131  10.423  0.1395  0.3298  0.4054
  119loPI   C2B 1902  16.868  15.054   9.958  0.2966  0.1706 -0.1135
  119loPI   C3B 1903  16.910  15.152   9.473 -0.1070 -0.2100 -0.1434
  119loPI   C4B 1904  16.953  14.981   9.087  0.1139  0.3821  0.4020
  120loPI    C1 1905   2.237  16.205  11.341  0.2421  0.1120  0.0690
  120loPI    C2 1906   2.154  16.067  11.707 -0.3361 -0.1435 -0.1461
  120loPI    C3 1907   2.076  16.448  11.614  0.2839  0.0666  0.1344
  120loPI   PO4 1908   2.478  16.164  11.311 -0.0663  0.0718  0.1031
  120loPI   GL1 1909   2.691  15.882  11.014 -0.4183  0.1457 -0.0733
  120loPI   GL2 1910   2.850  16.038  10.704 -0.2534  0.0790 -0.0644
  120loPI   C1A 1911   2.398  15.886  10.682  0.1388 -0.3477 -0.1471
  120loPI   C2A 1912   2.474  15.907  10.244  0.1063 -0.1043  0.0831
  120loPI   C3A 1913   2.451  15.912   9.770 -0.0101  0.1238 -0.1254
  120loPI   C4A 1914   2.496  15.970   9.397  0.0098 -0.0822 -0.2087
  120loPI   C5A 1915   2.671  15.923   8.914  0.3678  0.2197  0.2641
  120loPI   C6A 1916   2.938  15.755   8.556  0.0857 -0.2957  0.3526
  120loPI   C1B 1917   2.977  16.082  10.291  0.1756  0.1378 -0.0625
  120loPI   C2B 1918   2.972  16.197   9.900 -0.0465  0.0037 -0.0697
  120loPI   C3B 1919   2.948  16.062   9.556 -0.2872 -0.0923  0.2221
  120loPI   C4B 1920   3.087  16.095   9.135  0.2771 -0.3873  0.0718
  121loPI    C1 1921  12.252  13.077  11.544 -0.0860 -0.2091  0.1112
  121loPI    C2 1922  12.549  13.333  11.465 -0.0992 -0.2650 -0.1290
  121loPI    C3 1923  12.461  13.239  11.844 -0.0101 -0.0150 -0.0440
  121loPI   PO4 1924  12.199  13.018  11.242 -0.2255 -0.0693 -0.0307
  121loPI   GL1 1925  12.095  13.228  10.815 -0.0563  0.0625  0.0152
  121loPI   GL2 1926  11.901  13.162  10.524 -0.0151 -0.4432  0.1532
  121loPI   C1A 1927  12.093  13.583  10.515 -0.0466 -0.0466  0.2375
  121loPI   C2A 1928  12.203  13.715  10.117  0.0964 -0.1249  0.1345
  121loPI   C3A 1929  12.181  13.688   9.756 -0.1607 -0.0674 -0.2883
  121loPI   C4A 1930  12.084  13.708   9.308  0.2247  0.1794 -0.2138
  121loPI   C5A 1931  12.124  13.940   8.841 -0.0008 -0.1699  0.2031
  121loPI   C6A 1932  12.254  13.933   8.414 -0.0879  0.0308  0.1474
  121loPI   C1B 1933  12.019  13.264  10.059  0.2124  0.0226  0.1291
  121loPI   C2B 1934  12.033  13.170   9.651 -0.0559 -0.1985  0.1076
  121loPI   C3B 1935  11.977  13.213   9.174  0.0596  0.0786 -0.0023
  121loPI   C4B 1936  12.054  13.016   8.738 -0.1899  0.0815 -0.2407
  122loPI    C1 1937  15.541  13.536  11.327  0.0353  0.0651 -0.2457
  122loPI    C2 1938  15.350  13.862  11.457  0.1117  0.0715 -0.1477
  122loPI    C3 1939  15.238  13.500  11.585  0.1318  0.0714 -0.1305
  122loPI   PO4 1940  15.531  13.450  11.052 -0.1684  0.1637 -0.2262
  122loPI   GL1 1941  15.343  13.655  10.678 -0.0128 -0.1101 -0.1360
  122loPI   GL2 1942  15.494  13.765  10.426  0.0785 -0.0136  0.1336
  122loPI   C1A 1943  15.086  13.329  10.477  0.0478  0.1691 -0.1399
  122loPI   C2A 1944  14.976  13.304  10.089 -0.1641 -0.0149  0.1704
  122loPI   C3A 1945  14.813  13.284   9.772  0.0934 -0.0946  0.0726
  122loPI   C4A 1946  14.763  13.310   9.323 -0.2198 -0.3193 -0.1873
  122loPI   C5A 1947  14.719  13.228   8.905  0.2308  0.2765  0.1708
  122loPI   C6A 1948  14.571  13.063   8.436 -0.2564 -0.1911 -0.2750
  122loPI   C1B 1949  15.355  13.920  10.021 -0.0740 -0.1324 -0.0358
  122loPI   C2B 1950  15.309  14.020   9.618  0.0016 -0.1380 -0.0122
  122loPI   C3B 1951  15.273  13.934   9.222 -0.1450 -0.2240  0.0779
  122loPI   C4B 1952  15.466  14.174   8.792 -0.0117  0.0062  0.1300
  123loPI    C1 1953  14.803  15.357  11.303  0.2278  0.0087 -0.0197
  123loPI    C2 1954  14.471  15.501  11.472  0.0859 -0.3177 -0.0124
  123loPI    C3 1955  14.828  15.644  11.580 -0.0529  0.0962 -0.0818
  123loPI   PO4 1956  14.799  15.384  11.027 -0.0484  0.1378 -0.2869
  123loPI   GL1 1957  14.561  15.270  10.674  0.0607 -0.0058 -0.0466
  123loPI   GL2 1958  14.205  15.353  10.649  0.1941  0.3191  0.2944
  123loPI   C1A 1959  14.519  15.092  10.321  0.2902  0.1667  0.1892
  123loPI   C2A 1960  14.611  15.137   9.975 -0.1877 -0.1953 -0.0613
  123loPI   C3A 1961  14.519  15.153   9.527 -0.2249  0.0389 -0.0065
  123loPI   C4A 1962  14.563  15.058   9.051 -0.0397 -0.0620 -0.2843
  123loPI   C5A 1963  14.493  15.304   8.617  0.1160  0.5070  0.2692
  123loPI   C6A 1964  14.321  15.645   8.506  0.1577  0.1189 -0.1746
  123loPI   C1B 1965  14.183  15.435  10.267  0.0034 -0.1992  0.0325
  123loPI   C2B 1966  14.192  15.451   9.866  0.0755 -0.2732 -0.1562
  123loPI   C3B 1967  14.169  15.471   9.320 -0.1935 -0.1210 -0.0394
  123loPI   C4B 1968  14.024  15.409   8.879  0.2365 -0.2650  0.1714
  124loPI    C1 1969  13.983  16.202  11.310  0.1430 -0.1374 -0.1388
  124loPI    C2 1970  13.864  15.834  11.412  0.1369 -0.0875  0.0374
  124loPI    C3 1971  13.996  16.086  11.693  0.0312  0.0850 -0.0663
  124loPI   PO4 1972  14.097  16.135  11.115 -0.0190 -0.2889  0.0357
  124loPI   GL1 1973  13.963  16.087  10.730 -0.1741 -0.1371  0.1090
  124loPI   GL2 1974  14.197  15.877  10.659 -0.0480 -0.3208 -0.1213
  124loPI   C1A 1975  13.915  16.299  10.321  0.4550 -0.0226 -0.0609
  124loPI   C2A 1976  13.886  16.296   9.846 -0.0312  0.2211  0.1386
  124loPI   C3A 1977  13.788  16.340   9.380 -0.2168  0.0663  0.2351
  124loPI   C4A 1978  13.871  16.401   9.009  0.1929 -0.0408  0.2651
  124loPI   C5A 1979  13.892  16.110   8.698  0.2310  0.1689 -0.1074
  124loPI   C6A 1980  13.679  15.704   8.529  0.0176 -0.0515  0.1469
  124loPI   C1B 1981  14.256  15.948  10.170  0.1793 -0.0008  0.1228
  124loPI   C2B 1982  14.230  16.018   9.782 -0.1625  0.0608  0.0642
  124loPI   C3B 1983  14.288  16.000   9.371  0.0527  0.1251 -0.0231
  124loPI   C4B 1984  14.310  15.846   8.916 -0.1517  0.1504 -0.4905
  125loPI    C1 1985   3.189   7.109  10.593  0.2853 -0.1082  0.0133
  125loPI    C2 1986   3.018   6.748  10.599  0.1000 -0.0281 -0.2515
  125loPI    C3 1987   3.110   6.932  10.942 -0.0428 -0.2140 -0.1115
  125loPI   PO4 1988   2.962   7.220  10.333 -0.0267 -0.0002 -0.3756
  125loPI   GL1 1989   2.963   7.128   9.993 -0.0969  0.1890 -0.1834
  125loPI   GL2 1990   2.960   6.805  10.080  0.0141 -0.2085  0.4852
  125loPI   C1A 1991   3.018   7.129   9.569  0.1566  0.1914 -0.1494
  125loPI   C2A 1992   3.102   7.148   9.121 -0.0944 -0.2328 -0.0018
  125loPI   C3A 1993   3.023   7.132   8.641  0.0193  0.1183 -0.2686
  125loPI   C4A 1994   2.909   6.911   8.261 -0.0658  0.2204 -0.2250
  125loPI   C5A 1995   2.931   6.605   8.026  0.1153 -0.0889  0.1316
  125loPI   C6A 1996   3.059   6.266   7.796 -0.1106  0.1877 -0.0647
  125loPI   C1B 1997   2.946   6.644   9.773  0.2384 -0.2112 -0.2579
  125loPI   C2B 1998   2.905   6.540   9.347  0.2616 -0.0333 -0.2461
  125loPI   C3B 1999   2.974   6.647   9.046 -0.0062 -0.0306  0.1044
  125loPI   C4B 2000   3.052   6.571   8.627  0.2308 -0.2608 -0.1599
  126loPI    C1 2001  10.851  14.014  11.263 -0.2551  0.0048  0.0533
  126loPI    C2 2002  10.591  13.726  11.360 -0.3445  0.1477  0.2448
  126loPI    C3 2003  10.897  13.809  11.604  0.0380 -0.1956 -0.1021
  126loPI   PO4 2004  10.891  13.966  11.008  0.3196 -0.1433 -0.0747
  126loPI   GL1 2005  10.837  14.005  10.673  0.0827  0.0509 -0.0181
  126loPI   GL2 2006  10.910  14.322  10.520  0.3305  0.1255 -0.0523
  126loPI   C1A 2007  10.497  14.060  10.395  0.0711  0.0472 -0.1226
  126loPI   C2A 2008  10.477  14.017   9.943  0.1936  0.0623  0.2823
  126loPI   C3A 2009  10.341  13.993   9.502 -0.2120 -0.0541  0.1356
  126loPI   C4A 2010  10.376  14.018   9.029  0.0072 -0.2570  0.1028
  126loPI   C5A 2011  10.444  13.953   8.629 -0.0581  0.2734  0.0860
  126loPI   C6A 2012  10.404  13.772   8.259  0.0758  0.1951  0.3963
  126loPI   C1B 2013  10.907  14.168  10.094 -0.0353  0.1330 -0.0013
  126loPI   C2B 2014  10.823  14.150   9.561  0.0370  0.3086 -0.2104
  126loPI   C3B 2015  10.892  14.214   9.113  0.2788  0.1840 -0.0695
  126loPI   C4B 2016  11.029  14.022   8.763  0.0887 -0.0557  0.1936
  127loPI    C1 2017  15.474   9.593  10.709  0.3919  0.1639 -0.1537
  127loPI    C2 2018  15.681   9.277  10.842  0.0775  0.0152 -0.0088
  127loPI    C3 2019  15.548   9.553  11.100 -0.3274 -0.1493 -0.0336
  127loPI   PO4 2020  15.528   9.535  10.396  0.0204 -0.0556 -0.0334
  127loPI   GL1 2021  15.606   9.375  10.055  0.1035 -0.0538  0.3251
  127loPI   GL2 2022  15.566   9.762   9.988  0.0797 -0.2451 -0.3002
  127loPI   C1A 2023  15.541   9.108   9.749 -0.2399 -0.0722 -0.0217
  127loPI   C2A 2024  15.584   9.009   9.336 -0.3084  0.0322 -0.1609
  127loPI   C3A 2025  15.617   9.145   8.844 -0.0509 -0.1309 -0.0437
  127loPI   C4A 2026  15.651   9.211   8.437  0.1674 -0.1163 -0.1779
  127loPI   C5A 2027  15.611   9.269   8.066 -0.1594 -0.0742 -0.0958
  127loPI   C6A 2028  15.595   9.676   7.904  0.1419  0.0580 -0.1672
  127loPI   C1B 2029  15.657   9.687   9.572  0.1227  0.0041  0.2861
  127loPI   C2B 2030  15.812   9.562   9.138 -0.0265 -0.1234  0.0403
  127loPI   C3B 2031  15.738   9.592   8.736  0.1267 -0.1506  0.0486
  127loPI   C4B 2032  15.785   9.792   8.411 -0.1044 -0.0086 -0.2840
  128loPI    C1 2033   1.135   7.276  10.526  0.0724  0.1210  0.1218
  128loPI    C2 2034   1.102   7.473  10.872 -0.0983 -0.1176  0.2441
  128loPI    C3 2035   1.056   7.076  10.863 -0.2465 -0.0964 -0.0764
  128loPI   PO4 2036   1.337   7.471  10.377 -0.1841  0.2797  0.2189
  128loPI   GL1 2037   1.243   7.629  10.071  0.1177  0.1936 -0.1634
  128loPI   GL2 2038   1.009   7.805  10.058  0.0773 -0.2040 -0.1249
  128loPI   C1A 2039   1.197   7.453   9.654 -0.1557 -0.1594 -0.0064
  128loPI   C2A 2040   1.331   7.355   9.256 -0.0844  0.1232  0.0036
  128loPI   C3A 2041   1.268   7.461   8.861 -0.2728 -0.1237  0.0660
  128loPI   C4A 2042   1.283   7.632   8.527  0.0535  0.1860 -0.2858
  128loPI   C5A 2043   1.199   7.584   8.101 -0.0317 -0.0905 -0.0396
  128loPI   C6A 2044   0.850   7.388   7.826  0.2730 -0.0382  0.0619
  128loPI   C1B 2045   0.830   7.769   9.733  0.0372  0.2947  0.0046
  128loPI   C2B 2046   0.908   7.717   9.220  0.0260  0.1927 -0.0121
  128loPI   C3B 2047   0.943   7.855   8.855 -0.1238 -0.1193  0.1423
  128loPI   C4B 2048   0.891   7.919   8.433 -0.0369 -0.0666  0.5451
  129loPI    C1 2049   7.192   0.278  11.442 -0.0323  0.2929 -0.0948
  129loPI    C2 2050   7.261   0.114  11.801 -0.1206  0.2621 -0.0917
  129loPI    C3 2051   6.961   0.375  11.754 -0.1448  0.2230 -0.1560
  129loPI   PO4 2052   7.172   0.069  11.285  0.0173  0.2753  0.2822
  129loPI   GL1 2053   7.060   0.111  10.839  0.0207 -0.1096  0.0655
  129loPI   GL2 2054   6.807  -0.032  10.703  0.3501 -0.1281 -0.0792
  129loPI   C1A 2055   7.061   0.315  10.441 -0.0476 -0.1858 -0.1618
  129loPI   C2A 2056   7.068   0.410  10.042 -0.1014  0.2170 -0.3845
  129loPI   C3A 2057   6.986   0.380   9.632 -0.0286  0.1698  0.1099
  129loPI   C4A 2058   6.903   0.484   9.180 -0.2765  0.1821 -0.0542
  129loPI   C5A 2059   6.876   0.489   8.760  0.1551  0.0415  0.0953
  129loPI   C6A 2060   6.877   0.684   8.337  0.3430 -0.0427  0.0513
  129loPI   C1B 2061   6.999  -0.182  10.287 -0.0095  0.1605 -0.0674
  129loPI   C2B 2062   6.920  -0.140   9.907  0.1517  0.0152  0.0211
  129loPI   C3B 2063   6.893  -0.116   9.476  0.0569 -0.2315 -0.2767
  129loPI   C4B 2064   6.837  -0.038   9.068  0.2651  0.1850 -0.2002
  130loPI    C1 2065  10.866   5.182  10.740  0.3389 -0.1452  0.2213
  130loPI    C2 2066  11.064   5.513  10.633  0.0549 -0.0049  0.1197
  130loPI    C3 2067  11.030   5.417  11.020  0.0540  0.1394  0.1562
  130loPI   PO4 2068  10.972   4.959  10.668  0.2503 -0.0870 -0.1833
  130loPI   GL1 2069  11.165   5.041  10.318  0.1250  0.0702 -0.2878
  130loPI   GL2 2070  10.948   5.324  10.214 -0.1198 -0.3667 -0.0705
  130loPI   C1A 2071  11.299   5.104   9.896 -0.2797  0.1287 -0.0766
  130loPI   C2A 2072  11.230   5.058   9.474  0.1678 -0.1709 -0.0519
  130loPI   C3A 2073  11.192   5.053   9.005  0.2145 -0.1531  0.1068
  130loPI   C4A 2074  11.061   5.214   8.507 -0.0525  0.1383 -0.2492
  130loPI   C5A 2075  10.894   5.489   8.200  0.2936  0.0594 -0.1005
  130loPI   C6A 2076  10.500   5.701   8.188  0.1283  0.0113 -0.0556
  130loPI   C1B 2077  10.783   5.426   9.805 -0.0704 -0.2995  0.0288
  130loPI   C2B 2078  10.840   5.480   9.338 -0.1943  0.0881  0.3023
  130loPI   C3B 2079  10.695   5.482   8.989  0.1702  0.1227  0.1120
  130loPI   C4B 2080  10.701   5.595   8.617 -0.0817 -0.2229  0.2174
  131loPI    C1 2081   9.169   4.970  10.675 -0.1319  0.2099 -0.0520
  131loPI    C2 2082   9.252   5.325  10.511  0.0120  0.1359 -0.1418
  131loPI    C3 2083   9.383   5.240  10.879  0.0714  0.1347 -0.1632
  131loPI   PO4 2084   9.099   4.836  10.468 -0.1422  0.2589 -0.0697
  131loPI   GL1 2085   9.265   4.686  10.206 -0.2348 -0.0192 -0.0642
  131loPI   GL2 2086   9.278   4.946  10.017 -0.0115 -0.0904 -0.1581
  131loPI   C1A 2087   9.039   4.502   9.837  0.0815  0.0741  0.0457
  131loPI   C2A 2088   9.016   4.506   9.359 -0.2737  0.1593 -0.3334
  131loPI   C3A 2089   9.220   4.435   8.935 -0.3252 -0.0314  0.0998
  131loPI   C4A 2090   9.235   4.391   8.553 -0.0234  0.0251 -0.1791
  131loPI   C5A 2091   9.532   4.399   8.119  0.0377  0.2660 -0.3718
  131loPI   C6A 2092   9.909   4.133   7.959  0.2031 -0.2435 -0.1500
  131loPI   C1B 2093   9.193   5.016   9.539  0.0011  0.1226 -0.0680
  131loPI   C2B 2094   9.291   4.996   9.035 -0.0931  0.3516 -0.0517
  131loPI   C3B 2095   9.330   4.909   8.627 -0.1256 -0.1498 -0.1890
  131loPI   C4B 2096   9.287   4.788   8.200 -0.0331 -0.1251 -0.1142
  132loPI    C1 2097   4.095  14.991  11.434  0.3097 -0.0229  0.1559
  132loPI    C2 2098   3.815  14.715  11.508  0.0133  0.2397  0.0324
  132loPI    C3 2099   4.140  14.736  11.739 -0.1778  0.0785  0.3223
  132loPI   PO4 2100   4.061  14.992  11.121 -0.2378 -0.0047  0.0999
  132loPI   GL1 2101   4.111  15.021  10.681 -0.0293  0.0328  0.1170
  132loPI   GL2 2102   3.993  14.671  10.756  0.2214 -0.2731  0.1027
  132loPI   C1A 2103   4.095  15.078  10.273  0.0842 -0.3005 -0.0162
  132loPI   C2A 2104   4.117  15.118   9.815  0.0340  0.2384 -0.0754
  132loPI   C3A 2105   4.150  15.104   9.338  0.0428  0.2058 -0.4222
  132loPI   C4A 2106   4.278  15.125   9.030  0.1331  0.1818  0.2988
  132loPI   C5A 2107   4.144  15.212   8.644 -0.1890 -0.2266 -0.4113
  132loPI   C6A 2108   3.789  15.259   8.405 -0.0096 -0.0284 -0.0041
  132loPI   C1B 2109   4.044  14.585  10.344  0.1053 -0.1626 -0.0282
  132loPI   C2B 2110   4.007  14.629   9.989  0.1689  0.1229 -0.0668
  132loPI   C3B 2111   4.073  14.642   9.618  0.1506 -0.1161  0.1745
  132loPI   C4B 2112   4.171  14.628   9.139  0.3486  0.3160  0.0275
  133loPI    C1 2113   9.077   2.086  11.335  0.0128 -0.2751 -0.1730
  133loPI    C2 2114   9.456   1.989  11.251  0.0757 -0.2339  0.0567
  133loPI    C3 2115   9.358   2.117  11.618 -0.1595 -0.2362 -0.0035
  133loPI   PO4 2116   8.969   2.095  11.046  0.1944 -0.0267  0.1198
  133loPI   GL1 2117   8.965   2.224  10.548 -0.1813 -0.1134  0.0991
  133loPI   GL2 2118   8.731   2.409  10.578 -0.0077 -0.0857 -0.0445
  133loPI   C1A 2119   9.103   2.089  10.177  0.1206  0.2605  0.2272
  133loPI   C2A 2120   9.105   2.126   9.761 -0.0708  0.0362 -0.2362
  133loPI   C3A 2121   9.046   2.073   9.349  0.2352 -0.0035  0.1055
  133loPI   C4A 2122   9.094   2.134   8.924 -0.3913 -0.3341  0.2627
  133loPI   C5A 2123   9.032   2.063   8.431  0.0632 -0.1786  0.2436
  133loPI   C6A 2124   8.898   1.768   8.130 -0.1057  0.0154  0.1145
  133loPI   C1B 2125   8.597   2.347  10.139  0.0913 -0.1354  0.2728
  133loPI   C2B 2126   8.646   2.354   9.756  0.2368 -0.3884  0.1122
  133loPI   C3B 2127   8.644   2.447   9.297 -0.2955 -0.0740  0.0253
  133loPI   C4B 2128   8.689   2.443   8.851 -0.0619 -0.1330 -0.1040
  134loPI    C1 2129  10.351   2.380  11.005 -0.0764  0.0650  0.1553
  134loPI    C2 2130  10.713   2.331  11.168 -0.0971  0.1190  0.2181
  134loPI    C3 2131  10.522   2.680  11.208  0.0144  0.2269 -0.1545
  134loPI   PO4 2132  10.303   2.314  10.738 -0.0766  0.1090 -0.0848
  134loPI   GL1 2133  10.439   2.221  10.372  0.1936 -0.1679 -0.0599
  134loPI   GL2 2134  10.751   2.324  10.387  0.0763  0.1270 -0.1595
  134loPI   C1A 2135  10.498   2.191   9.980 -0.0191 -0.1441  0.2292
  134loPI   C2A 2136  10.469   2.066   9.510 -0.0570 -0.2927 -0.2224
  134loPI   C3A 2137  10.565   2.111   9.125 -0.0465 -0.1685 -0.0224
  134loPI   C4A 2138  10.521   2.150   8.616  0.1340 -0.0963 -0.3518
  134loPI   C5A 2139  10.275   2.119   8.181 -0.0036  0.0285 -0.2169
  134loPI   C6A 2140   9.897   2.085   8.109 -0.0133 -0.1998  0.1872
  134loPI   C1B 2141  10.842   1.917  10.173 -0.4444 -0.3250  0.0473
  134loPI   C2B 2142  10.839   1.772   9.809 -0.0828 -0.2480 -0.3260
  134loPI   C3B 2143  10.858   1.699   9.422  0.0485 -0.3745  0.0816
  134loPI   C4B 2144  10.908   1.801   9.012  0.2199  0.0091 -0.1990
  135loPI    C1 2145  17.630   4.377  11.147  0.0554  0.1225 -0.0483
  135loPI    C2 2146  17.365   4.348  11.445  0.1291  0.0988  0.0153
  135loPI    C3 2147  17.568   4.688  11.392  0.2763  0.0294  0.1284
  135loPI   PO4 2148  17.472   4.140  10.887  0.0398  0.1806  0.1763
  135loPI   GL1 2149  17.216   4.087  10.602  0.2602  0.0743  0.2330
  135loPI   GL2 2150  17.233   4.463  10.597 -0.1266  0.2203 -0.0923
  135loPI   C1A 2151  17.326   4.042  10.206  0.0376  0.1898 -0.0634
  135loPI   C2A 2152  17.411   3.925   9.780 -0.2574  0.1664  0.1544
  135loPI   C3A 2153  17.455   3.959   9.308 -0.3503  0.2358 -0.0807
  135loPI   C4A 2154  17.605   4.022   8.851 -0.0863 -0.2237 -0.0921
  135loPI   C5A 2155  17.831   4.291   8.551  0.1745  0.0677  0.1972
  135loPI   C6A 2156  17.888   4.416   8.127  0.0278 -0.1148 -0.1891
  135loPI   C1B 2157  17.392   4.603  10.240 -0.1128  0.1942  0.0144
  135loPI   C2B 2158  17.462   4.466   9.824  0.2112 -0.0396 -0.0092
  135loPI   C3B 2159  17.574   4.449   9.464  0.1786 -0.2255 -0.1878
  135loPI   C4B 2160  17.548   4.431   9.098 -0.3657  0.2612  0.1516
  136loPI    C1 2161   4.965  13.737  11.211 -0.0183 -0.1127  0.0074
  136loPI    C2 2162   5.118  13.701  11.578  0.1394 -0.1325 -0.0594
  136loPI    C3 2163   4.807  13.474  11.468 -0.0460  0.0240  0.1319
  136loPI   PO4 2164   5.162  13.826  11.070  0.0956  0.1389  0.1016
  136loPI   GL1 2165   5.266  13.913  10.684 -0.1480 -0.1428 -0.1542
  136loPI   GL2 2166   5.157  13.637  10.565 -0.2659 -0.0200  0.1227
  136loPI   C1A 2167   5.347  14.146  10.274  0.0608  0.1622 -0.0263
  136loPI   C2A 2168   5.332  14.100   9.864  0.2972 -0.0971 -0.0140
  136loPI   C3A 2169   5.330  14.106   9.454  0.4346 -0.2579  0.4458
  136loPI   C4A 2170   5.267  14.106   8.999  0.0700 -0.0104 -0.0110
  136loPI   C5A 2171   5.566  14.103   8.610 -0.1493 -0.4125  0.1680
  136loPI   C6A 2172   5.955  13.917   8.524  0.3301 -0.1194  0.1215
  136loPI   C1B 2173   5.207  13.635  10.079 -0.2068  0.0248  0.2115
  136loPI   C2B 2174   5.221  13.607   9.644  0.2059 -0.2586  0.1185
  136loPI   C3B 2175   5.236  13.554   9.202 -0.0931 -0.3862  0.0579
  136loPI   C4B 2176   5.226  13.566   8.757 -0.2337  0.1466  0.0440
  137loPI    C1 2177   1.600  15.781  11.406 -0.2631 -0.0629  0.0954
  137loPI    C2 2178   1.489  15.472  11.177  0.0818 -0.1715  0.0690
  137loPI    C3 2179   1.495  15.433  11.575 -0.2021 -0.0873  0.0837
  137loPI   PO4 2180   1.771  15.848  11.346 -0.0606  0.0618  0.1630
  137loPI   GL1 2181   1.996  15.964  10.981  0.4078 -0.1129 -0.0562
  137loPI   GL2 2182   1.903  15.703  10.836  0.0186  0.0579 -0.2827
  137loPI   C1A 2183   2.106  16.293  10.709 -0.0070  0.2554 -0.0387
  137loPI   C2A 2184   2.159  16.356  10.313 -0.0291 -0.0617  0.1605
  137loPI   C3A 2185   2.087  16.255   9.928  0.0685 -0.1840  0.0689
  137loPI   C4A 2186   2.043  16.245   9.497  0.2040 -0.0112 -0.0996
  137loPI   C5A 2187   2.171  16.306   9.136 -0.1318 -0.0429  0.2203
  137loPI   C6A 2188   2.270  16.173   8.762 -0.1867  0.1229  0.1636
  137loPI   C1B 2189   1.995  15.683  10.412  0.3457  0.2036  0.1046
  137loPI   C2B 2190   2.006  15.725   9.876 -0.1566 -0.0562 -0.0400
  137loPI   C3B 2191   2.006  15.754   9.451  0.0695 -0.0108 -0.1318
  137loPI   C4B 2192   2.133  15.815   9.065  0.0019  0.4013  0.2833
  138loPI    C1 2193   2.711  13.755  11.465 -0.1092 -0.0251 -0.0977
  138loPI    C2 2194   2.400  13.662  11.699 -0.1765 -0.1248 -0.2255
  138loPI    C3 2195   2.770  13.664  11.850 -0.2070 -0.3012 -0.1460
  138loPI   PO4 2196   2.671  13.710  11.275  0.2088 -0.0368 -0.1046
  138loPI   GL1 2197   2.569  13.811  10.871  0.0844 -0.0399 -0.0708
  138loPI   GL2 2198   2.206  13.851  10.776  0.0171  0.0959 -0.1484
  138loPI   C1A 2199   2.608  13.565  10.465 -0.2106  0.1844  0.0927
  138loPI   C2A 2200   2.541  13.555  10.130 -0.0509 -0.0160  0.3679
  138loPI   C3A 2201   2.516  13.532   9.649 -0.1514 -0.4429 -0.1641
  138loPI   C4A 2202   2.632  13.674   9.299 -0.0120  0.0925 -0.3180
  138loPI   C5A 2203   2.525  13.577   8.899  0.1602 -0.2977 -0.2082
  138loPI   C6A 2204   2.652  13.706   8.508 -0.0746  0.2719 -0.2965
  138loPI   C1B 2205   2.166  13.925  10.365  0.1889  0.0682 -0.1672
  138loPI   C2B 2206   2.229  13.903   9.925 -0.1304  0.0548 -0.0418
  138loPI   C3B 2207   2.167  13.936   9.487 -0.3000  0.2407  0.0555
  138loPI   C4B 2208   2.120  13.931   9.076  0.0220 -0.0531  0.0230
  139loPI    C1 2209   1.954  15.273  11.545  0.0053 -0.2678 -0.0137
  139loPI    C2 2210   1.933  15.630  11.724 -0.0041 -0.2108 -0.1279
  139loPI    C3 2211   2.255  15.398  11.777  0.0573 -0.1317 -0.1533
  139loPI   PO4 2212   1.948  15.317  11.275 -0.1752  0.0815 -0.0724
  139loPI   GL1 2213   1.722  15.171  10.906  0.0177  0.1885 -0.0997
  139loPI   GL2 2214   1.907  15.212  10.671  0.2055 -0.0027  0.2835
  139loPI   C1A 2215   1.493  15.484  10.689  0.1299  0.1492  0.0157
  139loPI   C2A 2216   1.487  15.635  10.290  0.4977  0.1348  0.0046
  139loPI   C3A 2217   1.511  15.538   9.840  0.0855 -0.0769 -0.0404
  139loPI   C4A 2218   1.546  15.583   9.514 -0.0315 -0.3194 -0.0241
  139loPI   C5A 2219   1.598  15.699   9.127 -0.3482 -0.2372 -0.2423
  139loPI   C6A 2220   1.719  16.174   9.075 -0.1526  0.0433  0.2625
  139loPI   C1B 2221   1.811  15.229  10.230  0.2396  0.1693  0.0125
  139loPI   C2B 2222   1.992  15.221   9.820 -0.0874 -0.1205  0.1507
  139loPI   C3B 2223   1.966  15.250   9.399  0.2784 -0.1304 -0.1661
  139loPI   C4B 2224   1.997  15.328   9.002  0.2911  0.2961 -0.1882
  140loPI    C1 2225   4.860   7.831  10.957  0.1467 -0.2240 -0.2198
  140loPI    C2 2226   5.088   7.911  11.276  0.0096  0.1141 -0.2031
  140loPI    C3 2227   4.692   7.877  11.317  0.0211 -0.1382 -0.2887
  140loPI   PO4 2228   4.957   7.939  10.760 -0.0129 -0.0329 -0.3268
  140loPI   GL1 2229   4.979   7.858  10.337 -0.1141  0.0797 -0.0203
  140loPI   GL2 2230   5.128   8.085  10.324  0.2914 -0.0420  0.1232
  140loPI   C1A 2231   5.149   7.703   9.943 -0.3022  0.0880  0.1337
  140loPI   C2A 2232   5.218   7.820   9.511  0.1607 -0.2663 -0.0624
  140loPI   C3A 2233   5.164   7.825   9.128 -0.1730 -0.0801 -0.2871
  140loPI   C4A 2234   5.071   7.842   8.746  0.2440 -0.2793  0.1593
  140loPI   C5A 2235   5.051   8.006   8.321  0.2106  0.1512  0.2196
  140loPI   C6A 2236   5.194   8.000   7.911  0.1020  0.0860  0.0195
  140loPI   C1B 2237   5.292   8.305   9.937  0.0343 -0.1500 -0.1430
  140loPI   C2B 2238   5.278   8.302   9.436 -0.0897  0.0115  0.3680
  140loPI   C3B 2239   5.167   8.403   8.964 -0.3229  0.3072 -0.4434
  140loPI   C4B 2240   5.105   8.429   8.510  0.5797 -0.0808 -0.0050
  141loPI    C1 2241  16.317   0.795  11.313  0.0480 -0.1878 -0.0176
  141loPI    C2 2242  16.532   0.597  11.587 -0.0407 -0.1554  0.0762
  141loPI    C3 2243  16.363   0.948  11.680 -0.1019 -0.1619 -0.0089
  141loPI   PO4 2244  16.491   0.797  11.138 -0.1536  0.1802 -0.1587
  141loPI   GL1 2245  16.530   0.759  10.691 -0.0028 -0.0282 -0.4526
  141loPI   GL2 2246  16.719   0.488  10.728 -0.0858 -0.0991  0.1000
  141loPI   C1A 2247  16.427   0.707  10.319  0.1377  0.0532  0.0992
  141loPI   C2A 2248  16.416   0.655   9.936 -0.2173 -0.0192  0.1276
  141loPI   C3A 2249  16.437   0.612   9.483  0.0803 -0.0713 -0.2036
  141loPI   C4A 2250  16.465   0.690   9.064  0.0913 -0.0826  0.1261
  141loPI   C5A 2251  16.376   0.946   8.616  0.0752 -0.0470 -0.0212
  141loPI   C6A 2252  16.248   1.346   8.468  0.0323 -0.1556  0.0912
  141loPI   C1B 2253  16.788   0.371  10.302  0.2581  0.0850 -0.0034
  141loPI   C2B 2254  16.795   0.323   9.898 -0.1183  0.0525  0.3616
  141loPI   C3B 2255  16.858   0.292   9.485 -0.2627  0.1116  0.1237
  141loPI   C4B 2256  16.852   0.358   9.084  0.1002  0.1408 -0.0166
  142loPI    C1 2257  16.035   0.246  11.510 -0.1567  0.0749 -0.0763
  142loPI    C2 2258  16.016   0.596  11.702 -0.2321  0.0375 -0.0149
  142loPI    C3 2259  15.938   0.256  11.898  0.1382 -0.0411  0.0033
  142loPI   PO4 2260  16.175   0.327  11.273 -0.0475 -0.3759  0.2878
  142loPI   GL1 2261  16.231   0.326  10.953 -0.0463 -0.0892 -0.0633
  142loPI   GL2 2262  16.080   0.610  10.853 -0.2958 -0.0075  0.1186
  142loPI   C1A 2263  16.364   0.236  10.516  0.2303  0.2114  0.1777
  142loPI   C2A 2264  16.388   0.113  10.084 -0.0240 -0.0380  0.0324
  142loPI   C3A 2265  16.401   0.178   9.669 -0.1230  0.1812 -0.0402
  142loPI   C4A 2266  16.377   0.188   9.179  0.2589  0.0668 -0.0610
  142loPI   C5A 2267  16.253   0.306   8.845  0.5565  0.0455 -0.0457
  142loPI   C6A 2268  15.862   0.564   8.712 -0.5790  0.1980 -0.1500
  142loPI   C1B 2269  15.943   0.548  10.537 -0.1134 -0.2281  0.1582
  142loPI   C2B 2270  15.968   0.419  10.122  0.1297 -0.1728 -0.1256
  142loPI   C3B 2271  15.995   0.505   9.715  0.0801 -0.1470  0.0610
  142loPI   C4B 2272  15.982   0.461   9.251  0.2509 -0.0229  0.0022
  143loPI    C1 2273  14.374  12.233  11.338  0.2042 -0.1134 -0.0931
  143loPI    C2 2274  14.296  11.993  11.649  0.0022 -0.0027 -0.0563
  143loPI    C3 2275  14.470  12.348  11.709 -0.0480  0.0238 -0.0681
  143loPI   PO4 2276  14.391  12.078  11.136 -0.1062  0.0160 -0.1560
  143loPI   GL1 2277  14.437  12.081  10.717 -0.0818  0.0569 -0.2220
  143loPI   GL2 2278  14.619  11.844  10.565  0.0191 -0.0349  0.0368
  143loPI   C1A 2279  14.192  12.141  10.382 -0.2153  0.1021 -0.0439
  143loPI   C2A 2280  14.125  12.077   9.931 -0.1615 -0.1159 -0.0614
  143loPI   C3A 2281  14.167  12.039   9.530  0.1330 -0.0723  0.0106
  143loPI   C4A 2282  14.097  12.098   9.161  0.2552  0.3744 -0.0819
  143loPI   C5A 2283  14.075  12.081   8.717 -0.0878  0.2530 -0.0918
  143loPI   C6A 2284  13.945  12.087   8.379  0.0339  0.0214 -0.0346
  143loPI   C1B 2285  14.543  11.870  10.152  0.0586  0.0363 -0.2065
  143loPI   C2B 2286  14.541  11.747   9.756 -0.3173  0.0611  0.2058
  143loPI   C3B 2287  14.442  11.705   9.284  0.1226 -0.0957  0.1943
  143loPI   C4B 2288  14.499  11.689   8.815  0.0131 -0.4435  0.0385
  144loPI    C1 2289  11.538   5.999  10.864 -0.1567  0.0910 -0.0379
  144loPI    C2 2290  11.451   5.623  10.969  0.1272  0.0750  0.1500
  144loPI    C3 2291  11.757   5.814  11.143  0.0012  0.3854  0.0381
  144loPI   PO4 2292  11.554   5.934  10.558 -0.0599  0.0190  0.0986
  144loPI   GL1 2293  11.224   5.839  10.228 -0.2256 -0.1375 -0.2825
  144loPI   GL2 2294  11.425   6.067  10.071  0.0324  0.1021  0.0432
  144loPI   C1A 2295  11.227   5.634   9.914  0.0534  0.3141 -0.0512
  144loPI   C2A 2296  11.247   5.615   9.517 -0.1227  0.0471  0.2252
  144loPI   C3A 2297  11.269   5.585   9.062 -0.1706 -0.0370  0.2640
  144loPI   C4A 2298  11.305   5.596   8.620  0.2016 -0.0705 -0.2213
  144loPI   C5A 2299  11.411   5.422   8.216 -0.1178 -0.1621  0.0079
  144loPI   C6A 2300  11.691   5.174   8.046 -0.1169  0.3973 -0.2240
  144loPI   C1B 2301  11.456   6.116   9.559 -0.0514  0.1091  0.0245
  144loPI   C2B 2302  11.373   6.234   9.125  0.0480 -0.0528  0.0195
  144loPI   C3B 2303  11.328   6.300   8.748  0.1535  0.3565  0.0616
  144loPI   C4B 2304  11.280   6.096   8.396  0.2259  0.0615 -0.2107
  145loPI    C1 2305   2.558  12.156  11.201 -0.0630  0.1221  0.0249
  145loPI    C2 2306   2.613  12.077  11.590  0.0734 -0.2397 -0.0636
  145loPI    C3 2307   2.242  12.097  11.440  0.0216 -0.1409  0.0752
  145loPI   PO4 2308   2.700  12.377  11.158  0.1803  0.1094 -0.0299
  145loPI   GL1 2309   2.638  12.648  10.854 -0.0920 -0.0158  0.0937
  145loPI   GL2 2310   2.409  12.417  10.692 -0.0664  0.0256 -0.1806
  145loPI   C1A 2311   2.837  12.609  10.470 -0.0944  0.1695 -0.0520
  145loPI   C2A 2312   2.877  12.707   9.991  0.0713  0.0706 -0.1280
  145loPI   C3A 2313   2.870  12.709   9.542  0.2317  0.0239 -0.1730
  145loPI   C4A 2314   2.870  12.740   9.114  0.2259 -0.1217  0.0590
  145loPI   C5A 2315   2.896  12.764   8.702 -0.2276  0.2517 -0.1818
  145loPI   C6A 2316   3.030  12.590   8.340  0.0188 -0.0300 -0.0245
  145loPI   C1B 2317   2.430  12.469  10.252  0.1318  0.2784 -0.0005
  145loPI   C2B 2318   2.446  12.529   9.810  0.0841 -0.3033 -0.0636
  145loPI   C3B 2319   2.422  12.560   9.295  0.1591  0.2691  0.0085
  145loPI   C4B 2320   2.477  12.535   8.886  0.2680 -0.0060 -0.2640
  146loPI    C1 2321  16.178  15.673  11.823  0.1787  0.2939 -0.2624
  146loPI    C2 2322  16.520  15.850  11.930  0.0775  0.3361 -0.0021
  146loPI    C3 2323  16.186  15.917  12.139 -0.0863  0.2781 -0.2413
  146loPI   PO4 2324  16.215  15.600  11.589  0.0043  0.1024  0.0104
  146loPI   GL1 2325  16.288  15.626  11.156  0.0790  0.2155  0.3522
  146loPI   GL2 2326  16.060  15.561  10.937  0.3141  0.1520  0.1387
  146loPI   C1A 2327  16.544  15.852  10.851 -0.0619  0.1642  0.2222
  146loPI   C2A 2328  16.561  15.886  10.450 -0.2792 -0.0055  0.1084
  146loPI   C3A 2329  16.541  16.005  10.029 -0.1148  0.1262  0.0427
  146loPI   C4A 2330  16.597  16.051   9.587  0.0284  0.3793 -0.0876
  146loPI   C5A 2331  16.517  15.933   9.135  0.1167  0.1147  0.0951
  146loPI   C6A 2332  16.411  15.784   8.822 -0.0962  0.2431 -0.1591
  146loPI   C1B 2333  16.105  15.752  10.558  0.0816 -0.0906  0.0953
  146loPI   C2B 2334  16.113  15.768  10.066  0.4208 -0.1063 -0.0337
  146loPI   C3B 2335  16.104  15.784   9.652 -0.1249  0.1831  0.2781
  146loPI   C4B 2336  16.038  15.750   9.260  0.0082 -0.0861  0.1135
  147loPI    C1 2337   5.345   4.065  11.252 -0.0849  0.1379  0.0409
  147loPI    C2 2338   5.640   4.248  11.451  0.0463 -0.0753  0.0468
  147loPI    C3 2339   5.435   3.952  11.625 -0.0456 -0.0551 -0.0259
  147loPI   PO4 2340   5.320   4.244  11.006 -0.1583  0.1869 -0.0770
  147loPI   GL1 2341   5.533   4.374  10.701 -0.2088  0.1091  0.2199
  147loPI   GL2 2342   5.777   4.328  10.609  0.0184  0.1547  0.0300
  147loPI   C1A 2343   5.398   4.591  10.313 -0.4063  0.3648  0.1302
  147loPI   C2A 2344   5.473   4.578   9.944  0.1814  0.1406 -0.0677
  147loPI   C3A 2345   5.409   4.631   9.469  0.0514  0.0496  0.4897
  147loPI   C4A 2346   5.504   4.615   9.036 -0.0021 -0.1803 -0.0798
  147loPI   C5A 2347   5.631   4.545   8.671  0.4053 -0.3439  0.1598
  147loPI   C6A 2348   5.719   4.609   8.251  0.0569  0.2646 -0.0492
  147loPI   C1B 2349   5.805   4.236  10.204  0.1536 -0.0150 -0.2013
  147loPI   C2B 2350   5.855   4.272   9.820  0.0250 -0.2287 -0.0603
  147loPI   C3B 2351   5.823   4.268   9.326  0.0801  0.0381 -0.0004
  147loPI   C4B 2352   5.877   4.240   8.961  0.1854  0.0058 -0.0041
  148loPI    C1 2353   9.946  15.460  11.097  0.1451 -0.2293 -0.1151
  148loPI    C2 2354   9.875  15.100  11.257 -0.1562  0.0066  0.3033
  148loPI    C3 2355  10.187  15.316  11.383 -0.1071 -0.0121  0.2146
  148loPI   PO4 2356   9.712  15.492  10.967  0.1156  0.1878 -0.0122
  148loPI   GL1 2357   9.377  15.258  10.566  0.1012 -0.1458 -0.1595
  148loPI   GL2 2358   9.208  15.023  10.460 -0.1470  0.1725 -0.0988
  148loPI   C1A 2359   9.602  15.265  10.227  0.1783  0.2020  0.2743
  148loPI   C2A 2360   9.718  15.149   9.879 -0.1943 -0.2866  0.1507
  148loPI   C3A 2361   9.713  15.115   9.422  0.1747 -0.1285  0.0341
  148loPI   C4A 2362   9.680  15.262   8.975 -0.0510  0.3537 -0.2774
  148loPI   C5A 2363   9.703  15.363   8.626  0.0455 -0.1656 -0.0421
  148loPI   C6A 2364   9.697  15.689   8.462  0.1451  0.1387 -0.1546
  148loPI   C1B 2365   9.204  14.942  10.076  0.2357  0.1984 -0.0044
  148loPI   C2B 2366   9.211  14.926   9.703 -0.1133  0.1373  0.1126
  148loPI   C3B 2367   9.255  15.011   9.295  0.1132  0.1394  0.0701
  148loPI   C4B 2368   9.226  15.019   8.846 -0.0637  0.1386  0.2433
  149loPI    C1 2369   9.913   1.577  11.085  0.2748 -0.1067  0.0882
  149loPI    C2 2370   9.816   1.508  11.466 -0.2719 -0.1927 -0.0575
  149loPI    C3 2371  10.138   1.332  11.306 -0.1388 -0.2944  0.3118
  149loPI   PO4 2372   9.690   1.592  10.976  0.5238 -0.0683  0.1438
  149loPI   GL1 2373   9.530   1.513  10.557 -0.0597  0.1742  0.3064
  149loPI   GL2 2374   9.523   1.176  10.460  0.1268 -0.0232  0.0004
  149loPI   C1A 2375   9.514   1.777  10.290 -0.0700 -0.0606 -0.2898
  149loPI   C2A 2376   9.485   1.836   9.873 -0.1545 -0.0492 -0.0784
  149loPI   C3A 2377   9.398   1.755   9.503  0.2429 -0.1960  0.2954
  149loPI   C4A 2378   9.483   1.783   9.042 -0.1642  0.0480  0.0264
  149loPI   C5A 2379   9.462   1.743   8.542  0.2019  0.1293 -0.4156
  149loPI   C6A 2380   9.292   1.349   8.294 -0.0280  0.1773 -0.1558
  149loPI   C1B 2381   9.400   1.357  10.082 -0.2510 -0.1653  0.0155
  149loPI   C2B 2382   9.348   1.271   9.676  0.1366 -0.2510 -0.0952
  149loPI   C3B 2383   9.371   1.327   9.235 -0.0735 -0.0363  0.2013
  149loPI   C4B 2384   9.429   1.327   8.831 -0.0991  0.0812  0.1190
  150loPI    C1 2385   8.231   2.115  11.065  0.1226  0.0859 -0.1622
  150loPI    C2 2386   8.528   1.929  11.259  0.0928 -0.1068 -0.2990
  150loPI    C3 2387   8.154   1.910  11.400  0.1509  0.1769 -0.0998
  150loPI   PO4 2388   8.384   2.094  10.785 -0.0912 -0.0663 -0.0879
  150loPI   GL1 2389   8.505   1.906  10.378 -0.0876 -0.0661 -0.0291
  150loPI   GL2 2390   8.451   1.614  10.450 -0.1890  0.0367 -0.0406
  150loPI   C1A 2391   8.640   1.908   9.947  0.0524  0.1133  0.0004
  150loPI   C2A 2392   8.578   1.952   9.463 -0.0041  0.1582 -0.4152
  150loPI   C3A 2393   8.588   1.963   8.973 -0.1301  0.0343  0.1529
  150loPI   C4A 2394   8.493   1.940   8.577  0.2852 -0.1322  0.0386
  150loPI   C5A 2395   8.110   1.933   8.375 -0.0756 -0.0174 -0.1896
  150loPI   C6A 2396   7.772   1.820   8.312  0.0957 -0.1176  0.1668
  150loPI   C1B 2397   8.536   1.448  10.079  0.2784  0.1100 -0.0833
  150loPI   C2B 2398   8.422   1.436   9.630 -0.2119  0.2271 -0.2833
  150loPI   C3B 2399   8.491   1.460   9.205 -0.0255 -0.1795  0.0612
  150loPI   C4B 2400   8.445   1.454   8.763 -0.1799 -0.3651 -0.5679
  151loPI    C1 2401   8.594   9.856  10.963 -0.2008 -0.0051  0.1262
  151loPI    C2 2402   8.315   9.703  11.205 -0.0022 -0.1789  0.2484
  151loPI    C3 2403   8.694   9.729  11.328  0.0333  0.0783  0.0929
  151loPI   PO4 2404   8.594   9.666  10.708  0.1017 -0.1491 -0.0471
  151loPI   GL1 2405   8.781   9.777  10.367  0.0204  0.1279  0.0005
  151loPI   GL2 2406   8.790  10.080  10.171 -0.2609  0.1557  0.0499
  151loPI   C1A 2407   8.801   9.613   9.930  0.1443  0.0568 -0.1948
  151loPI   C2A 2408   8.709   9.516   9.498  0.4155  0.1103  0.2617
  151loPI   C3A 2409   8.725   9.598   9.045 -0.1109 -0.0970 -0.1276
  151loPI   C4A 2410   8.588   9.684   8.610 -0.0071  0.0877 -0.1110
  151loPI   C5A 2411   8.477   9.417   8.264  0.0521  0.2693  0.1280
  151loPI   C6A 2412   8.312   9.110   8.308 -0.1391  0.1276  0.1516
  151loPI   C1B 2413   8.749  10.055   9.710 -0.0454 -0.0703 -0.1586
  151loPI   C2B 2414   8.715  10.010   9.361 -0.1247 -0.2469  0.1564
  151loPI   C3B 2415   8.706  10.086   8.899  0.1339  0.1374  0.3171
  151loPI   C4B 2416   8.748  10.154   8.473  0.0230  0.0839 -0.0656
  152loPI    C1 2417  17.533  10.716  10.935  0.4058 -0.0691  0.0696
  152loPI    C2 2418  17.609  10.341  11.053  0.0136 -0.2236 -0.1486
  152loPI    C3 2419  17.305  10.544  11.215  0.2275  0.0055 -0.0279
  152loPI   PO4 2420  17.680  10.689  10.661 -0.0321  0.0463  0.0859
  152loPI   GL1 2421  18.093  10.575  10.496  0.2295  0.1376 -0.0106
  152loPI   GL2 2422  18.200  10.383  10.217  0.0424 -0.4173 -0.0837
  152loPI   C1A 2423  17.973  10.756  10.086  0.2041 -0.2572  0.2943
  152loPI   C2A 2424  17.976  10.712   9.693  0.4300 -0.0278  0.1586
  152loPI   C3A 2425  18.032  10.716   9.323 -0.3504 -0.0741 -0.2034
  152loPI   C4A 2426  18.030  10.694   8.890  0.2519  0.0029 -0.3165
  152loPI   C5A 2427  18.083  10.624   8.435  0.0247  0.0519  0.1143
  152loPI   C6A 2428  18.454  10.556   8.313  0.2181  0.1487  0.1460
  152loPI   C1B 2429  18.351  10.435   9.826  0.1562 -0.1601 -0.1673
  152loPI   C2B 2430  18.470  10.467   9.355 -0.1739  0.2752  0.0491
  152loPI   C3B 2431  18.436  10.437   8.884 -0.1668  0.1896 -0.0312
  152loPI   C4B 2432  18.767  10.374   8.611 -0.0783 -0.0792  0.1649
  153loPI    C1 2433   6.066  13.067  11.220 -0.0537 -0.2462  0.0067
  153loPI    C2 2434   5.927  13.332  11.486 -0.1150  0.0001 -0.2657
  153loPI    C3 2435   6.190  13.053  11.600 -0.0595  0.1690  0.0285
  153loPI   PO4 2436   5.938  13.217  11.001 -0.1752  0.4446 -0.0395
  153loPI   GL1 2437   6.142  13.432  10.743  0.0076 -0.1907 -0.2194
  153loPI   GL2 2438   6.079  13.784  10.743 -0.2057  0.2028  0.1009
  153loPI   C1A 2439   6.113  13.343  10.232  0.2560  0.0864  0.1324
  153loPI   C2A 2440   6.205  13.357   9.810  0.2683  0.2370 -0.0459
  153loPI   C3A 2441   6.217  13.434   9.386  0.1953  0.0894 -0.0893
  153loPI   C4A 2442   6.071  13.489   8.944  0.2170 -0.2367  0.0599
  153loPI   C5A 2443   6.394  13.709   8.663 -0.1971 -0.0339  0.2236
  153loPI   C6A 2444   6.714  13.893   8.652 -0.1432  0.3455 -0.1530
  153loPI   C1B 2445   6.193  13.815  10.348 -0.1216 -0.1363 -0.0452
  153loPI   C2B 2446   6.312  13.895   9.889  0.0846  0.2022  0.1102
  153loPI   C3B 2447   6.263  14.000   9.427 -0.0314  0.1348  0.0562
  153loPI   C4B 2448   6.247  13.971   9.034  0.0779  0.0156  0.0490
  154loPI    C1 2449  11.092   9.707  10.870 -0.1574 -0.1920 -0.0798
  154loPI    C2 2450  11.348   9.417  10.973  0.1134  0.1175  0.1398
  154loPI    C3 2451  11.227   9.683  11.246 -0.1909  0.1697 -0.0411
  154loPI   PO4 2452  10.892   9.602  10.793 -0.0807 -0.6091  0.0226
  154loPI   GL1 2453  10.721   9.642  10.416 -0.3896  0.1321 -0.4798
  154loPI   GL2 2454  10.883   9.876  10.241 -0.1044 -0.1577 -0.0261
  154loPI   C1A 2455  10.564   9.638   9.951  0.0040 -0.3080 -0.0273
  154loPI   C2A 2456  10.526   9.668   9.493  0.1062 -0.1024 -0.0511
  154loPI   C3A 2457  10.433   9.722   9.077  0.1607 -0.2946  0.1564
  154loPI   C4A 2458  10.457   9.750   8.652 -0.1445  0.5046  0.1398
  154loPI   C5A 2459  10.533   9.997   8.266  0.1171 -0.0125 -0.4035
  154loPI   C6A 2460  10.582   9.741   8.010 -0.1692 -0.1086  0.0709
  154loPI   C1B 2461  10.991   9.945   9.823  0.0204  0.1732 -0.0825
  154loPI   C2B 2462  10.936   9.975   9.343  0.0989  0.3496 -0.1493
  154loPI   C3B 2463  10.942   9.940   8.915  0.1356 -0.1560  0.0808
  154loPI   C4B 2464  11.016   9.958   8.467 -0.0406  0.2939  0.0281
  155loPI    C1 2465  16.362   4.745  11.150  0.1486  0.1098 -0.0848
  155loPI    C2 2466  16.590   4.460  11.316  0.2019  0.2198  0.0329
  155loPI    C3 2467  16.427   4.745  11.545  0.0207  0.1952 -0.0634
  155loPI   PO4 2468  16.257   4.665  10.967 -0.4695 -0.0702 -0.2023
  155loPI   GL1 2469  16.212   4.671  10.485 -0.0371  0.0333 -0.1988
  155loPI   GL2 2470  16.051   4.343  10.513  0.1214 -0.3764 -0.0782
  155loPI   C1A 2471  16.190   4.913  10.049 -0.3582  0.3218 -0.0208
  155loPI   C2A 2472  16.288   4.899   9.702 -0.0961 -0.0180  0.0558
  155loPI   C3A 2473  16.252   4.928   9.208  0.0167  0.2149  0.2576
  155loPI   C4A 2474  16.283   4.986   8.826 -0.0168 -0.1048 -0.0590
  155loPI   C5A 2475  16.150   4.855   8.386  0.0481 -0.0277  0.0711
  155loPI   C6A 2476  16.135   4.645   7.951  0.0887  0.2223 -0.2311
  155loPI   C1B 2477  16.072   4.406  10.076 -0.0101 -0.1299 -0.0220
  155loPI   C2B 2478  16.181   4.377   9.614  0.0011 -0.2525 -0.4468
  155loPI   C3B 2479  16.156   4.466   9.263  0.0056  0.1948 -0.2793
  155loPI   C4B 2480  16.233   4.479   8.764  0.0750 -0.0871 -0.3825
  156loPI    C1 2481   9.500   1.043  10.929  0.1929 -0.0210 -0.2273
  156loPI    C2 2482   9.720   1.033  11.263  0.2213  0.0090 -0.2450
  156loPI    C3 2483   9.405   1.278  11.238  0.2934  0.0976 -0.2859
  156loPI   PO4 2484   9.404   0.726  10.828 -0.0314 -0.1186  0.2587
  156loPI   GL1 2485   9.499   0.585  10.496 -0.0615  0.3370  0.4055
  156loPI   GL2 2486   9.252   0.726  10.391 -0.0142  0.1518  0.1270
  156loPI   C1A 2487   9.685   0.706  10.138  0.1623  0.3130 -0.1464
  156loPI   C2A 2488   9.662   1.000   9.835  0.2060  0.2776  0.0282
  156loPI   C3A 2489   9.794   1.008   9.397 -0.0654 -0.0167 -0.0236
  156loPI   C4A 2490   9.866   0.986   8.912 -0.1788 -0.1300 -0.1770
  156loPI   C5A 2491   9.852   1.188   8.505 -0.1440  0.1996 -0.1715
  156loPI   C6A 2492   9.735   1.526   8.173  0.2270  0.0854 -0.0876
  156loPI   C1B 2493   9.184   0.846   9.931 -0.1764 -0.1721 -0.1526
  156loPI   C2B 2494   9.294   0.837   9.497 -0.1571  0.1626 -0.2302
  156loPI   C3B 2495   9.316   0.838   9.046  0.2323  0.1478 -0.2568
  156loPI   C4B 2496   9.461   0.904   8.561  0.2297 -0.0403 -0.0428
  157loPI    C1 2497   6.407   3.203  11.497  0.2343 -0.1378 -0.2035
  157loPI    C2 2498   6.598   2.857  11.561 -0.0321 -0.2660 -0.0883
  157loPI    C3 2499   6.348   3.002  11.838 -0.0713 -0.0795 -0.2192
  157loPI   PO4 2500   6.539   3.233  11.179 -0.0599  0.0765 -0.1199
  157loPI   GL1 2501   6.467   3.366  10.788 -0.4212  0.0561 -0.0797
  157loPI   GL2 2502   6.593   3.693  10.549  0.1628  0.3130  0.2114
  157loPI   C1A 2503   6.537   3.107  10.398 -0.4645  0.0284  0.0236
  157loPI   C2A 2504   6.488   3.070   9.969 -0.0502 -0.0812  0.2906
  157loPI   C3A 2505   6.498   3.058   9.492  0.1867 -0.0832 -0.4230
  157loPI   C4A 2506   6.563   3.175   9.059 -0.3574 -0.1350  0.0074
  157loPI   C5A 2507   6.645   3.140   8.599 -0.3757  0.0852 -0.0668
  157loPI   C6A 2508   6.794   3.403   8.210 -0.0224 -0.2206 -0.1655
  157loPI   C1B 2509   6.617   3.539  10.122  0.0699 -0.0648 -0.1956
  157loPI   C2B 2510   6.571   3.564   9.636  0.1241 -0.0123  0.0399
  157loPI   C3B 2511   6.601   3.672   9.218 -0.0570  0.2609 -0.2299
  157loPI   C4B 2512   6.641   3.681   8.699 -0.1082 -0.2892 -0.1655
  158loPI    C1 2513   6.806  11.415  11.069 -0.0802 -0.0519 -0.0258
  158loPI    C2 2514   6.967  11.065  11.177 -0.0880 -0.0867 -0.1255
  158loPI    C3 2515   6.753  11.277  11.440 -0.0671 -0.1476 -0.0591
  158loPI   PO4 2516   6.927  11.475  10.925 -0.0912 -0.0795 -0.0700
  158loPI   GL1 2517   7.097  11.763  10.739  0.1056 -0.0590 -0.1249
  158loPI   GL2 2518   7.133  11.441  10.463 -0.0955  0.0522 -0.4362
  158loPI   C1A 2519   7.264  11.850  10.297 -0.0432  0.2001  0.1349
  158loPI   C2A 2520   7.264  11.903   9.840  0.1535 -0.0288 -0.0117
  158loPI   C3A 2521   7.234  11.829   9.440  0.3479 -0.1548  0.1458
  158loPI   C4A 2522   7.265  11.903   8.960  0.2799 -0.0887 -0.3554
  158loPI   C5A 2523   7.145  11.995   8.515 -0.2016  0.2904  0.1677
  158loPI   C6A 2524   6.961  11.963   8.144 -0.1749 -0.1885 -0.2916
  158loPI   C1B 2525   7.229  11.382   9.991 -0.1708  0.2557 -0.2530
  158loPI   C2B 2526   7.204  11.356   9.558 -0.3409  0.0620  0.0998
  158loPI   C3B 2527   7.140  11.293   9.180  0.1483 -0.1102  0.1839
  158loPI   C4B 2528   7.060  11.378   8.736 -0.1556  0.5136 -0.1866
  159loPI    C1 2529  12.540  10.235  10.908 -0.3149 -0.2688  0.1670
  159loPI    C2 2530  12.644  10.288  11.290 -0.0428 -0.0307  0.0645
  159loPI    C3 2531  12.735   9.946  11.104  0.0601 -0.0435  0.1374
  159loPI   PO4 2532  12.393  10.383  10.877  0.2668 -0.0775  0.3688
  159loPI   GL1 2533  12.382  10.370  10.444  0.0400 -0.2815  0.0250
  159loPI   GL2 2534  12.060  10.546  10.532  0.0500  0.3062  0.2839
  159loPI   C1A 2535  12.469  10.476  10.070  0.1723  0.0260 -0.3107
  159loPI   C2A 2536  12.597  10.556   9.685  0.1874  0.1544  0.0939
  159loPI   C3A 2537  12.546  10.457   9.259  0.2215  0.0382  0.0438
  159loPI   C4A 2538  12.382  10.533   8.917 -0.1737 -0.2014  0.2240
  159loPI   C5A 2539  12.242  10.577   8.437  0.3717  0.3539 -0.0049
  159loPI   C6A 2540  12.256  10.617   7.936 -0.3139  0.2534  0.1924
  159loPI   C1B 2541  12.065  10.822  10.176  0.0646 -0.1299  0.1233
  159loPI   C2B 2542  11.995  10.869   9.721 -0.2164  0.1962  0.2707
  159loPI   C3B 2543  12.091  10.846   9.278  0.2081  0.2149  0.2931
  159loPI   C4B 2544  12.001  10.877   8.862  0.3053 -0.0646  0.0123
  160loPI    C1 2545   6.995  16.700  11.290 -0.1194  0.1041 -0.0834
  160loPI    C2 2546   6.757  16.408  11.425 -0.0971  0.2087  0.1885
  160loPI    C3 2547   7.154  16.356  11.417 -0.1179  0.0808 -0.1484
  160loPI   PO4 2548   6.842  16.801  11.014  0.0423  0.2151  0.0166
  160loPI   GL1 2549   6.664  16.586  10.571 -0.0718  0.0558  0.0461
  160loPI   GL2 2550   6.333  16.707  10.678 -0.0096  0.2063 -0.0965
  160loPI   C1A 2551   6.690  16.440  10.100 -0.1394 -0.0851 -0.3659
  160loPI   C2A 2552   6.779  16.551   9.731 -0.3149 -0.1779  0.2163
  160loPI   C3A 2553   6.793  16.607   9.328 -0.1806  0.0250 -0.1568
  160loPI   C4A 2554   6.743  16.664   8.865  0.0138  0.0694  0.3958
  160loPI   C5A 2555   6.914  16.560   8.507  0.1332 -0.3153 -0.3642
  160loPI   C6A 2556   6.794  16.565   8.121 -0.2480  0.1416 -0.1515
  160loPI   C1B 2557   6.327  16.782  10.263  0.0280  0.0485 -0.0982
  160loPI   C2B 2558   6.293  16.874   9.839 -0.2183 -0.3689 -0.3325
  160loPI   C3B 2559   6.383  16.906   9.459 -0.1841  0.1877 -0.2124
  160loPI   C4B 2560   6.344  16.928   9.080 -0.0911  0.0913  0.1925
  161loPI    C1 2561  11.635  11.508  11.029  0.2052 -0.1552  0.1003
  161loPI    C2 2562  11.443  11.187  11.170 -0.1447  0.0390  0.0775
  161loPI    C3 2563  11.663  11.413  11.416 -0.0322 -0.1218  0.1269
  161loPI   PO4 2564  11.652  11.450  10.795  0.1087  0.0925  0.0893
  161loPI   GL1 2565  11.502  11.488  10.429 -0.0632  0.3295  0.2305
  161loPI   GL2 2566  11.760  11.708  10.302 -0.2018 -0.0458 -0.2183
  161loPI   C1A 2567  11.248  11.482  10.069 -0.1860  0.0102  0.1256
  161loPI   C2A 2568  11.231  11.498   9.648  0.0456 -0.0771  0.1062
  161loPI   C3A 2569  11.254  11.497   9.186  0.1628 -0.1539  0.2219
  161loPI   C4A 2570  11.187  11.442   8.757 -0.0909  0.1195  0.2165
  161loPI   C5A 2571  11.265  11.169   8.332 -0.2627 -0.1359  0.0339
  161loPI   C6A 2572  11.282  10.985   7.941 -0.0740  0.1072  0.2017
  161loPI   C1B 2573  11.718  11.579   9.833 -0.0166 -0.0570 -0.1656
  161loPI   C2B 2574  11.685  11.632   9.341  0.1107  0.1300 -0.0289
  161loPI   C3B 2575  11.732  11.583   8.940  0.0576 -0.2853 -0.4712
  161loPI   C4B 2576  11.640  11.549   8.515  0.0505 -0.1725 -0.2399
  162loPI    C1 2577  14.807   6.463  11.009 -0.0427 -0.1740  0.2741
  162loPI    C2 2578  15.132   6.525  11.234  0.1394 -0.0187 -0.0255
  162loPI    C3 2579  15.042   6.156  11.111  0.1128 -0.0849  0.1895
  162loPI   PO4 2580  14.841   6.633  10.722  0.2253 -0.1190  0.0259
  162loPI   GL1 2581  14.969   6.551  10.314  0.3560 -0.2442 -0.2508
  162loPI   GL2 2582  14.618   6.608  10.318  0.0534  0.0483  0.1855
  162loPI   C1A 2583  15.054   6.516   9.871 -0.1489  0.2573 -0.2226
  162loPI   C2A 2584  15.059   6.454   9.385  0.1803 -0.0646 -0.0917
  162loPI   C3A 2585  15.040   6.475   8.892  0.0142  0.1445  0.2119
  162loPI   C4A 2586  15.176   6.522   8.577  0.1724  0.1223  0.0349
  162loPI   C5A 2587  15.144   6.574   8.139  0.0852 -0.0761  0.0523
  162loPI   C6A 2588  15.183   6.353   7.736 -0.1020  0.1651  0.0228
  162loPI   C1B 2589  14.601   6.344  10.030 -0.1589  0.0675 -0.0118
  162loPI   C2B 2590  14.603   6.361   9.562 -0.0638  0.1416  0.0649
  162loPI   C3B 2591  14.602   6.263   9.135  0.1292 -0.2794 -0.0117
  162loPI   C4B 2592  14.485   6.261   8.730  0.1321  0.2130  0.1409
  163loPI    C1 2593   2.160   8.567  10.571  0.1451  0.0539 -0.1292
  163loPI    C2 2594   2.272   8.891  10.777  0.0761 -0.0841  0.1296
  163loPI    C3 2595   2.397   8.529  10.891 -0.2230 -0.1921  0.1217
  163loPI   PO4 2596   2.121   8.653  10.358  0.1538 -0.0678  0.2507
  163loPI   GL1 2597   1.874   8.836   9.950 -0.0711  0.0686  0.0466
  163loPI   GL2 2598   1.673   8.615  10.088  0.0704  0.0160  0.0450
  163loPI   C1A 2599   2.041   8.734   9.480 -0.0875 -0.1762 -0.5115
  163loPI   C2A 2600   1.848   8.757   9.076  0.1705  0.4749  0.3270
  163loPI   C3A 2601   1.976   8.742   8.674  0.0740 -0.1022  0.1839
  163loPI   C4A 2602   1.815   8.826   8.219 -0.1574 -0.2538  0.1522
  163loPI   C5A 2603   1.347   8.753   8.067 -0.1412  0.0824 -0.0808
  163loPI   C6A 2604   0.958   8.973   7.870 -0.1501 -0.0694 -0.1664
  163loPI   C1B 2605   1.411   8.513   9.756 -0.1583  0.3856 -0.0576
  163loPI   C2B 2606   1.458   8.548   9.319 -0.2182  0.0010  0.1450
  163loPI   C3B 2607   1.438   8.577   8.936  0.0043  0.1195  0.1980
  163loPI   C4B 2608   1.490   8.611   8.554  0.1488 -0.3788 -0.2499
  164loPI    C1 2609   2.494   3.624  11.287  0.0112 -0.0039  0.0459
  164loPI    C2 2610   2.744   3.409  11.514  0.0403 -0.3368 -0.2908
  164loPI    C3 2611   2.352   3.331  11.519 -0.0489  0.0874  0.1252
  164loPI   PO4 2612   2.591   3.614  11.017 -0.0539  0.1374 -0.0056
  164loPI   GL1 2613   2.364   3.670  10.589  0.1262 -0.0138  0.1460
  164loPI   GL2 2614   2.213   3.933  10.480 -0.0806  0.2226  0.0349
  164loPI   C1A 2615   2.560   3.539  10.172 -0.0883  0.2211  0.1313
  164loPI   C2A 2616   2.633   3.525   9.705  0.0498  0.1067  0.1206
  164loPI   C3A 2617   2.565   3.636   9.224  0.1528 -0.1448  0.2098
  164loPI   C4A 2618   2.476   3.594   8.792  0.1694  0.0085 -0.0392
  164loPI   C5A 2619   2.576   3.757   8.370  0.3670 -0.2810  0.1168
  164loPI   C6A 2620   2.409   4.195   8.251 -0.1343 -0.2020  0.0713
  164loPI   C1B 2621   2.259   3.917  10.068 -0.1437  0.0827 -0.1784
  164loPI   C2B 2622   2.240   3.895   9.556  0.0452 -0.1682  0.1030
  164loPI   C3B 2623   2.152   3.911   9.127  0.1403 -0.2396 -0.0460
  164loPI   C4B 2624   2.100   3.955   8.716 -0.2527 -0.0680  0.2940
  165loPI    C1 2625   6.453   1.812  11.407 -0.0236 -0.1292  0.1841
  165loPI    C2 2626   6.697   1.823  11.723  0.1797  0.0942  0.0237
  165loPI    C3 2627   6.361   2.039  11.723  0.1408  0.0342  0.1171
  165loPI   PO4 2628   6.582   1.906  11.167 -0.0142  0.0806 -0.0300
  165loPI   GL1 2629   6.413   1.915  10.758  0.2948 -0.0192 -0.0079
  165loPI   GL2 2630   6.314   1.555  10.606  0.0177 -0.2532 -0.0568
  165loPI   C1A 2631   6.404   2.102  10.278 -0.0099  0.1511 -0.2997
  165loPI   C2A 2632   6.304   2.078   9.854  0.0059 -0.0817  0.1674
  165loPI   C3A 2633   6.334   2.090   9.397  0.0251  0.0015 -0.0231
  165loPI   C4A 2634   6.288   2.034   9.069 -0.4874 -0.0153  0.1009
  165loPI   C5A 2635   6.550   1.900   8.690  0.1418  0.0945  0.0982
  165loPI   C6A 2636   6.913   1.649   8.683 -0.0082 -0.0548  0.3160
  165loPI   C1B 2637   6.296   1.540  10.107  0.3257 -0.0115  0.1976
  165loPI   C2B 2638   6.254   1.586   9.592 -0.1289 -0.1701 -0.0014
  165loPI   C3B 2639   6.252   1.565   9.077 -0.0331 -0.2370  0.2797
  165loPI   C4B 2640   6.130   1.631   8.639  0.1179 -0.1706  0.4093
  166loPI    C1 2641   0.868   0.551  11.722 -0.0049 -0.0946 -0.3117
  166loPI    C2 2642   1.176   0.612  11.969 -0.1610 -0.1328 -0.1048
  166loPI    C3 2643   0.870   0.869  11.965 -0.1536 -0.1256 -0.2686
  166loPI   PO4 2644   0.961   0.476  11.517  0.0540  0.3128 -0.0072
  166loPI   GL1 2645   1.007   0.381  11.050 -0.3465 -0.0863 -0.0694
  166loPI   GL2 2646   0.728   0.643  10.990 -0.0395 -0.0965  0.0908
  166loPI   C1A 2647   1.006   0.149  10.725 -0.4380 -0.1406  0.0277
  166loPI   C2A 2648   0.954   0.146  10.346  0.0265 -0.2011  0.0094
  166loPI   C3A 2649   0.891   0.160   9.949 -0.3791  0.0953 -0.3831
  166loPI   C4A 2650   1.014   0.051   9.542 -0.1135  0.2528  0.0640
  166loPI   C5A 2651   0.937   0.068   9.148  0.0851 -0.1317  0.0329
  166loPI   C6A 2652   0.990  -0.388   8.968 -0.1032  0.0738 -0.1241
  166loPI   C1B 2653   0.589   0.497  10.495 -0.0441  0.0175 -0.0812
  166loPI   C2B 2654   0.465   0.444  10.045  0.0223  0.1102  0.2530
  166loPI   C3B 2655   0.574   0.356   9.584  0.0083  0.3116  0.2302
  166loPI   C4B 2656   0.476   0.471   9.275 -0.0166  0.0473  0.0209
  167loPI    C1 2657   4.020   0.224  11.602 -0.1861  0.2388  0.0768
  167loPI    C2 2658   4.347   0.090  11.790 -0.0732  0.0222 -0.2646
  167loPI    C3 2659   4.017  -0.136  11.777 -0.2526  0.2530  0.1047
  167loPI   PO4 2660   4.164   0.291  11.343  0.0208  0.0101  0.0574
  167loPI   GL1 2661   4.183   0.633  11.106 -0.3333 -0.0399 -0.0837
  167loPI   GL2 2662   4.267   0.818  10.928  0.2734 -0.0284 -0.2150
  167loPI   C1A 2663   4.086   0.289  10.735 -0.1831  0.0312 -0.1833
  167loPI   C2A 2664   4.191   0.249  10.317 -0.1014  0.1393  0.1199
  167loPI   C3A 2665   4.176   0.320   9.888  0.0382  0.3144 -0.2684
  167loPI   C4A 2666   4.242   0.342   9.463  0.0150  0.0705  0.1104
  167loPI   C5A 2667   4.391   0.398   9.033 -0.1178  0.1147 -0.0166
  167loPI   C6A 2668   4.343   0.465   8.735 -0.0467  0.0806  0.1481
  167loPI   C1B 2669   4.282   0.785  10.497  0.0054  0.4526 -0.0145
  167loPI   C2B 2670   4.243   0.764  10.152 -0.1431 -0.1723  0.2337
  167loPI   C3B 2671   4.266   0.837   9.695 -0.3386 -0.3371  0.1149
  167loPI   C4B 2672   4.276   0.841   9.315 -0.0676  0.3096 -0.0871
  168loPI    C1 2673  10.486   9.347  11.144 -0.1322 -0.1416  0.2109
  168loPI    C2 2674  10.876   9.280  11.204  0.0371  0.2813 -0.3337
  168loPI    C3 2675  10.702   9.604  11.362 -0.1389  0.0143  0.0360
  168loPI   PO4 2676  10.466   9.319  10.820 -0.0720  0.0730  0.0667
  168loPI   GL1 2677  10.364   9.186  10.481 -0.0988 -0.2489  0.1629
  168loPI   GL2 2678  10.208   8.917  10.423 -0.0855  0.2089  0.1246
  168loPI   C1A 2679  10.532   9.146  10.111 -0.2105  0.0479  0.0574
  168loPI   C2A 2680  10.486   9.175   9.653 -0.1575 -0.0310  0.0238
  168loPI   C3A 2681  10.478   9.279   9.246  0.2464 -0.1605 -0.0027
  168loPI   C4A 2682  10.440   9.281   8.829 -0.1987  0.2083  0.2353
  168loPI   C5A 2683  10.566   9.307   8.404 -0.1756 -0.1433  0.0030
  168loPI   C6A 2684  10.855   9.248   8.155 -0.3598 -0.0127  0.0650
  168loPI   C1B 2685  10.043   8.893   9.986 -0.1327 -0.1715 -0.0506
  168loPI   C2B 2686   9.998   8.996   9.558 -0.0795 -0.0721  0.2849
  168loPI   C3B 2687   9.993   9.125   9.127  0.0787  0.3398  0.2454
  168loPI   C4B 2688   9.857   9.151   8.684  0.2153 -0.1796  0.0571
  169loPI    C1 2689   6.257   9.872  11.212 -0.1724 -0.1118  0.0485
  169loPI    C2 2690   6.619  10.019  11.299 -0.0591 -0.2875 -0.1151
  169loPI    C3 2691   6.292  10.183  11.460  0.0855 -0.0617 -0.0465
  169loPI   PO4 2692   6.301   9.838  10.945 -0.1174  0.4175 -0.0347
  169loPI   GL1 2693   6.317   9.834  10.600 -0.0019 -0.2895 -0.0115
  169loPI   GL2 2694   6.158  10.067  10.495  0.0471 -0.2417  0.3748
  169loPI   C1A 2695   6.371   9.715  10.205  0.1886 -0.3767 -0.0652
  169loPI   C2A 2696   6.425   9.731   9.814 -0.3009 -0.2097 -0.2388
  169loPI   C3A 2697   6.350   9.780   9.379  0.2515  0.0074  0.0052
  169loPI   C4A 2698   6.270   9.663   8.917  0.0410 -0.1044 -0.2605
  169loPI   C5A 2699   6.183   9.773   8.513 -0.0812  0.0298  0.3367
  169loPI   C6A 2700   5.912   9.940   8.258  0.2697 -0.2052  0.0858
  169loPI   C1B 2701   5.979  10.001  10.084  0.2662 -0.3570 -0.2006
  169loPI   C2B 2702   6.077  10.066   9.643 -0.0926  0.0517 -0.0296
  169loPI   C3B 2703   5.976  10.074   9.133  0.0181 -0.0204 -0.0575
  169loPI   C4B 2704   5.884  10.149   8.689 -0.1725 -0.0778 -0.0251
  170loPI    C1 2705   1.936   7.034  10.742  0.0068 -0.1471  0.2081
  170loPI    C2 2706   1.580   7.211  10.786  0.0536  0.0162 -0.0456
  170loPI    C3 2707   1.907   7.377  10.945  0.0699  0.0609 -0.1250
  170loPI   PO4 2708   1.953   6.974  10.439  0.0995  0.1745 -0.1481
  170loPI   GL1 2709   2.000   6.699  10.189 -0.1372 -0.2239  0.1370
  170loPI   GL2 2710   1.717   6.593  10.074 -0.0653 -0.1611  0.0631
  170loPI   C1A 2711   2.086   6.722   9.721 -0.0833  0.0179 -0.0964
  170loPI   C2A 2712   2.058   6.688   9.319  0.1573 -0.1827 -0.0328
  170loPI   C3A 2713   2.030   6.752   8.917  0.1391 -0.2114  0.2025
  170loPI   C4A 2714   2.016   6.798   8.472 -0.0313  0.0212 -0.0964
  170loPI   C5A 2715   1.904   6.447   8.189 -0.1199  0.1499 -0.3293
  170loPI   C6A 2716   2.197   6.131   8.049  0.0944 -0.2377  0.2305
  170loPI   C1B 2717   1.550   6.600   9.686  0.0108  0.0563 -0.2022
  170loPI   C2B 2718   1.587   6.594   9.226  0.1727 -0.0790  0.3377
  170loPI   C3B 2719   1.540   6.669   8.790 -0.0276 -0.2807  0.1616
  170loPI   C4B 2720   1.514   6.748   8.256 -0.0687 -0.2848  0.0813
  171loPI    C1 2721  15.231   7.300  10.913 -0.2178  0.0981 -0.0218
  171loPI    C2 2722  14.866   7.196  10.785 -0.1100 -0.2674 -0.0448
  171loPI    C3 2723  15.070   6.952  11.028  0.1790 -0.1335 -0.1485
  171loPI   PO4 2724  15.318   7.422  10.716  0.4338  0.1981 -0.2380
  171loPI   GL1 2725  15.091   7.370  10.298 -0.5233 -0.3392  0.2093
  171loPI   GL2 2726  15.131   7.632  10.061  0.0283  0.3150  0.0092
  171loPI   C1A 2727  15.146   7.020  10.035 -0.2263  0.2748  0.1303
  171loPI   C2A 2728  15.162   6.959   9.525  0.0348  0.2721  0.1332
  171loPI   C3A 2729  15.204   6.969   9.110 -0.0362  0.1038 -0.0363
  171loPI   C4A 2730  15.160   7.006   8.775 -0.1944 -0.2874  0.0422
  171loPI   C5A 2731  15.050   7.118   8.401  0.1726 -0.1920  0.0081
  171loPI   C6A 2732  15.195   7.167   8.046  0.0773 -0.3319  0.0701
  171loPI   C1B 2733  15.190   7.501   9.664  0.0425 -0.2055  0.2299
  171loPI   C2B 2734  15.186   7.437   9.267  0.0717 -0.2555 -0.0979
  171loPI   C3B 2735  15.205   7.475   8.849  0.2559 -0.0834  0.0045
  171loPI   C4B 2736  15.162   7.631   8.401 -0.0179  0.3421  0.0338
  172loPI    C1 2737   8.532   9.291  11.071 -0.0786 -0.0529  0.0085
  172loPI    C2 2738   8.755   9.172  11.381  0.0692 -0.1735 -0.1422
  172loPI    C3 2739   8.391   9.015  11.324  0.0992 -0.2552 -0.1099
  172loPI   PO4 2740   8.568   9.184  10.872 -0.0451 -0.1879 -0.1494
  172loPI   GL1 2741   8.664   8.956  10.456  0.2970  0.3177 -0.2930
  172loPI   GL2 2742   8.749   9.252  10.379 -0.1896  0.1747 -0.1265
  172loPI   C1A 2743   8.601   8.651  10.245  0.1396  0.0316  0.1468
  172loPI   C2A 2744   8.567   8.597   9.860  0.4426 -0.3750  0.1793
  172loPI   C3A 2745   8.541   8.578   9.395  0.0229 -0.1631 -0.0182
  172loPI   C4A 2746   8.502   8.572   9.009 -0.2205  0.2421 -0.1331
  172loPI   C5A 2747   8.576   8.602   8.605 -0.0864 -0.1014 -0.1980
  172loPI   C6A 2748   8.684   8.737   8.278 -0.1669  0.1276  0.1113
  172loPI   C1B 2749   8.604   9.097   9.956 -0.1113  0.2165  0.0931
  172loPI   C2B 2750   8.616   9.047   9.552 -0.0573 -0.1184  0.1869
  172loPI   C3B 2751   8.589   9.059   9.143 -0.2879  0.0692 -0.1604
  172loPI   C4B 2752   8.597   9.140   8.718 -0.0947  0.0751 -0.0813
  173loPI    C1 2753   9.692  10.637  11.291 -0.0462  0.2704 -0.2668
  173loPI    C2 2754   9.506  10.823  11.593 -0.1253  0.0501 -0.1774
  173loPI    C3 2755   9.895  10.888  11.527 -0.0436 -0.0983  0.1371
  173loPI   PO4 2756   9.638  10.546  11.022 -0.3469 -0.0045  0.0302
  173loPI   GL1 2757   9.624  10.632  10.663 -0.2812 -0.2371 -0.1336
  173loPI   GL2 2758   9.848  10.866  10.572 -0.0859 -0.1967  0.1718
  173loPI   C1A 2759   9.359  10.750  10.289 -0.0465  0.1397  0.2306
  173loPI   C2A 2760   9.383  10.794   9.908  0.0224 -0.0240  0.0631
  173loPI   C3A 2761   9.359  10.798   9.462 -0.0899  0.0334 -0.0956
  173loPI   C4A 2762   9.224  10.843   8.958 -0.2106  0.2981  0.1400
  173loPI   C5A 2763   9.281  10.713   8.575  0.5252  0.0661 -0.2686
  173loPI   C6A 2764   9.193  10.359   8.215 -0.1531  0.2217 -0.1545
  173loPI   C1B 2765   9.863  10.892  10.143  0.2710  0.0555  0.1935
  173loPI   C2B 2766   9.865  10.911   9.744  0.0620  0.2695 -0.1173
  173loPI   C3B 2767   9.863  10.906   9.330 -0.1344  0.0687  0.3183
  173loPI   C4B 2768   9.721  10.915   8.941  0.3590 -0.1206  0.0153
  174loPI    C1 2769  11.732   6.816  10.937 -0.0315  0.1006  0.0501
  174loPI    C2 2770  11.426   6.894  11.183  0.0015  0.0608  0.1038
  174loPI    C3 2771  11.798   7.003  11.284  0.0053  0.1098  0.0382
  174loPI   PO4 2772  11.681   6.847  10.675 -0.0802  0.0389 -0.0517
  174loPI   GL1 2773  11.853   6.796  10.383  0.0710 -0.1502 -0.0255
  174loPI   GL2 2774  11.499   6.998  10.240 -0.2459 -0.3165  0.2858
  174loPI   C1A 2775  11.995   6.835   9.915 -0.1900  0.0940 -0.1951
  174loPI   C2A 2776  11.970   6.801   9.456 -0.2026  0.0858  0.4206
  174loPI   C3A 2777  12.028   6.861   9.044  0.0803 -0.2510  0.2883
  174loPI   C4A 2778  11.916   6.929   8.558 -0.0703  0.1343 -0.0993
  174loPI   C5A 2779  12.010   7.009   8.158  0.0665 -0.1515 -0.0750
  174loPI   C6A 2780  12.416   7.046   7.976 -0.1894 -0.0713 -0.3747
  174loPI   C1B 2781  11.586   7.137   9.809 -0.0652  0.0786 -0.1342
  174loPI   C2B 2782  11.522   7.179   9.391  0.2173  0.0140  0.2578
  174loPI   C3B 2783  11.611   7.205   8.895 -0.0149  0.2022 -0.3312
  174loPI   C4B 2784  11.543   7.207   8.428  0.0121 -0.0629  0.1755
  175loPI    C1 2785   9.585   9.540  11.004 -0.0998  0.0569 -0.0428
  175loPI    C2 2786   9.968   9.643  11.051 -0.1253  0.1202  0.0272
  175loPI    C3 2787   9.711   9.685  11.355 -0.1305 -0.1760  0.0665
  175loPI   PO4 2788   9.554   9.543  10.788 -0.1901  0.1476  0.1027
  175loPI   GL1 2789   9.790   9.822  10.506 -0.2257  0.0257 -0.1862
  175loPI   GL2 2790  10.062   9.624  10.521 -0.0593  0.0794  0.2986
  175loPI   C1A 2791   9.728   9.886  10.118 -0.2298 -0.0121 -0.1547
  175loPI   C2A 2792   9.682   9.812   9.789  0.1034 -0.0567 -0.0781
  175loPI   C3A 2793   9.700  10.006   9.405  0.0484  0.0128  0.3141
  175loPI   C4A 2794   9.630   9.927   8.982  0.1198 -0.2823  0.2170
  175loPI   C5A 2795   9.623   9.994   8.581 -0.3105  0.2054 -0.0886
  175loPI   C6A 2796   9.817   9.799   8.261 -0.1662  0.0811  0.0978
  175loPI   C1B 2797  10.112   9.526  10.092 -0.0921  0.1038 -0.3366
  175loPI   C2B 2798  10.077   9.458   9.670 -0.0091 -0.0320 -0.0755
  175loPI   C3B 2799   9.998   9.619   9.238 -0.1553 -0.0273  0.3572
  175loPI   C4B 2800  10.009   9.592   8.840 -0.1454 -0.0885  0.3143
  176loPI    C1 2801  15.405  12.100  10.994 -0.2862  0.1200  0.0270
  176loPI    C2 2802  15.685  12.069  11.278 -0.1770  0.1591 -0.0752
  176loPI    C3 2803  15.316  11.930  11.344 -0.0288 -0.2476 -0.0801
  176loPI   PO4 2804  15.439  12.006  10.715  0.1345  0.0275  0.0937
  176loPI   GL1 2805  15.494  11.946  10.275  0.1818  0.1821  0.0145
  176loPI   GL2 2806  15.802  12.086  10.389  0.1132  0.0200  0.0668
  176loPI   C1A 2807  15.508  12.063   9.874 -0.0185  0.2818 -0.1833
  176loPI   C2A 2808  15.492  12.104   9.351  0.0977 -0.1460 -0.2076
  176loPI   C3A 2809  15.399  12.069   8.889  0.1403 -0.0355 -0.0878
  176loPI   C4A 2810  15.436  11.900   8.576 -0.1426  0.1169  0.2397
  176loPI   C5A 2811  15.624  11.733   8.246 -0.1886  0.1717 -0.0093
  176loPI   C6A 2812  15.984  11.459   8.141  0.1340 -0.2105  0.3450
  176loPI   C1B 2813  15.660  12.486  10.199  0.1263  0.1144 -0.0274
  176loPI   C2B 2814  15.565  12.570   9.717  0.1021  0.0091  0.0198
  176loPI   C3B 2815  15.619  12.628   9.276 -0.2127  0.0822 -0.2929
  176loPI   C4B 2816  15.609  12.620   8.818  0.0643 -0.0533 -0.1062
  177loPI    C1 2817  16.179   6.192  10.830  0.0790 -0.0886 -0.0193
  177loPI    C2 2818  16.325   6.564  10.853 -0.2508  0.0456 -0.0464
  177loPI    C3 2819  16.166   6.391  11.177  0.3797 -0.2790  0.1051
  177loPI   PO4 2820  16.278   6.146  10.517 -0.1524  0.1358 -0.5817
  177loPI   GL1 2821  16.020   6.238  10.257 -0.1494 -0.0722  0.0143
  177loPI   GL2 2822  15.807   5.937  10.419 -0.1678  0.0913 -0.5171
  177loPI   C1A 2823  15.932   6.389   9.763  0.0953 -0.0160 -0.0960
  177loPI   C2A 2824  16.014   6.316   9.398  0.1388  0.0041 -0.3418
  177loPI   C3A 2825  16.039   6.298   9.000 -0.2370  0.0063  0.0154
  177loPI   C4A 2826  16.069   6.434   8.632 -0.0947  0.1385 -0.1857
  177loPI   C5A 2827  15.991   6.602   8.265  0.0950  0.4409 -0.1789
  177loPI   C6A 2828  16.279   6.895   8.043 -0.0555  0.0980  0.0409
  177loPI   C1B 2829  15.860   5.847   9.954 -0.1395  0.1914 -0.0170
  177loPI   C2B 2830  15.901   5.797   9.482 -0.0484 -0.0322  0.2300
  177loPI   C3B 2831  15.941   5.772   9.018  0.0149 -0.2899 -0.0256
  177loPI   C4B 2832  15.856   5.856   8.689 -0.1879  0.2917  0.0307
  178loPI    C1 2833   7.605   1.897  11.086 -0.1004  0.1892 -0.1292
  178loPI    C2 2834   7.433   1.600  11.292  0.1362  0.1476  0.0126
  178loPI    C3 2835   7.615   1.898  11.486 -0.0070  0.3310 -0.1315
  178loPI   PO4 2836   7.412   1.995  10.879  0.2603  0.0960  0.1018
  178loPI   GL1 2837   7.406   1.981  10.500  0.0857 -0.1112  0.0378
  178loPI   GL2 2838   7.670   2.185  10.342 -0.0547  0.2445 -0.1567
  178loPI   C1A 2839   7.162   1.868  10.137 -0.1860 -0.3804 -0.1164
  178loPI   C2A 2840   7.181   1.948   9.748  0.0578 -0.0785 -0.0495
  178loPI   C3A 2841   7.221   1.866   9.328  0.0607 -0.0425 -0.0348
  178loPI   C4A 2842   7.143   2.005   8.972  0.1300  0.0751  0.1105
  178loPI   C5A 2843   6.921   2.200   8.633  0.0627 -0.0272  0.2187
  178loPI   C6A 2844   6.858   2.509   8.412 -0.1166  0.1147 -0.0593
  178loPI   C1B 2845   7.627   1.987   9.979 -0.1775  0.2116  0.1199
  178loPI   C2B 2846   7.680   2.011   9.506 -0.1903  0.0070  0.2802
  178loPI   C3B 2847   7.683   2.077   9.068 -0.0578 -0.1931  0.2679
  178loPI   C4B 2848   7.735   2.135   8.673  0.1965 -0.1343 -0.2752
  179loPI    C1 2849  13.535   8.115  10.986 -0.0315  0.0903  0.0631
  179loPI    C2 2850  13.607   7.957  11.346 -0.0749 -0.0014  0.0321
  179loPI    C3 2851  13.273   7.860  11.149 -0.0331  0.0195 -0.0494
  179loPI   PO4 2852  13.690   8.095  10.819 -0.1658  0.0462  0.0965
  179loPI   GL1 2853  13.810   8.252  10.410  0.1892  0.1040  0.0109
  179loPI   GL2 2854  13.537   8.408  10.434 -0.0318 -0.0502  0.0992
  179loPI   C1A 2855  13.906   8.070  10.102  0.3392 -0.2870 -0.0401
  179loPI   C2A 2856  13.948   7.978   9.682 -0.0139  0.2051 -0.4333
  179loPI   C3A 2857  13.944   7.980   9.310  0.0338  0.1111 -0.2413
  179loPI   C4A 2858  13.999   8.054   8.826 -0.1176 -0.0853  0.1270
  179loPI   C5A 2859  13.909   8.041   8.440  0.1932  0.0387  0.0574
  179loPI   C6A 2860  13.730   8.237   8.096  0.0247  0.1775  0.0951
  179loPI   C1B 2861  13.519   8.376   9.949 -0.0736  0.0389  0.0515
  179loPI   C2B 2862  13.609   8.366   9.534 -0.2750  0.0684 -0.2084
  179loPI   C3B 2863  13.619   8.393   9.126  0.0866  0.1972 -0.1474
  179loPI   C4B 2864  13.590   8.427   8.682  0.1372  0.0430 -0.1312
  180loPI    C1 2865  15.318   1.945  11.299 -0.0699 -0.1800  0.0678
  180loPI    C2 2866  15.300   2.286  11.507 -0.0427 -0.0002 -0.2184
  180loPI    C3 2867  15.357   1.939  11.697 -0.2612  0.1300  0.0954
  180loPI   PO4 2868  15.217   2.004  11.048 -0.1533 -0.0817 -0.1573
  180loPI   GL1 2869  15.198   2.135  10.624 -0.0551  0.0165 -0.1410
  180loPI   GL2 2870  15.020   2.274  10.707  0.3462  0.0467 -0.0119
  180loPI   C1A 2871  15.289   2.208  10.194  0.2241 -0.0380  0.0396
  180loPI   C2A 2872  15.317   2.191   9.789 -0.2492  0.0251 -0.1158
  180loPI   C3A 2873  15.344   2.154   9.391  0.0303 -0.1522  0.2093
  180loPI   C4A 2874  15.410   2.209   9.001 -0.0515 -0.1761 -0.1845
  180loPI   C5A 2875  15.336   1.883   8.672  0.2214 -0.2005 -0.2536
  180loPI   C6A 2876  15.146   1.499   8.589 -0.4104  0.0510  0.2218
  180loPI   C1B 2877  14.907   2.477  10.345 -0.2128 -0.1104 -0.0499
  180loPI   C2B 2878  14.864   2.508   9.893 -0.1114  0.3536  0.1763
  180loPI   C3B 2879  14.915   2.453   9.552 -0.3649  0.0517 -0.1176
  180loPI   C4B 2880  14.840   2.490   9.099  0.1363  0.1129  0.0178
  181loPI    C1 2881   0.159   5.348  10.944 -0.0548  0.3169 -0.1063
  181loPI    C2 2882  -0.084   5.176  11.212  0.0161  0.0002 -0.2409
  181loPI    C3 2883   0.107   5.515  11.303 -0.0867 -0.0174  0.0485
  181loPI   PO4 2884   0.042   5.332  10.726  0.1120  0.1824 -0.0164
  181loPI   GL1 2885  -0.003   5.540  10.449  0.0840 -0.1338  0.0549
  181loPI   GL2 2886   0.036   5.825  10.409 -0.0096 -0.0405  0.2308
  181loPI   C1A 2887  -0.078   5.402  10.008 -0.0054 -0.2569 -0.5347
  181loPI   C2A 2888  -0.028   5.458   9.542  0.0288 -0.1546  0.4758
  181loPI   C3A 2889   0.082   5.555   9.212  0.1247  0.0871  0.0777
  181loPI   C4A 2890   0.024   5.668   8.709  0.1309 -0.0779 -0.0910
  181loPI   C5A 2891  -0.025   5.631   8.339  0.0451  0.3254 -0.2025
  181loPI   C6A 2892   0.306   5.530   8.091 -0.0404  0.2163  0.1511
  181loPI   C1B 2893   0.059   5.965  10.035  0.1066  0.2975  0.0086
  181loPI   C2B 2894   0.117   5.986   9.573 -0.4071  0.0669 -0.2848
  181loPI   C3B 2895   0.144   6.026   9.162 -0.1946  0.0385  0.0740
  181loPI   C4B 2896   0.172   6.166   8.774  0.0689  0.2472 -0.3836
  182loPI    C1 2897   9.849   4.192  10.949 -0.0499  0.1248 -0.0292
  182loPI    C2 2898   9.710   4.242  11.321  0.0466 -0.0976  0.0385
  182loPI    C3 2899   9.898   4.543  11.136  0.1165 -0.0278  0.2204
  182loPI   PO4 2900   9.636   4.082  10.814 -0.0298 -0.2123  0.2447
  182loPI   GL1 2901   9.577   4.011  10.461  0.0016 -0.1759 -0.0351
  182loPI   GL2 2902   9.839   4.248  10.378  0.1651  0.1579  0.0528
  182loPI   C1A 2903   9.388   4.185  10.038  0.1319  0.0679 -0.4294
  182loPI   C2A 2904   9.435   4.166   9.611 -0.0199  0.0508  0.1648
  182loPI   C3A 2905   9.488   4.103   9.230  0.1331  0.0525 -0.0136
  182loPI   C4A 2906   9.636   4.152   8.783  0.0626 -0.0654  0.1392
  182loPI   C5A 2907   9.777   4.004   8.426  0.3034 -0.2134  0.1950
  182loPI   C6A 2908  10.013   3.697   8.310  0.2597 -0.1669 -0.0195
  182loPI   C1B 2909   9.885   4.086   9.985  0.1621  0.0472  0.0829
  182loPI   C2B 2910   9.905   4.030   9.622 -0.1115  0.0744  0.3474
  182loPI   C3B 2911   9.930   3.939   9.142  0.2025 -0.0592 -0.0028
  182loPI   C4B 2912   9.909   3.738   8.811  0.0424 -0.3083  0.0037
  183loPI    C1 2913   4.825   0.292  11.693 -0.2502  0.1556  0.0071
  183loPI    C2 2914   5.195   0.151  11.744 -0.3290 -0.0489  0.0228
  183loPI    C3 2915   5.033   0.390  12.020 -0.1648  0.1410 -0.0424
  183loPI   PO4 2916   4.814   0.280  11.432  0.2672  0.0626 -0.0202
  183loPI   GL1 2917   4.542   0.286  10.980 -0.1801  0.1766  0.3187
  183loPI   GL2 2918   4.927   0.229  10.958  0.0944  0.1664  0.1763
  183loPI   C1A 2919   4.639   0.466  10.618  0.5338 -0.3563  0.0731
  183loPI   C2A 2920   4.703   0.531  10.210  0.2607 -0.2722 -0.0035
  183loPI   C3A 2921   4.706   0.458   9.785 -0.4109  0.1521 -0.0848
  183loPI   C4A 2922   4.789   0.542   9.362  0.1426 -0.1615  0.3482
  183loPI   C5A 2923   4.877   0.516   8.890  0.0607 -0.0782  0.1574
  183loPI   C6A 2924   4.827   0.707   8.470  0.0257 -0.1075 -0.0971
  183loPI   C1B 2925   5.135   0.217  10.556  0.0033 -0.2138 -0.0432
  183loPI   C2B 2926   5.201   0.204  10.077  0.0527 -0.0916 -0.0018
  183loPI   C3B 2927   5.058   0.173   9.649 -0.1939  0.3198 -0.0649
  183loPI   C4B 2928   5.144   0.192   9.143  0.3179 -0.0578 -0.0328
  184loPI    C1 2929   9.456  13.378  11.084 -0.3382 -0.0583 -0.2276
  184loPI    C2 2930   9.333  13.428  11.462 -0.0142  0.3396 -0.1681
  184loPI    C3 2931   9.592  13.137  11.373 -0.2553  0.1084 -0.1257
  184loPI   PO4 2932   9.264  13.395  10.942  0.1199 -0.0880  0.2293
  184loPI   GL1 2933   9.254  13.389  10.582 -0.1125 -0.1961 -0.1873
  184loPI   GL2 2934   9.591  13.349  10.528  0.1991  0.1363  0.3197
  184loPI   C1A 2935   9.376  13.654  10.234  0.1796 -0.0187  0.3234
  184loPI   C2A 2936   9.445  13.702   9.778 -0.2930  0.0515 -0.0698
  184loPI   C3A 2937   9.240  13.668   9.432  0.0388 -0.0322 -0.4079
  184loPI   C4A 2938   9.307  13.673   9.060  0.0729 -0.0107  0.2571
  184loPI   C5A 2939   9.162  13.639   8.574 -0.0830  0.0296  0.1267
  184loPI   C6A 2940   8.792  13.579   8.421  0.0566 -0.0113  0.0335
  184loPI   C1B 2941   9.762  13.397  10.080 -0.0371  0.1989  0.1502
  184loPI   C2B 2942   9.805  13.346   9.678  0.0000 -0.1848  0.0046
  184loPI   C3B 2943   9.649  13.320   9.230  0.1846 -0.2198 -0.1739
  184loPI   C4B 2944   9.709  13.438   8.913 -0.0366 -0.0252  0.3212
  185loPI    C1 2945  14.489  15.996  11.443 -0.2325  0.0498 -0.0451
  185loPI    C2 2946  14.744  16.225  11.649 -0.0633 -0.1128 -0.0716
  185loPI    C3 2947  14.549  15.927  11.832  0.2636 -0.4075 -0.1899
  185loPI   PO4 2948  14.708  15.980  11.228  0.2049  0.0550  0.1069
  185loPI   GL1 2949  14.717  15.765  10.770 -0.1143 -0.1097  0.1231
  185loPI   GL2 2950  14.986  15.714  10.664  0.0203  0.1656 -0.0515
  185loPI   C1A 2951  14.638  16.031  10.442 -0.2000  0.1286 -0.0254
  185loPI   C2A 2952  14.688  16.220   9.976 -0.0794 -0.0969 -0.1413
  185loPI   C3A 2953  14.668  16.275   9.589  0.0574  0.3476  0.0618
  185loPI   C4A 2954  14.752  16.100   9.179  0.1443  0.0227 -0.2306
  185loPI   C5A 2955  14.823  16.053   8.739 -0.2152  0.2088  0.0799
  185loPI   C6A 2956  14.845  15.761   8.417 -0.0549 -0.0363  0.0528
  185loPI   C1B 2957  15.136  15.780  10.366 -0.0291 -0.1486  0.1053
  185loPI   C2B 2958  15.261  15.896  10.016 -0.2591  0.2324  0.0245
  185loPI   C3B 2959  15.276  15.904   9.500 -0.0759 -0.1436  0.2588
  185loPI   C4B 2960  15.172  15.829   9.085 -0.0718  0.1294 -0.0336
  186loPI    C1 2961  12.223   5.917  10.761 -0.1502 -0.2198  0.1046
  186loPI    C2 2962  12.096   6.152  11.059 -0.0002 -0.0956  0.0719
  186loPI    C3 2963  12.437   5.946  11.097  0.0267 -0.0684 -0.0194
  186loPI   PO4 2964  12.043   5.881  10.667 -0.0585  0.0845 -0.3033
  186loPI   GL1 2965  12.008   5.686  10.324 -0.2251 -0.0065 -0.0501
  186loPI   GL2 2966  11.808   5.730  10.111 -0.0923  0.1024  0.3766
  186loPI   C1A 2967  12.244   5.349   9.975 -0.0370 -0.0685  0.0211
  186loPI   C2A 2968  12.266   5.336   9.620 -0.0991 -0.1484  0.1020
  186loPI   C3A 2969  12.107   5.412   9.280 -0.0446  0.0167  0.5192
  186loPI   C4A 2970  12.115   5.486   8.842  0.1690  0.1488 -0.2921
  186loPI   C5A 2971  12.008   5.461   8.401  0.0398  0.2497 -0.0768
  186loPI   C6A 2972  12.019   5.572   7.982  0.1325 -0.2796 -0.1957
  186loPI   C1B 2973  11.717   5.766   9.725 -0.1608  0.2823 -0.2978
  186loPI   C2B 2974  11.707   5.755   9.293 -0.0513  0.1112 -0.2010
  186loPI   C3B 2975  11.675   5.841   8.862 -0.2661  0.1672  0.4029
  186loPI   C4B 2976  11.750   5.909   8.465 -0.2065  0.1312 -0.1927
  187loPI    C1 2977   9.272   7.984  11.411  0.0256 -0.1976 -0.0464
  187loPI    C2 2978   8.980   7.776  11.234 -0.3210  0.1984  0.0446
  187loPI    C3 2979   9.131   7.652  11.583 -0.2709 -0.0904 -0.0768
  187loPI   PO4 2980   9.404   8.099  11.151  0.0147 -0.2720  0.0056
  187loPI   GL1 2981   9.310   8.123  10.675  0.2071  0.3491 -0.2212
  187loPI   GL2 2982   9.585   8.288  10.598  0.0659  0.1417 -0.3156
  187loPI   C1A 2983   9.376   7.891  10.350  0.0502  0.2371  0.1609
  187loPI   C2A 2984   9.379   7.823   9.978 -0.2962 -0.2114  0.0436
  187loPI   C3A 2985   9.301   7.841   9.581  0.1149 -0.2626  0.1817
  187loPI   C4A 2986   9.252   7.901   9.241  0.1725 -0.0853 -0.0706
  187loPI   C5A 2987   9.299   7.951   8.770 -0.1224 -0.0130 -0.1355
  187loPI   C6A 2988   9.381   8.224   8.392 -0.1172 -0.1323  0.1945
  187loPI   C1B 2989   9.563   8.300  10.161 -0.1143 -0.1641 -0.0282
  187loPI   C2B 2990   9.442   8.286   9.744 -0.2073 -0.0601  0.1219
  187loPI   C3B 2991   9.440   8.349   9.412  0.2322  0.3194 -0.2612
  187loPI   C4B 2992   9.415   8.431   9.002 -0.3340  0.0560  0.3883
  188loPI    C1 2993  14.371  17.549  11.554 -0.0004 -0.0404 -0.1513
  188loPI    C2 2994  14.708  17.357  11.652 -0.0358 -0.1184 -0.1815
  188loPI    C3 2995  14.353  17.189  11.728 -0.0720  0.0475  0.0258
  188loPI   PO4 2996  14.464  17.710  11.322 -0.1993  0.1088  0.1425
  188loPI   GL1 2997  14.555  17.909  10.905 -0.3095  0.2746  0.0679
  188loPI   GL2 2998  14.468  18.146  10.915 -0.0695  0.1280 -0.0844
  188loPI   C1A 2999  14.161  17.924  10.553  0.0355 -0.0334 -0.0025
  188loPI   C2A 3000  14.160  17.908  10.079  0.1089  0.0474 -0.1041
  188loPI   C3A 3001  14.122  17.933   9.639 -0.1042  0.1002 -0.3325
  188loPI   C4A 3002  14.200  17.738   9.258  0.1553  0.2652 -0.0414
  188loPI   C5A 3003  14.149  17.699   8.791  0.1211  0.1121 -0.2748
  188loPI   C6A 3004  14.487  17.799   8.423  0.0247 -0.0458  0.0800
  188loPI   C1B 3005  14.543  18.232  10.508 -0.1388  0.2574  0.0081
  188loPI   C2B 3006  14.529  18.208  10.142 -0.0061  0.0266 -0.0631
  188loPI   C3B 3007  14.577  18.069   9.763 -0.0753 -0.1440  0.1394
  188loPI   C4B 3008  14.689  18.071   9.347 -0.2846 -0.0134  0.1321
  189loPI    C1 3009   2.928  10.956  11.376  0.0111  0.0707  0.0329
  189loPI    C2 3010   2.629  11.169  11.536  0.1753  0.2169  0.1482
  189loPI    C3 3011   2.714  10.805  11.678 -0.0098  0.1338  0.0498
  189loPI   PO4 3012   2.928  10.986  11.130  0.0227  0.0662  0.2558
  189loPI   GL1 3013   3.132  11.026  10.722 -0.0991 -0.3622 -0.0658
  189loPI   GL2 3014   2.882  11.087  10.620  0.3419  0.2035 -0.0093
  189loPI   C1A 3015   3.422  10.974  10.237  0.1854  0.0518  0.0690
  189loPI   C2A 3016   3.480  11.024   9.883 -0.2471  0.0490  0.0329
  189loPI   C3A 3017   3.511  11.086   9.471  0.3043  0.2434  0.1204
  189loPI   C4A 3018   3.509  11.150   8.988 -0.4154 -0.0859  0.2794
  189loPI   C5A 3019   3.368  10.894   8.684  0.0836 -0.2588  0.5308
  189loPI   C6A 3020   3.257  10.849   8.291  0.0926  0.0128 -0.3486
  189loPI   C1B 3021   2.989  11.263  10.269 -0.0228 -0.1629 -0.1520
  189loPI   C2B 3022   3.028  11.367   9.837 -0.0289  0.2449 -0.0153
  189loPI   C3B 3023   3.147  11.421   9.373  0.2315  0.0815 -0.1559
  189loPI   C4B 3024   3.093  11.434   9.055  0.1476 -0.0664  0.0451
  190loPI    C1 3025  12.599  15.064  11.425  0.3274 -0.0714 -0.0705
  190loPI    C2 3026  12.566  15.355  11.698  0.0495 -0.2252  0.0637
  190loPI    C3 3027  12.810  15.045  11.764  0.0367 -0.2264  0.1057
  190loPI   PO4 3028  12.501  15.313  11.175  0.0026  0.3091 -0.2509
  190loPI   GL1 3029  12.680  15.425  10.887  0.0693  0.0754  0.2653
  190loPI   GL2 3030  12.923  15.264  10.713  0.2095 -0.2838 -0.2588
  190loPI   C1A 3031  12.494  15.640  10.560  0.3343 -0.0786 -0.0104
  190loPI   C2A 3032  12.408  15.703  10.138  0.1186  0.1366 -0.0434
  190loPI   C3A 3033  12.495  15.704   9.630  0.1748 -0.3653  0.2543
  190loPI   C4A 3034  12.448  15.735   9.210 -0.0513  0.0133  0.0314
  190loPI   C5A 3035  12.404  15.827   8.750 -0.0754  0.0639  0.2558
  190loPI   C6A 3036  12.576  16.027   8.486 -0.3203  0.0907 -0.1131
  190loPI   C1B 3037  12.849  15.410  10.199  0.0980 -0.2377 -0.2338
  190loPI   C2B 3038  12.804  15.328   9.844 -0.2699 -0.0043 -0.0596
  190loPI   C3B 3039  12.945  15.320   9.490 -0.0400 -0.0998 -0.2188
  190loPI   C4B 3040  12.914  15.345   9.074  0.2152 -0.0110 -0.0175
  191loPI    C1 3041  11.632  13.974  11.598 -0.0057  0.2384  0.1285
  191loPI    C2 3042  11.292  14.108  11.437  0.0175  0.1496  0.0038
  191loPI    C3 3043  11.291  13.955  11.807 -0.0855  0.1121 -0.0115
  191loPI   PO4 3044  11.728  13.808  11.369  0.3579 -0.2888  0.1044
  191loPI   GL1 3045  11.876  13.921  10.986  0.0547  0.0420 -0.1918
  191loPI   GL2 3046  12.178  13.917  10.889 -0.2613 -0.0001  0.3296
  191loPI   C1A 3047  11.741  13.991  10.599 -0.0797 -0.0140  0.0621
  191loPI   C2A 3048  11.795  14.058  10.179 -0.3887 -0.0861  0.1492
  191loPI   C3A 3049  11.738  14.007   9.810 -0.0329 -0.1326  0.0420
  191loPI   C4A 3050  11.688  14.030   9.372 -0.2021 -0.0329  0.0255
  191loPI   C5A 3051  11.689  14.135   8.979  0.1381 -0.0009 -0.1383
  191loPI   C6A 3052  11.741  14.470   8.677 -0.0729 -0.0026 -0.1449
  191loPI   C1B 3053  12.276  14.089  10.438 -0.1709 -0.1304  0.1034
  191loPI   C2B 3054  12.230  14.250  10.068 -0.2991 -0.3524 -0.0967
  191loPI   C3B 3055  12.192  14.218   9.668 -0.1361  0.3083  0.1177
  191loPI   C4B 3056  12.133  14.232   9.248  0.1201  0.0669 -0.3076
  192loPI    C1 3057  11.283  14.630  11.567  0.2044 -0.2163 -0.2135
  192loPI    C2 3058  11.572  14.446  11.774  0.2239 -0.1554 -0.1863
  192loPI    C3 3059  11.430  14.799  11.899  0.1108 -0.2034 -0.1781
  192loPI   PO4 3060  11.401  14.602  11.301 -0.1088 -0.1989 -0.0973
  192loPI   GL1 3061  11.450  14.658  10.871 -0.3234 -0.3829 -0.0209
  192loPI   GL2 3062  11.594  14.822  10.713  0.1533  0.1070  0.1240
  192loPI   C1A 3063  11.432  14.386  10.514 -0.0124 -0.0920 -0.1161
  192loPI   C2A 3064  11.340  14.333  10.123 -0.4740  0.2002  0.1728
  192loPI   C3A 3065  11.379  14.350   9.804  0.0540  0.2179 -0.0459
  192loPI   C4A 3066  11.286  14.288   9.378 -0.1409  0.1026 -0.1241
  192loPI   C5A 3067  11.297  14.446   8.984  0.0679  0.1686 -0.0388
  192loPI   C6A 3068  11.161  14.503   8.515  0.0450 -0.3454  0.0039
  192loPI   C1B 3069  11.467  14.850  10.298 -0.1028 -0.2740  0.1485
  192loPI   C2B 3070  11.442  14.817   9.921  0.2287  0.3848  0.0783
  192loPI   C3B 3071  11.447  14.892   9.523 -0.1806  0.0245  0.0648
  192loPI   C4B 3072  11.370  14.921   9.064  0.2807 -0.0161  0.0905
  193loPI    C1 3073  17.604   0.143  11.455  0.1018  0.0393  0.0003
  193loPI    C2 3074  17.828   0.037  11.769 -0.1056 -0.0825  0.1097
  193loPI    C3 3075  17.515   0.280  11.820 -0.1629 -0.1333  0.0032
  193loPI   PO4 3076  17.560  -0.083  11.359 -0.0752  0.0690  0.1681
  193loPI   GL1 3077  17.620  -0.199  10.940  0.1962  0.0487 -0.1167
  193loPI   GL2 3078  17.726  -0.631  11.136 -0.0131 -0.1283  0.1126
  193loPI   C1A 3079  17.644  -0.271  10.546  0.0491  0.0881 -0.0557
  193loPI   C2A 3080  17.637  -0.255  10.021  0.1441  0.1961 -0.1229
  193loPI   C3A 3081  17.660  -0.300   9.633 -0.1001  0.0329  0.1637
  193loPI   C4A 3082  17.696  -0.380   9.207  0.1332 -0.1032 -0.0478
  193loPI   C5A 3083  17.515  -0.235   8.768 -0.0279  0.0557 -0.1069
  193loPI   C6A 3084  17.592   0.142   8.467  0.0044  0.2158 -0.3561
  193loPI   C1B 3085  17.573  -0.724  10.713  0.1785  0.0471 -0.1053
  193loPI   C2B 3086  17.537  -0.798  10.344  0.0738  0.0864 -0.2537
  193loPI   C3B 3087  17.569  -0.791   9.889  0.2750  0.0685 -0.1743
  193loPI   C4B 3088  17.565  -0.812   9.491 -0.3773  0.0869 -0.0073
  194loPI    C1 3089   8.283  13.541  11.418  0.1622 -0.2431  0.1573
  194loPI    C2 3090   8.647  13.619  11.564  0.1795 -0.1354  0.0583
  194loPI    C3 3091   8.347  13.878  11.623  0.1630 -0.1377 -0.0137
  194loPI   PO4 3092   8.321  13.533  11.198 -0.2013  0.1872  0.1782
  194loPI   GL1 3093   8.153  13.809  10.806 -0.2507 -0.0134  0.1635
  194loPI   GL2 3094   7.929  13.942  10.615 -0.1209  0.1212 -0.1579
  194loPI   C1A 3095   8.453  13.842  10.388  0.3197 -0.1275  0.1964
  194loPI   C2A 3096   8.492  13.835   9.859 -0.2000 -0.2260 -0.0190
  194loPI   C3A 3097   8.457  13.859   9.423  0.0555 -0.1957 -0.0198
  194loPI   C4A 3098   8.482  13.886   8.939  0.1539  0.0767 -0.3109
  194loPI   C5A 3099   8.514  14.067   8.526  0.0781 -0.0086  0.0592
  194loPI   C6A 3100   8.474  13.974   8.102 -0.2226 -0.1794 -0.0915
  194loPI   C1B 3101   8.033  13.735  10.172  0.0441  0.1152 -0.2277
  194loPI   C2B 3102   7.930  13.629   9.760  0.0974  0.3378 -0.3261
  194loPI   C3B 3103   7.952  13.679   9.339  0.0774  0.1483  0.1736
  194loPI   C4B 3104   8.015  13.761   8.840  0.5867 -0.3074 -0.1168
  195loPI    C1 3105   4.719  11.170  10.926 -0.1125 -0.0663 -0.1198
  195loPI    C2 3106   4.663  11.219  11.319  0.2606 -0.1270 -0.0550
  195loPI    C3 3107   4.399  11.009  11.103 -0.1148  0.1749  0.1002
  195loPI   PO4 3108   4.954  11.240  10.942  0.2468  0.0999 -0.1176
  195loPI   GL1 3109   5.062  11.308  10.552  0.2152  0.1225  0.1829
  195loPI   GL2 3110   4.886  11.081  10.415  0.2278 -0.1637  0.0516
  195loPI   C1A 3111   4.958  11.472  10.104  0.2656 -0.0954 -0.0959
  195loPI   C2A 3112   4.951  11.609   9.775  0.1844  0.4877 -0.1250
  195loPI   C3A 3113   4.955  11.454   9.298 -0.1629 -0.1611  0.2980
  195loPI   C4A 3114   4.963  11.494   8.831 -0.0366  0.3710 -0.2097
  195loPI   C5A 3115   4.942  11.588   8.380 -0.0818  0.0709  0.0591
  195loPI   C6A 3116   5.180  11.831   8.063  0.0560 -0.2293  0.0973
  195loPI   C1B 3117   4.911  10.954  10.023 -0.1509 -0.0241 -0.1993
  195loPI   C2B 3118   4.882  11.044   9.632 -0.0166  0.3881  0.1363
  195loPI   C3B 3119   4.900  10.959   9.168  0.0278  0.0658 -0.1532
  195loPI   C4B 3120   4.769  10.905   8.763  0.0022  0.1383 -0.1907
  196loPI    C1 3121   0.173  13.172  11.277  0.1617  0.0959  0.0371
  196loPI    C2 3122   0.084  13.464  11.535 -0.1092  0.1325 -0.0938
  196loPI    C3 3123   0.464  13.398  11.430 -0.0413  0.4075 -0.0284
  196loPI   PO4 3124   0.083  13.222  11.086 -0.1704  0.1220  0.0961
  196loPI   GL1 3125  -0.054  13.234  10.647  0.2034 -0.1856 -0.2090
  196loPI   GL2 3126   0.244  13.223  10.526  0.0011  0.3756  0.0817
  196loPI   C1A 3127  -0.123  13.392  10.186 -0.2149  0.2428  0.1562
  196loPI   C2A 3128  -0.218  13.444   9.761 -0.0398 -0.1073  0.0081
  196loPI   C3A 3129  -0.096  13.461   9.282  0.0321  0.0034 -0.2988
  196loPI   C4A 3130  -0.231  13.373   8.871 -0.1758 -0.0765 -0.3029
  196loPI   C5A 3131  -0.410  13.295   8.441  0.0232  0.1469  0.1821
  196loPI   C6A 3132  -0.455  13.414   8.077 -0.2083  0.0151 -0.0819
  196loPI   C1B 3133   0.308  13.098  10.048  0.1700 -0.1276 -0.1494
  196loPI   C2B 3134   0.204  13.157   9.629 -0.0961  0.0600  0.0475
  196loPI   C3B 3135   0.285  13.061   9.274 -0.0216  0.0660 -0.1896
  196loPI   C4B 3136   0.256  13.067   8.845  0.1084  0.3426  0.0278
  197loPI    C1 3137  12.686   7.172  11.106 -0.1398 -0.2654  0.1003
  197loPI    C2 3138  13.019   7.364  11.217 -0.1561 -0.1402 -0.0649
  197loPI    C3 3139  12.815   7.149  11.484 -0.1061  0.0256  0.1090
  197loPI   PO4 3140  12.669   7.254  10.755 -0.3171  0.1255  0.0086
  197loPI   GL1 3141  12.904   7.305  10.357  0.1393  0.0408 -0.1696
  197loPI   GL2 3142  12.990   7.544  10.261  0.2320  0.3025 -0.0279
  197loPI   C1A 3143  12.905   7.157   9.914  0.0825 -0.3455 -0.0779
  197loPI   C2A 3144  12.896   7.102   9.466  0.2655 -0.1809 -0.0328
  197loPI   C3A 3145  12.902   7.239   9.134 -0.0214  0.3492 -0.2163
  197loPI   C4A 3146  12.965   7.169   8.721 -0.3965  0.3158 -0.1160
  197loPI   C5A 3147  12.860   7.348   8.309 -0.3033  0.0601  0.0112
  197loPI   C6A 3148  13.156   7.462   8.002  0.2332  0.0547 -0.2531
  197loPI   C1B 3149  12.969   7.672   9.869  0.3578  0.0504 -0.1441
  197loPI   C2B 3150  12.961   7.704   9.485 -0.1195  0.0602 -0.0165
  197loPI   C3B 3151  12.957   7.703   9.022 -0.1535  0.0817 -0.1168
  197loPI   C4B 3152  13.098   7.700   8.587  0.1959  0.0484  0.1460
  198loPI    C1 3153   1.794   3.844  11.120  0.1855 -0.0695 -0.0355
  198loPI    C2 3154   2.074   3.815  11.403  0.0248 -0.1053  0.1219
  198loPI    C3 3155   1.792   4.097  11.430 -0.0351 -0.1569  0.0366
  198loPI   PO4 3156   1.900   3.861  10.870  0.0932  0.3917 -0.3259
  198loPI   GL1 3157   1.860   3.594  10.592 -0.3982 -0.4111  0.1392
  198loPI   GL2 3158   1.605   3.432  10.472  0.0600 -0.0480  0.4302
  198loPI   C1A 3159   2.047   3.430  10.246 -0.0172  0.3390  0.1614
  198loPI   C2A 3160   2.173   3.446   9.911 -0.2010 -0.3039  0.0606
  198loPI   C3A 3161   2.206   3.390   9.465  0.0920 -0.1500 -0.1218
  198loPI   C4A 3162   2.047   3.417   9.048 -0.3725 -0.0470 -0.1044
  198loPI   C5A 3163   1.765   3.344   8.711 -0.1983 -0.2776 -0.1102
  198loPI   C6A 3164   1.616   3.748   8.533  0.0041 -0.3226  0.3104
  198loPI   C1B 3165   1.601   3.310  10.030  0.2045 -0.0577 -0.5697
  198loPI   C2B 3166   1.547   3.249   9.574  0.1749 -0.2246  0.3660
  198loPI   C3B 3167   1.531   3.270   9.129 -0.2334 -0.2613 -0.0097
  198loPI   C4B 3168   1.369   3.008   8.779 -0.0188 -0.0814  0.3588
  199loPI    C1 3169  13.503   3.719  10.912  0.0165 -0.0936 -0.0060
  199loPI    C2 3170  13.653   3.703  11.283 -0.0618  0.3109  0.0485
  199loPI    C3 3171  13.311   3.513  11.197  0.1445 -0.0881  0.0852
  199loPI   PO4 3172  13.686   3.651  10.767  0.0260 -0.1064 -0.2122
  199loPI   GL1 3173  13.782   3.598  10.388 -0.1139  0.1818 -0.1310
  199loPI   GL2 3174  14.011   3.754  10.373  0.0500  0.3287  0.0295
  199loPI   C1A 3175  13.721   3.540   9.867  0.1592  0.2236 -0.0418
  199loPI   C2A 3176  13.730   3.544   9.399 -0.0296 -0.5429 -0.1759
  199loPI   C3A 3177  13.705   3.492   8.992  0.0838 -0.2485 -0.1191
  199loPI   C4A 3178  13.618   3.587   8.573 -0.1996 -0.0135  0.0540
  199loPI   C5A 3179  13.459   3.420   8.170  0.2284 -0.1088 -0.4049
  199loPI   C6A 3180  13.303   3.042   8.020 -0.0888  0.3219 -0.0971
  199loPI   C1B 3181  14.205   3.657   9.933  0.2789  0.3743 -0.0795
  199loPI   C2B 3182  14.244   3.651   9.475 -0.2508  0.0240 -0.2265
  199loPI   C3B 3183  14.135   3.668   9.122 -0.0608  0.0149  0.1605
  199loPI   C4B 3184  14.143   3.802   8.696 -0.0065 -0.2019 -0.0796
  200loPI    C1 3185   0.597  12.030  11.160  0.1542  0.0024 -0.0736
  200loPI    C2 3186   0.445  11.769  11.422 -0.2030  0.4048  0.1333
  200loPI    C3 3187   0.793  11.950  11.500  0.0575 -0.0138 -0.0214
  200loPI   PO4 3188   0.569  11.883  10.886  0.5089 -0.1788 -0.1619
  200loPI   GL1 3189   0.769  11.818  10.501 -0.3662 -0.2266  0.1433
  200loPI   GL2 3190   0.570  12.157  10.437 -0.1489  0.1712 -0.1488
  200loPI   C1A 3191   1.025  11.936  10.229  0.1962 -0.1234 -0.2249
  200loPI   C2A 3192   1.012  11.998   9.739  0.3216 -0.0699 -0.0101
  200loPI   C3A 3193   0.994  12.065   9.232  0.1554  0.4520  0.1330
  200loPI   C4A 3194   0.920  11.979   8.843 -0.1422  0.2822  0.0493
  200loPI   C5A 3195   0.925  11.992   8.483  0.1011  0.1614 -0.0972
  200loPI   C6A 3196   0.905  12.288   8.185 -0.0430  0.1984  0.1930
  200loPI   C1B 3197   0.633  12.299  10.007  0.2046 -0.0943  0.0955
  200loPI   C2B 3198   0.557  12.362   9.545 -0.3748  0.2448  0.0493
  200loPI   C3B 3199   0.540  12.297   9.107 -0.1092  0.0053 -0.0891
  200loPI   C4B 3200   0.456  12.211   8.691 -0.0432 -0.1947 -0.0996
  201loPI    C1 3201   8.028   2.922  11.337 -0.0316  0.1349 -0.0260
  201loPI    C2 3202   8.284   2.898  11.643 -0.0460  0.4209  0.0109
  201loPI    C3 3203   7.915   2.747  11.679  0.0629  0.1495  0.0130
  201loPI   PO4 3204   8.153   2.725  11.093  0.2789 -0.0803  0.1919
  201loPI   GL1 3205   8.217   2.557  10.673 -0.0040 -0.1230 -0.3417
  201loPI   GL2 3206   8.177   2.250  10.385 -0.2723 -0.2209  0.0387
  201loPI   C1A 3207   8.266   2.747  10.222 -0.0282  0.1655  0.2824
  201loPI   C2A 3208   8.255   2.718   9.788 -0.4043  0.2082 -0.3016
  201loPI   C3A 3209   8.236   2.753   9.420 -0.0601  0.2582  0.0121
  201loPI   C4A 3210   8.309   2.789   9.086 -0.0060 -0.2449  0.2302
  201loPI   C5A 3211   8.269   2.873   8.643  0.0559  0.1494 -0.1899
  201loPI   C6A 3212   8.213   2.907   8.145  0.0909  0.0250 -0.2601
  201loPI   C1B 3213   8.059   2.270   9.959 -0.1333 -0.0193 -0.0824
  201loPI   C2B 3214   8.156   2.303   9.544 -0.5075 -0.7464 -0.2910
  201loPI   C3B 3215   8.166   2.264   9.138  0.1455 -0.2294 -0.1928
  201loPI   C4B 3216   8.192   2.349   8.665 -0.1109 -0.0921  0.0285
  202loPI    C1 3217  13.156   2.626  11.194  0.0369  0.0397 -0.2064
  202loPI    C2 3218  13.310   2.994  11.164  0.1094  0.0182 -0.1044
  202loPI    C3 3219  13.283   2.817  11.522  0.0138 -0.0499 -0.1447
  202loPI   PO4 3220  13.324   2.511  11.045 -0.0841  0.0691 -0.0775
  202loPI   GL1 3221  13.285   2.403  10.566 -0.0609 -0.0739  0.1849
  202loPI   GL2 3222  13.316   2.081  10.791  0.1224 -0.0147 -0.1215
  202loPI   C1A 3223  13.532   2.516  10.319 -0.1592  0.1142 -0.0874
  202loPI   C2A 3224  13.543   2.406   9.960 -0.2275  0.1476 -0.2501
  202loPI   C3A 3225  13.525   2.442   9.533  0.1319 -0.1430 -0.0225
  202loPI   C4A 3226  13.546   2.458   9.150 -0.1066 -0.2715  0.1704
  202loPI   C5A 3227  13.444   2.427   8.827 -0.2964 -0.0961  0.2679
  202loPI   C6A 3228  13.587   2.271   8.395 -0.3679 -0.1914  0.1785
  202loPI   C1B 3229  13.383   2.007  10.323 -0.2321  0.3445  0.1713
  202loPI   C2B 3230  13.460   1.871   9.922 -0.1936 -0.4170 -0.3538
  202loPI   C3B 3231  13.500   1.967   9.471 -0.1657  0.1223  0.0700
  202loPI   C4B 3232  13.471   1.908   8.995  0.2026 -0.0310 -0.0426
  203loPI    C1 3233   9.206   9.787  11.159  0.2786 -0.0625  0.2157
  203loPI    C2 3234   9.171   9.410  11.286 -0.2033 -0.0141  0.2447
  203loPI    C3 3235   9.150   9.712  11.548 -0.2303  0.0477  0.1715
  203loPI   PO4 3236   9.092   9.830  10.908  0.0400  0.0251  0.0486
  203loPI   GL1 3237   9.264   9.860  10.497  0.1889 -0.1049 -0.0105
  203loPI   GL2 3238   9.197  10.201  10.390 -0.0668  0.0046  0.0704
  203loPI   C1A 3239   9.219   9.786  10.138  0.1799 -0.2256 -0.0648
  203loPI   C2A 3240   9.176   9.797   9.638  0.0229 -0.0724 -0.2730
  203loPI   C3A 3241   9.192   9.685   9.157  0.1140  0.2914 -0.3819
  203loPI   C4A 3242   9.124   9.779   8.752  0.0087 -0.1097  0.1577
  203loPI   C5A 3243   9.199   9.831   8.266 -0.1159 -0.0875 -0.3051
  203loPI   C6A 3244   9.387   9.688   7.968 -0.0991 -0.2198 -0.0615
  203loPI   C1B 3245   9.184  10.250   9.871 -0.3681 -0.2079  0.0668
  203loPI   C2B 3246   9.248  10.255   9.470 -0.5023 -0.1968  0.1459
  203loPI   C3B 3247   9.181  10.162   9.042 -0.1822  0.0058  0.0065
  203loPI   C4B 3248   9.196  10.269   8.694  0.2896  0.0910 -0.2966
  204loPI    C1 3249   4.986   6.028  11.303 -0.1054 -0.2137 -0.2416
  204loPI    C2 3250   4.773   5.903  11.618 -0.2761 -0.2786 -0.3811
  204loPI    C3 3251   4.613   6.162  11.359 -0.0047  0.0616 -0.2166
  204loPI   PO4 3252   5.103   5.797  11.184 -0.1763 -0.1241  0.0287
  204loPI   GL1 3253   5.236   5.789  10.802  0.2372 -0.2226  0.1151
  204loPI   GL2 3254   5.053   6.042  10.608  0.0159 -0.0565 -0.0358
  204loPI   C1A 3255   5.157   5.513  10.431  0.0788 -0.5993 -0.0756
  204loPI   C2A 3256   5.155   5.417   9.985  0.0618  0.0233  0.1062
  204loPI   C3A 3257   5.149   5.399   9.486 -0.1296 -0.1733  0.2010
  204loPI   C4A 3258   5.094   5.450   9.096  0.0709  0.1363  0.2547
  204loPI   C5A 3259   5.277   5.563   8.764  0.1724  0.1148 -0.1427
  204loPI   C6A 3260   5.729   5.720   8.704  0.2375 -0.0113 -0.0097
  204loPI   C1B 3261   5.191   5.931  10.177 -0.0223 -0.1638 -0.1479
  204loPI   C2B 3262   5.216   5.859   9.737 -0.1282 -0.1206  0.2017
  204loPI   C3B 3263   5.229   5.875   9.343  0.0297 -0.1050  0.0547
  204loPI   C4B 3264   5.309   6.022   8.871  0.1600  0.1812  0.0416
  205loPI    C1 3265  13.096  11.802  11.318  0.1042 -0.1918  0.1100
  205loPI    C2 3266  12.878  11.680  11.631  0.0218 -0.1046  0.0867
  205loPI    C3 3267  13.021  12.054  11.619 -0.0249 -0.0892 -0.0069
  205loPI   PO4 3268  12.952  11.779  11.005 -0.2051  0.2033  0.0052
  205loPI   GL1 3269  12.861  12.068  10.668 -0.0465 -0.2545 -0.2421
  205loPI   GL2 3270  12.893  12.431  10.711 -0.2412  0.0179 -0.2114
  205loPI   C1A 3271  12.721  12.017  10.230 -0.2243  0.0934 -0.2575
  205loPI   C2A 3272  12.811  12.016   9.804 -0.0369 -0.3056  0.0608
  205loPI   C3A 3273  12.745  11.968   9.359 -0.1901  0.0280 -0.0769
  205loPI   C4A 3274  12.674  11.882   9.024  0.0982 -0.2740  0.1948
  205loPI   C5A 3275  12.702  11.823   8.546  0.0320  0.2161  0.2061
  205loPI   C6A 3276  12.863  11.727   8.170  0.0685 -0.2996  0.2018
  205loPI   C1B 3277  12.797  12.646  10.328  0.0539  0.0238  0.1143
  205loPI   C2B 3278  12.824  12.505   9.920 -0.2094 -0.0581  0.3371
  205loPI   C3B 3279  12.848  12.510   9.573  0.1253  0.0977  0.1334
  205loPI   C4B 3280  12.912  12.541   9.120  0.0052  0.0633  0.1969
  206loPI    C1 3281  17.568   1.622  11.512  0.0492  0.1113 -0.0217
  206loPI    C2 3282  17.871   1.809  11.694  0.2594 -0.1381 -0.1104
  206loPI    C3 3283  17.786   1.429  11.786  0.0377 -0.1020 -0.1608
  206loPI   PO4 3284  17.541   1.754  11.279  0.0074  0.0635 -0.0911
  206loPI   GL1 3285  17.511   1.957  10.966  0.1030  0.1594  0.1677
  206loPI   GL2 3286  17.170   1.768  10.889 -0.0834  0.0329 -0.0207
  206loPI   C1A 3287  17.419   2.064  10.534  0.0440  0.3905 -0.3096
  206loPI   C2A 3288  17.475   2.003  10.073  0.0048 -0.1586  0.2440
  206loPI   C3A 3289  17.545   2.035   9.622  0.4090 -0.0953  0.2993
  206loPI   C4A 3290  17.603   2.093   9.144 -0.0776 -0.1993 -0.0080
  206loPI   C5A 3291  17.936   2.192   8.915 -0.0498  0.1596  0.1595
  206loPI   C6A 3292  18.311   1.988   8.923 -0.1780  0.1032 -0.0307
  206loPI   C1B 3293  16.914   1.801  10.532 -0.0209  0.1755  0.2159
  206loPI   C2B 3294  16.980   1.865  10.174 -0.2561 -0.1268 -0.3146
  206loPI   C3B 3295  17.066   1.924   9.788 -0.0307  0.0196  0.2072
  206loPI   C4B 3296  17.136   1.849   9.334 -0.0352 -0.1328  0.1756
  207loPI    C1 3297   1.176   4.987  10.953 -0.2636  0.2291 -0.0429
  207loPI    C2 3298   1.281   4.738  11.248 -0.0458  0.1043 -0.2229
  207loPI    C3 3299   0.916   4.901  11.244 -0.0330  0.1495  0.1430
  207loPI   PO4 3300   1.375   4.921  10.809 -0.2432  0.0194 -0.1041
  207loPI   GL1 3301   1.323   4.839  10.372 -0.0349 -0.0353  0.1139
  207loPI   GL2 3302   1.172   4.631  10.196  0.2398  0.1759 -0.1461
  207loPI   C1A 3303   1.222   5.023   9.924 -0.1480  0.0524 -0.2508
  207loPI   C2A 3304   1.211   5.040   9.556  0.1827 -0.3259 -0.1602
  207loPI   C3A 3305   1.282   5.087   9.106 -0.0671  0.1084  0.2893
  207loPI   C4A 3306   1.315   5.125   8.656 -0.1895 -0.0858  0.0678
  207loPI   C5A 3307   1.278   5.214   8.191 -0.1342  0.1913 -0.0841
  207loPI   C6A 3308   1.315   5.717   8.102 -0.1278  0.0334 -0.1241
  207loPI   C1B 3309   1.235   4.516   9.812 -0.3521  0.0617 -0.0403
  207loPI   C2B 3310   1.189   4.549   9.382  0.2659 -0.1602  0.0674
  207loPI   C3B 3311   1.298   4.609   9.012  0.0200 -0.1076  0.1598
  207loPI   C4B 3312   1.387   4.517   8.553 -0.1304 -0.0840  0.0409
  208loPI    C1 3313  12.930  17.021  11.626  0.3139 -0.1392  0.3932
  208loPI    C2 3314  12.838  17.187  11.978 -0.0741 -0.1258  0.2903
  208loPI    C3 3315  12.775  16.796  11.918 -0.0460 -0.1200  0.2226
  208loPI   PO4 3316  13.198  17.071  11.547 -0.0472 -0.1916  0.0042
  208loPI   GL1 3317  13.217  17.142  11.149 -0.3766 -0.2233 -0.4954
  208loPI   GL2 3318  12.824  17.063  11.082  0.1595  0.0661 -0.1340
  208loPI   C1A 3319  13.239  17.500  10.800 -0.1833  0.0125  0.0588
  208loPI   C2A 3320  13.147  17.352  10.421 -0.0174  0.1101 -0.2903
  208loPI   C3A 3321  13.191  17.473  10.010  0.1119 -0.2488  0.1460
  208loPI   C4A 3322  13.184  17.482   9.449 -0.0575 -0.3915 -0.0389
  208loPI   C5A 3323  13.188  17.493   9.066 -0.1241  0.2303 -0.1027
  208loPI   C6A 3324  13.115  17.675   8.667 -0.2153  0.1654 -0.0891
  208loPI   C1B 3325  12.643  17.113  10.568 -0.1315 -0.2348  0.0538
  208loPI   C2B 3326  12.721  17.204  10.121 -0.3681  0.0038  0.2089
  208loPI   C3B 3327  12.729  17.358   9.646  0.0310  0.0552  0.0532
  208loPI   C4B 3328  12.678  17.271   9.257 -0.0958 -0.3552 -0.4148
  209loPI    C1 3329  14.039   2.360  11.453  0.1667  0.0270  0.0488
  209loPI    C2 3330  14.413   2.249  11.541  0.1468 -0.0125  0.0840
  209loPI    C3 3331  14.120   2.194  11.808  0.1650  0.2711  0.1649
  209loPI   PO4 3332  14.108   2.441  11.225 -0.3480  0.0074  0.0665
  209loPI   GL1 3333  14.245   2.378  10.820 -0.0016 -0.1495  0.1785
  209loPI   GL2 3334  14.523   2.302  10.691 -0.1225  0.1215 -0.1628
  209loPI   C1A 3335  14.077   2.494  10.544  0.1008 -0.0979  0.0487
  209loPI   C2A 3336  13.920   2.669  10.137 -0.1502  0.0932 -0.1111
  209loPI   C3A 3337  13.949   2.623   9.749 -0.0189 -0.0396  0.0348
  209loPI   C4A 3338  14.005   2.536   9.223 -0.0462 -0.2099  0.3325
  209loPI   C5A 3339  13.988   2.691   8.709 -0.0850 -0.0354 -0.0494
  209loPI   C6A 3340  14.176   2.748   8.350  0.0476  0.2426  0.0646
  209loPI   C1B 3341  14.376   2.275  10.227 -0.0037 -0.2429  0.3054
  209loPI   C2B 3342  14.402   2.313   9.749  0.1068  0.2112 -0.0499
  209loPI   C3B 3343  14.465   2.242   9.357  0.3484 -0.1685 -0.6973
  209loPI   C4B 3344  14.319   2.245   8.898  0.1079  0.1473  0.1310
  210loPI    C1 3345   8.542   8.137  11.183  0.0483  0.0224  0.1724
  210loPI    C2 3346   8.452   7.764  11.298 -0.2579  0.0870  0.1520
  210loPI    C3 3347   8.341   8.075  11.524 -0.0518  0.1705  0.1411
  210loPI   PO4 3348   8.432   8.154  10.918 -0.0021 -0.1999  0.0958
  210loPI   GL1 3349   8.419   8.293  10.500 -0.0422  0.2245  0.2671
  210loPI   GL2 3350   8.151   8.101  10.491  0.0402  0.0524 -0.2319
  210loPI   C1A 3351   8.505   8.125  10.055  0.0275 -0.4822  0.0872
  210loPI   C2A 3352   8.422   8.125   9.682  0.0235 -0.3540 -0.1244
  210loPI   C3A 3353   8.385   8.117   9.269 -0.0252  0.1071 -0.0648
  210loPI   C4A 3354   8.423   8.090   8.785 -0.0192  0.0272  0.0974
  210loPI   C5A 3355   8.641   8.086   8.453 -0.0583 -0.0744 -0.2452
  210loPI   C6A 3356   9.006   7.935   8.346  0.2153 -0.0702 -0.0654
  210loPI   C1B 3357   8.010   7.945  10.059 -0.0359  0.3783  0.1071
  210loPI   C2B 3358   7.955   7.923   9.632  0.1169  0.3301  0.2117
  210loPI   C3B 3359   7.877   7.915   9.246 -0.1727 -0.0902  0.0597
  210loPI   C4B 3360   7.917   7.924   8.859  0.0778  0.1069  0.0374
  211loPI    C1 3361   4.170   5.008  11.138 -0.0753 -0.0076 -0.0296
  211loPI    C2 3362   3.979   4.724  11.346 -0.1240  0.0774  0.0428
  211loPI    C3 3363   4.326   4.871  11.480 -0.1239  0.0876  0.0313
  211loPI   PO4 3364   4.162   4.884  10.873  0.1069 -0.2204  0.0038
  211loPI   GL1 3365   4.301   4.583  10.628  0.0708 -0.2389  0.0267
  211loPI   GL2 3366   4.601   4.714  10.690  0.1646  0.1362  0.1728
  211loPI   C1A 3367   4.479   4.302  10.308 -0.1323  0.1014 -0.1903
  211loPI   C2A 3368   4.543   4.163   9.872  0.0192 -0.1244 -0.0686
  211loPI   C3A 3369   4.509   4.252   9.400  0.0973 -0.2805  0.0205
  211loPI   C4A 3370   4.376   4.196   8.889 -0.1176  0.2901 -0.3313
  211loPI   C5A 3371   4.483   4.235   8.437 -0.2501  0.1282 -0.0943
  211loPI   C6A 3372   4.688   4.191   8.019  0.3411  0.0742  0.2680
  211loPI   C1B 3373   4.540   4.808  10.173 -0.0751  0.2709 -0.2544
  211loPI   C2B 3374   4.586   4.773   9.753  0.2062  0.0717 -0.0055
  211loPI   C3B 3375   4.537   4.737   9.207 -0.0995  0.0807 -0.2997
  211loPI   C4B 3376   4.636   4.612   8.819  0.2777  0.0242 -0.1072
  212loPI    C1 3377  16.926   5.407  10.700 -0.0224  0.2136 -0.0382
  212loPI    C2 3378  17.137   5.230  10.991  0.0014 -0.1006 -0.2414
  212loPI    C3 3379  17.282   5.554  10.806 -0.0423  0.1393  0.1350
  212loPI   PO4 3380  16.826   5.217  10.546 -0.1142  0.0318  0.0966
  212loPI   GL1 3381  16.693   4.838  10.339  0.1712 -0.1600  0.0173
  212loPI   GL2 3382  16.978   4.906  10.174 -0.1725  0.2417  0.0312
  212loPI   C1A 3383  16.572   4.606   9.987  0.1556 -0.0473 -0.1314
  212loPI   C2A 3384  16.629   4.532   9.549 -0.2360  0.1460  0.1258
  212loPI   C3A 3385  16.619   4.622   9.090 -0.2082  0.2610  0.3397
  212loPI   C4A 3386  16.647   4.702   8.652 -0.0158  0.0462 -0.2599
  212loPI   C5A 3387  16.669   4.914   8.331  0.1106 -0.3133  0.1000
  212loPI   C6A 3388  16.764   5.348   8.244  0.0246 -0.0295 -0.1161
  212loPI   C1B 3389  17.045   4.735   9.797  0.0474  0.2543  0.0086
  212loPI   C2B 3390  17.164   4.805   9.483 -0.0942  0.3338  0.0408
  212loPI   C3B 3391  17.212   4.823   9.072 -0.0947  0.0635  0.0646
  212loPI   C4B 3392  17.136   4.838   8.622  0.0968  0.0064 -0.2565
  213loPI    C1 3393   1.341  14.884  11.595  0.2726  0.1334  0.0766
  213loPI    C2 3394   1.638  14.937  11.332  0.3760  0.1470  0.1957
  213loPI    C3 3395   1.720  14.827  11.708  0.2131 -0.1146  0.1574
  213loPI   PO4 3396   1.176  15.063  11.484  0.2593 -0.3642 -0.0282
  213loPI   GL1 3397   1.034  15.184  11.094 -0.2271 -0.0253  0.1065
  213loPI   GL2 3398   1.248  15.011  10.971 -0.0771 -0.0229  0.0426
  213loPI   C1A 3399   0.968  15.331  10.666 -0.0022  0.1023  0.2375
  213loPI   C2A 3400   1.052  15.431  10.302 -0.1421  0.1029  0.0606
  213loPI   C3A 3401   0.985  15.348   9.892  0.0738  0.2030  0.0008
  213loPI   C4A 3402   1.094  15.361   9.481  0.0948 -0.3349 -0.1221
  213loPI   C5A 3403   1.053  15.329   9.001  0.0649 -0.0728  0.0770
  213loPI   C6A 3404   0.856  15.514   8.560  0.1160 -0.2286  0.0784
  213loPI   C1B 3405   1.379  15.017  10.546 -0.0104 -0.0739 -0.2007
  213loPI   C2B 3406   1.396  15.010  10.016 -0.0850 -0.0111  0.0419
  213loPI   C3B 3407   1.502  15.094   9.613  0.0151 -0.0770 -0.1450
  213loPI   C4B 3408   1.484  15.183   9.181 -0.0826 -0.0508  0.3730
  214loPI    C1 3409   5.564  14.450  11.356 -0.0420 -0.1414  0.0841
  214loPI    C2 3410   5.845  14.169  11.400 -0.1705 -0.2896 -0.0321
  214loPI    C3 3411   5.458  14.073  11.437 -0.2141 -0.1225 -0.0483
  214loPI   PO4 3412   5.595  14.589  11.190 -0.0886  0.1668  0.0224
  214loPI   GL1 3413   5.669  14.658  10.805 -0.1211 -0.1273 -0.0622
  214loPI   GL2 3414   5.452  14.554  10.580 -0.1438  0.1861  0.0263
  214loPI   C1A 3415   5.901  14.696  10.434  0.1302 -0.0102  0.1773
  214loPI   C2A 3416   5.921  14.740   9.973 -0.0060 -0.0549  0.1482
  214loPI   C3A 3417   5.878  14.872   9.614 -0.0295 -0.1757  0.5389
  214loPI   C4A 3418   5.860  14.782   9.220  0.0633 -0.0546  0.2158
  214loPI   C5A 3419   5.936  14.823   8.854 -0.1391 -0.0372  0.0547
  214loPI   C6A 3420   6.209  14.894   8.539 -0.1026 -0.2710  0.0994
  214loPI   C1B 3421   5.436  14.609  10.090  0.0973 -0.1255  0.0114
  214loPI   C2B 3422   5.487  14.605   9.704 -0.0111  0.3554 -0.1597
  214loPI   C3B 3423   5.419  14.589   9.220 -0.2898 -0.1136 -0.1419
  214loPI   C4B 3424   5.483  14.585   8.784  0.2329 -0.1494  0.0258
  215loPI    C1 3425  13.232  13.179  11.565  0.0410  0.0044 -0.0058
  215loPI    C2 3426  13.277  12.862  11.805 -0.0918 -0.0250 -0.0190
  215loPI    C3 3427  13.081  13.185  11.935  0.1505  0.1019  0.0380
  215loPI   PO4 3428  13.452  13.113  11.398 -0.1377 -0.0103  0.0050
  215loPI   GL1 3429  13.437  13.361  11.025  0.0630 -0.2624  0.1001
  215loPI   GL2 3430  13.347  13.200  10.881 -0.1232  0.1387 -0.1559
  215loPI   C1A 3431  13.469  13.685  10.666  0.0471 -0.0236 -0.0197
  215loPI   C2A 3432  13.472  13.693  10.224  0.1303 -0.4144 -0.0463
  215loPI   C3A 3433  13.558  13.723   9.782  0.0156  0.2940 -0.0905
  215loPI   C4A 3434  13.468  13.674   9.368 -0.0165  0.0596  0.1003
  215loPI   C5A 3435  13.400  13.629   8.906 -0.0520  0.0747 -0.0222
  215loPI   C6A 3436  13.191  13.321   8.665  0.0850 -0.1578  0.0094
  215loPI   C1B 3437  13.433  13.229  10.479 -0.1678 -0.1284 -0.0631
  215loPI   C2B 3438  13.323  13.242  10.038 -0.0193 -0.3887  0.3412
  215loPI   C3B 3439  13.356  13.187   9.604 -0.1487 -0.1428 -0.0436
  215loPI   C4B 3440  13.372  13.177   9.170  0.1944 -0.0962  0.0017
  216loPI    C1 3441   7.279   2.545  11.372  0.1166 -0.0192  0.0319
  216loPI    C2 3442   7.462   2.894  11.440  0.1072 -0.0152  0.0367
  216loPI    C3 3443   7.109   2.817  11.611  0.0849 -0.0064 -0.0051
  216loPI   PO4 3444   7.293   2.460  11.052 -0.1144  0.0773  0.0604
  216loPI   GL1 3445   7.326   2.549  10.672 -0.0114  0.2610  0.3926
  216loPI   GL2 3446   6.985   2.658  10.669 -0.2208  0.1147  0.1216
  216loPI   C1A 3447   7.256   2.398  10.229 -0.0485  0.0837  0.0800
  216loPI   C2A 3448   7.321   2.403   9.743  0.3198 -0.1380 -0.0638
  216loPI   C3A 3449   7.219   2.395   9.266 -0.2209  0.2571  0.0786
  216loPI   C4A 3450   7.315   2.464   8.803 -0.1167 -0.1290  0.2835
  216loPI   C5A 3451   7.385   2.489   8.356  0.2366  0.0884  0.1117
  216loPI   C6A 3452   7.479   2.134   8.018  0.1357  0.1627 -0.3199
  216loPI   C1B 3453   6.855   2.725  10.279  0.0967 -0.0856  0.0038
  216loPI   C2B 3454   6.932   2.705   9.792  0.4403  0.0376 -0.1038
  216loPI   C3B 3455   6.934   2.778   9.345 -0.1487  0.0215  0.5670
  216loPI   C4B 3456   6.869   2.724   8.893 -0.0181 -0.2337 -0.0688
  217loPI    C1 3457  12.236   6.934  11.069  0.2115 -0.2023 -0.1550
  217loPI    C2 3458  12.134   6.601  11.266  0.0839 -0.0073  0.1148
  217loPI    C3 3459  12.422   6.839  11.411  0.2838 -0.0772 -0.1590
  217loPI   PO4 3460  12.230   6.848  10.778 -0.2527 -0.3199 -0.1539
  217loPI   GL1 3461  12.285   7.063  10.417 -0.0400 -0.1129 -0.2487
  217loPI   GL2 3462  12.448   6.996  10.134 -0.0215 -0.0600 -0.0100
  217loPI   C1A 3463  12.024   7.269  10.107  0.1722  0.3583 -0.0295
  217loPI   C2A 3464  11.968   7.362   9.610  0.2926 -0.0041 -0.0887
  217loPI   C3A 3465  12.099   7.335   9.155 -0.2920 -0.2392  0.2842
  217loPI   C4A 3466  12.071   7.399   8.809  0.0682 -0.3555  0.0536
  217loPI   C5A 3467  11.962   7.483   8.309  0.3543  0.2056 -0.0902
  217loPI   C6A 3468  11.686   7.531   8.038 -0.1039 -0.2292  0.0941
  217loPI   C1B 3469  12.412   6.971   9.731 -0.0733 -0.0622 -0.1510
  217loPI   C2B 3470  12.396   7.002   9.323  0.1478  0.2939 -0.1274
  217loPI   C3B 3471  12.500   7.061   8.894 -0.0406  0.0912 -0.3345
  217loPI   C4B 3472  12.406   7.170   8.441 -0.0370  0.0641 -0.1390
  218loPI    C1 3473   7.785  17.211  11.310  0.0179  0.0216 -0.2161
  218loPI    C2 3474   7.964  17.464  11.563 -0.1730 -0.1069  0.0525
  218loPI    C3 3475   7.568  17.480  11.512 -0.1990 -0.4071  0.1397
  218loPI   PO4 3476   7.934  17.232  11.075 -0.2745  0.1839  0.0549
  218loPI   GL1 3477   7.715  17.077  10.755  0.0306  0.1696 -0.0936
  218loPI   GL2 3478   7.629  16.784  10.650  0.2839 -0.3675  0.3244
  218loPI   C1A 3479   7.795  17.217  10.385  0.0805 -0.4189  0.0383
  218loPI   C2A 3480   7.835  17.424   9.976 -0.0489  0.0471  0.6124
  218loPI   C3A 3481   7.813  17.410   9.565 -0.0989 -0.1247  0.1626
  218loPI   C4A 3482   7.734  17.460   9.099 -0.0631  0.0205 -0.0472
  218loPI   C5A 3483   7.689  17.432   8.649 -0.0185  0.0537  0.3722
  218loPI   C6A 3484   7.417  17.364   8.213  0.0931  0.1261 -0.0699
  218loPI   C1B 3485   7.650  16.768  10.209 -0.0606  0.2389 -0.0566
  218loPI   C2B 3486   7.627  16.866   9.803 -0.0997  0.0909  0.0972
  218loPI   C3B 3487   7.744  16.974   9.341  0.0668 -0.2764 -0.0362
  218loPI   C4B 3488   7.671  17.000   8.856 -0.1156 -0.1000 -0.3751
  219loPI    C1 3489   7.695  12.794  11.344  0.0917  0.0383  0.0933
  219loPI    C2 3490   7.358  12.900  11.532 -0.0693 -0.1362 -0.0922
  219loPI    C3 3491   7.538  12.554  11.623  0.3172  0.1652  0.3335
  219loPI   PO4 3492   7.660  12.784  11.116 -0.2113  0.2274  0.1488
  219loPI   GL1 3493   7.424  12.683  10.778 -0.2762 -0.3958  0.1755
  219loPI   GL2 3494   7.584  12.893  10.607 -0.0613  0.1045 -0.1714
  219loPI   C1A 3495   7.304  12.509  10.465 -0.3490  0.3954 -0.0699
  219loPI   C2A 3496   7.251  12.409  10.053 -0.3054 -0.2504  0.1141
  219loPI   C3A 3497   7.377  12.395   9.609  0.0192 -0.0890  0.1395
  219loPI   C4A 3498   7.348  12.518   9.184  0.2523  0.0557 -0.3135
  219loPI   C5A 3499   7.469  12.294   8.740 -0.0477 -0.3322  0.2944
  219loPI   C6A 3500   7.747  11.995   8.621 -0.0840  0.2212  0.0312
  219loPI   C1B 3501   7.440  12.918  10.175 -0.0664  0.0660 -0.0383
  219loPI   C2B 3502   7.414  12.906   9.756 -0.1146  0.0358  0.2544
  219loPI   C3B 3503   7.428  12.978   9.339  0.0937  0.0869  0.1391
  219loPI   C4B 3504   7.326  13.031   8.985  0.2135 -0.0808 -0.1837
  220loPI    C1 3505   0.761  10.244  10.664 -0.0694 -0.1461 -0.1177
  220loPI    C2 3506   0.734   9.899  10.864 -0.3679 -0.0473  0.0193
  220loPI    C3 3507   0.778  10.243  11.064 -0.1106  0.0005 -0.1148
  220loPI   PO4 3508   0.943  10.143  10.435  0.1088 -0.1851  0.1996
  220loPI   GL1 3509   1.188  10.408  10.097  0.2846  0.2732  0.0345
  220loPI   GL2 3510   1.361  10.727  10.149  0.0120  0.1983 -0.2621
  220loPI   C1A 3511   1.225  10.448   9.578  0.2008 -0.0841  0.1279
  220loPI   C2A 3512   1.261  10.448   9.141 -0.0983 -0.1327  0.1111
  220loPI   C3A 3513   1.558  10.464   8.827  0.0261  0.2732 -0.0433
  220loPI   C4A 3514   1.753  10.521   8.593  0.0535  0.1799  0.3879
  220loPI   C5A 3515   1.923  10.901   8.504 -0.1175  0.3766  0.1259
  220loPI   C6A 3516   2.162  11.177   8.764  0.1105  0.1136  0.3252
  220loPI   C1B 3517   1.585  10.809   9.781  0.0506  0.3192 -0.0758
  220loPI   C2B 3518   1.572  10.755   9.343  0.1284  0.0052  0.2256
  220loPI   C3B 3519   1.579  10.920   8.977  0.2222  0.0806  0.0608
  220loPI   C4B 3520   1.420  10.891   8.524  0.2850 -0.3130 -0.2163
  221loPI    C1 3521  12.589  14.595  11.653 -0.5095 -0.0618  0.1984
  221loPI    C2 3522  12.645  14.277  11.890  0.1325  0.0963  0.2777
  221loPI    C3 3523  12.603  14.641  12.050 -0.2800  0.0993  0.1736
  221loPI   PO4 3524  12.676  14.564  11.422 -0.1332  0.2204  0.0061
  221loPI   GL1 3525  12.620  14.801  10.995  0.2436 -0.1123 -0.1375
  221loPI   GL2 3526  12.631  14.449  10.876  0.0013 -0.1682 -0.1366
  221loPI   C1A 3527  12.453  14.983  10.598 -0.0149  0.1718  0.1048
  221loPI   C2A 3528  12.403  15.166  10.185  0.0733  0.0970  0.0881
  221loPI   C3A 3529  12.287  15.236   9.804 -0.0186  0.2331  0.2559
  221loPI   C4A 3530  12.375  15.251   9.366  0.2065  0.0639  0.2341
  221loPI   C5A 3531  12.332  15.257   8.957  0.0300 -0.2196  0.0219
  221loPI   C6A 3532  12.548  15.056   8.521  0.2422 -0.2449  0.1104
  221loPI   C1B 3533  12.703  14.398  10.444 -0.1935 -0.2712 -0.0559
  221loPI   C2B 3534  12.777  14.392  10.070  0.1418  0.2803  0.2250
  221loPI   C3B 3535  12.753  14.388   9.612  0.0005 -0.3126 -0.3487
  221loPI   C4B 3536  12.659  14.381   9.147  0.0291 -0.3061  0.3033
  222loPI    C1 3537  13.383  15.460  11.549  0.0958 -0.1054 -0.0793
  222loPI    C2 3538  13.764  15.373  11.637  0.0392 -0.1519  0.1234
  222loPI    C3 3539  13.488  15.381  11.927 -0.0878  0.0237 -0.0003
  222loPI   PO4 3540  13.415  15.588  11.288 -0.3364 -0.0243 -0.0051
  222loPI   GL1 3541  13.143  15.714  10.977  0.1675  0.2558  0.0843
  222loPI   GL2 3542  12.962  15.909  10.722 -0.0370 -0.1549 -0.2463
  222loPI   C1A 3543  13.316  15.549  10.551  0.2850  0.0747 -0.0037
  222loPI   C2A 3544  13.338  15.547  10.144  0.1188  0.1711  0.1250
  222loPI   C3A 3545  13.294  15.581   9.726  0.0331 -0.1347 -0.0939
  222loPI   C4A 3546  13.311  15.562   9.326 -0.0547  0.0341 -0.2627
  222loPI   C5A 3547  13.291  15.644   8.857 -0.1914  0.0168 -0.1018
  222loPI   C6A 3548  13.196  15.810   8.406  0.0338  0.0765  0.1225
  222loPI   C1B 3549  13.024  15.898  10.340 -0.2153  0.0771 -0.1956
  222loPI   C2B 3550  12.925  15.837   9.892  0.5610 -0.2444 -0.2187
  222loPI   C3B 3551  12.871  15.925   9.381 -0.1214 -0.1362  0.3153
  222loPI   C4B 3552  12.950  15.960   8.950 -0.4306 -0.0032  0.2987
  223loPI    C1 3553   5.950   9.219  11.109 -0.0629  0.0634  0.1289
  223loPI    C2 3554   5.896   8.841  11.228  0.2656 -0.0565 -0.0868
  223loPI    C3 3555   5.972   9.127  11.497  0.1157 -0.1605  0.0680
  223loPI   PO4 3556   5.854   9.191  10.838 -0.0961 -0.1268 -0.2837
  223loPI   GL1 3557   5.932   9.143  10.442 -0.1812  0.1593  0.2177
  223loPI   GL2 3558   5.957   9.462  10.291 -0.1621 -0.1101 -0.3097
  223loPI   C1A 3559   5.800   9.018  10.072  0.1605  0.1387  0.0472
  223loPI   C2A 3560   5.895   9.058   9.620  0.0541 -0.1513 -0.0716
  223loPI   C3A 3561   5.791   9.012   9.228 -0.0255 -0.1199  0.1027
  223loPI   C4A 3562   5.637   9.067   8.879  0.1350 -0.0129  0.4484
  223loPI   C5A 3563   5.653   9.198   8.482 -0.0672  0.0323  0.0558
  223loPI   C6A 3564   5.890   9.401   8.214 -0.1856  0.0897 -0.1288
  223loPI   C1B 3565   5.889   9.546   9.905 -0.0522  0.4367  0.1879
  223loPI   C2B 3566   5.884   9.559   9.441  0.0957 -0.5474 -0.2165
  223loPI   C3B 3567   5.793   9.526   9.034 -0.0489  0.0109 -0.0643
  223loPI   C4B 3568   5.703   9.652   8.658 -0.0325 -0.1737 -0.1212
  224loPI    C1 3569  16.324   7.433  10.488 -0.0140 -0.1171  0.0906
  224loPI    C2 3570  16.550   7.329  10.801  0.0437 -0.0199  0.0818
  224loPI    C3 3571  16.286   7.628  10.835 -0.1911 -0.2300  0.1353
  224loPI   PO4 3572  16.348   7.172  10.332  0.1743 -0.0176 -0.1316
  224loPI   GL1 3573  16.657   6.920  10.084 -0.1229 -0.0582 -0.0287
  224loPI   GL2 3574  16.963   6.683   9.945 -0.0251 -0.0027  0.1952
  224loPI   C1A 3575  16.635   7.010   9.562  0.1866  0.2146 -0.0216
  224loPI   C2A 3576  16.663   7.054   9.146  0.3417 -0.1079 -0.0333
  224loPI   C3A 3577  16.585   7.129   8.790 -0.0438 -0.1982 -0.1657
  224loPI   C4A 3578  16.659   7.114   8.327 -0.1682  0.1231  0.0449
  224loPI   C5A 3579  16.681   7.340   7.893  0.2103 -0.1695  0.1052
  224loPI   C6A 3580  16.355   7.646   7.484 -0.2926 -0.1315 -0.2522
  224loPI   C1B 3581  17.004   6.676   9.517  0.1588  0.0913 -0.0597
  224loPI   C2B 3582  17.085   6.766   9.137  0.2528 -0.1768 -0.0571
  224loPI   C3B 3583  16.995   6.824   8.731 -0.0222 -0.1446 -0.1031
  224loPI   C4B 3584  17.157   6.848   8.344 -0.1741 -0.0125  0.1461
  225loPI    C1 3585  16.431  16.612  11.741  0.0426  0.2119  0.2171
  225loPI    C2 3586  16.694  16.310  11.748  0.0382  0.2052  0.1017
  225loPI    C3 3587  16.452  16.371  12.060  0.0802  0.1261  0.1501
  225loPI   PO4 3588  16.338  16.491  11.351  0.0437  0.0945  0.0572
  225loPI   GL1 3589  16.460  16.390  10.998  0.1977 -0.0857 -0.0332
  225loPI   GL2 3590  16.696  16.656  10.971 -0.1021  0.0577  0.0675
  225loPI   C1A 3591  16.163  16.244  10.740 -0.0024 -0.3057  0.1122
  225loPI   C2A 3592  16.156  16.295  10.237 -0.1986 -0.1453 -0.0592
  225loPI   C3A 3593  16.240  16.296   9.833 -0.2360 -0.1594 -0.1300
  225loPI   C4A 3594  16.202  16.270   9.340  0.0731 -0.0533 -0.1362
  225loPI   C5A 3595  16.074  16.256   8.879  0.1626  0.3696  0.0133
  225loPI   C6A 3596  15.895  15.868   8.727 -0.1402 -0.1258 -0.0845
  225loPI   C1B 3597  16.570  16.497  10.551 -0.0934  0.4975 -0.0434
  225loPI   C2B 3598  16.641  16.523  10.129 -0.2699 -0.0325 -0.1211
  225loPI   C3B 3599  16.687  16.517   9.710  0.0402 -0.1836 -0.3098
  225loPI   C4B 3600  16.631  16.446   9.267  0.1275  0.0948 -0.2183
  226loPI    C1 3601  14.025  10.148  10.773 -0.0421 -0.1974 -0.0625
  226loPI    C2 3602  13.903  10.266  11.135 -0.1226  0.1703 -0.2053
  226loPI    C3 3603  14.195   9.995  11.101 -0.1339  0.1112  0.1332
  226loPI   PO4 3604  13.824  10.073  10.591  0.2967 -0.1671  0.3094
  226loPI   GL1 3605  13.908   9.847  10.279  0.0118 -0.0703  0.2092
  226loPI   GL2 3606  13.664   9.613  10.400  0.0503 -0.0946  0.0923
  226loPI   C1A 3607  13.799   9.935   9.940  0.1407 -0.4207  0.1226
  226loPI   C2A 3608  13.794  10.004   9.424 -0.1677  0.2998 -0.0266
  226loPI   C3A 3609  13.900   9.946   8.931  0.3587  0.2932 -0.0170
  226loPI   C4A 3610  13.884   9.936   8.476 -0.1655  0.1544 -0.1015
  226loPI   C5A 3611  13.881  10.269   8.220  0.4456 -0.0891 -0.0524
  226loPI   C6A 3612  13.829  10.351   7.835  0.4130 -0.1860 -0.1451
  226loPI   C1B 3613  13.390   9.689   9.980 -0.1009  0.0149  0.2460
  226loPI   C2B 3614  13.313   9.899   9.636 -0.0763 -0.2573 -0.1084
  226loPI   C3B 3615  13.381   9.865   9.180 -0.1668 -0.0109 -0.1497
  226loPI   C4B 3616  13.264   9.813   8.729 -0.0795 -0.0320  0.1663
  227loPI    C1 3617   8.011  16.688  10.949  0.2798  0.0473 -0.1795
  227loPI    C2 3618   8.283  16.559  11.213  0.1362  0.3312  0.1146
  227loPI    C3 3619   7.942  16.725  11.342 -0.0181  0.3093 -0.2519
  227loPI   PO4 3620   8.149  16.778  10.728  0.1893  0.1170  0.3660
  227loPI   GL1 3621   8.211  16.868  10.328  0.0534 -0.2477 -0.1940
  227loPI   GL2 3622   8.448  16.596  10.298 -0.2195 -0.2678 -0.1202
  227loPI   C1A 3623   8.204  17.055   9.906 -0.1509 -0.2097 -0.0545
  227loPI   C2A 3624   8.170  17.096   9.542 -0.1376 -0.1543  0.0408
  227loPI   C3A 3625   8.156  17.120   9.212  0.0499 -0.0463  0.1792
  227loPI   C4A 3626   8.194  17.135   8.730 -0.0268  0.2386  0.0187
  227loPI   C5A 3627   8.259  17.533   8.364 -0.1019  0.0430  0.2016
  227loPI   C6A 3628   8.653  17.781   8.155  0.2926  0.1392 -0.2044
  227loPI   C1B 3629   8.488  16.676   9.954 -0.1024 -0.0360  0.0446
  227loPI   C2B 3630   8.610  16.758   9.564 -0.2328  0.0146  0.0590
  227loPI   C3B 3631   8.587  16.692   9.082 -0.2250 -0.0864 -0.0261
  227loPI   C4B 3632   8.606  16.872   8.756 -0.0085 -0.1965  0.2194
  228loPI    C1 3633   3.287  14.090  11.371  0.0311 -0.0792 -0.1365
  228loPI    C2 3634   3.443  14.388  11.588 -0.3464  0.2531 -0.3066
  228loPI    C3 3635   3.491  14.008  11.705  0.2092  0.3686 -0.1284
  228loPI   PO4 3636   3.347  14.141  11.135 -0.4107 -0.0936 -0.1571
  228loPI   GL1 3637   3.326  14.295  10.707 -0.1140 -0.2602 -0.0450
  228loPI   GL2 3638   3.586  14.402  10.554 -0.0112 -0.1929 -0.0185
  228loPI   C1A 3639   3.060  14.281  10.432 -0.0781 -0.0671 -0.2469
  228loPI   C2A 3640   3.021  14.300  10.070 -0.0680  0.2238 -0.0575
  228loPI   C3A 3641   3.095  14.272   9.696  0.4173 -0.1578 -0.1583
  228loPI   C4A 3642   3.167  14.196   9.244 -0.1040 -0.0139  0.1765
  228loPI   C5A 3643   3.141  14.266   8.834  0.1518 -0.4527  0.2012
  228loPI   C6A 3644   3.052  14.076   8.429  0.0674  0.3237 -0.1254
  228loPI   C1B 3645   3.540  14.457  10.175  0.3396  0.0673  0.1105
  228loPI   C2B 3646   3.581  14.357   9.744 -0.2711 -0.2613  0.2877
  228loPI   C3B 3647   3.725  14.454   9.318 -0.0553 -0.0920 -0.0202
  228loPI   C4B 3648   3.615  14.362   8.884  0.0067 -0.1269  0.1524
  229loPI    C1 3649  15.271  11.133  10.727  0.0395  0.2205 -0.2736
  229loPI    C2 3650  15.626  10.953  10.688  0.0538  0.2054 -0.0860
  229loPI    C3 3651  15.553  11.185  11.006 -0.1945 -0.0030  0.0122
  229loPI   PO4 3652  15.200  11.219  10.496 -0.1269 -0.0505  0.0102
  229loPI   GL1 3653  15.100  11.707  10.477 -0.0264  0.1149 -0.0352
  229loPI   GL2 3654  14.875  11.521  10.217  0.2605 -0.0771 -0.1191
  229loPI   C1A 3655  15.025  11.950  10.050  0.2787 -0.1134  0.1612
  229loPI   C2A 3656  15.031  11.892   9.558  0.1572 -0.1403  0.0700
  229loPI   C3A 3657  14.983  11.825   9.092  0.0225  0.1571 -0.0457
  229loPI   C4A 3658  14.970  11.807   8.653 -0.0775 -0.1819  0.1307
  229loPI   C5A 3659  14.714  11.638   8.294  0.0472 -0.0286  0.1862
  229loPI   C6A 3660  14.261  11.708   8.381 -0.1286 -0.2536 -0.0355
  229loPI   C1B 3661  14.924  11.437   9.766 -0.0145 -0.0788 -0.2392
  229loPI   C2B 3662  14.904  11.465   9.390 -0.0298  0.3657 -0.1522
  229loPI   C3B 3663  14.867  11.350   9.009 -0.3384 -0.1626 -0.0794
  229loPI   C4B 3664  15.015  11.315   8.574 -0.1749  0.1821 -0.3251
  230loPI    C1 3665   8.435   3.241  11.107  0.2133  0.0197  0.0600
  230loPI    C2 3666   8.211   3.387  11.405 -0.0292 -0.0250 -0.0980
  230loPI    C3 3667   8.600   3.316  11.464  0.0115  0.3330  0.0915
  230loPI   PO4 3668   8.199   3.229  10.903  0.3059  0.2170 -0.2475
  230loPI   GL1 3669   7.981   2.989  10.593  0.0409 -0.0454  0.0810
  230loPI   GL2 3670   7.797   2.738  10.468  0.0648  0.1764 -0.1383
  230loPI   C1A 3671   7.927   3.088  10.140  0.1958  0.2473  0.1153
  230loPI   C2A 3672   7.847   3.047   9.721  0.5015 -0.0558 -0.1225
  230loPI   C3A 3673   7.821   3.188   9.345 -0.1819  0.0101 -0.0257
  230loPI   C4A 3674   7.822   3.102   8.960 -0.0075 -0.0271  0.5469
  230loPI   C5A 3675   7.934   3.256   8.594 -0.0318  0.3123 -0.0350
  230loPI   C6A 3676   7.870   3.336   8.176  0.0734  0.2879  0.0867
  230loPI   C1B 3677   7.744   2.595  10.032 -0.1035  0.1787 -0.0300
  230loPI   C2B 3678   7.740   2.533   9.563  0.2704  0.2064 -0.0923
  230loPI   C3B 3679   7.775   2.578   9.144 -0.3659 -0.3452  0.2692
  230loPI   C4B 3680   7.804   2.642   8.646 -0.0041 -0.0179 -0.1607
  231loPI    C1 3681  12.376   2.065  11.012 -0.0045 -0.0288  0.0838
  231loPI    C2 3682  12.559   1.796  11.243  0.0053 -0.0038  0.1052
  231loPI    C3 3683  12.626   2.186  11.299  0.1010 -0.0019 -0.0188
  231loPI   PO4 3684  12.470   1.997  10.788  0.0439  0.1950 -0.1892
  231loPI   GL1 3685  12.407   1.770  10.395 -0.0119 -0.3295 -0.1071
  231loPI   GL2 3686  12.142   1.936  10.214  0.0046  0.2163  0.0942
  231loPI   C1A 3687  12.523   1.568  10.076  0.1301 -0.1357 -0.0204
  231loPI   C2A 3688  12.550   1.430   9.654 -0.2390 -0.1672  0.0360
  231loPI   C3A 3689  12.561   1.542   9.243  0.0650  0.0951  0.0376
  231loPI   C4A 3690  12.628   1.543   8.812  0.0975  0.0104  0.4819
  231loPI   C5A 3691  12.951   1.372   8.584  0.0860  0.0496 -0.5489
  231loPI   C6A 3692  13.267   1.277   8.308 -0.0571 -0.0773  0.0627
  231loPI   C1B 3693  12.191   1.853   9.785  0.1678 -0.0389  0.2140
  231loPI   C2B 3694  12.179   1.900   9.354  0.0440  0.3901 -0.2741
  231loPI   C3B 3695  11.938   2.104   9.030  0.2286 -0.1828  0.1825
  231loPI   C4B 3696  11.832   2.241   8.554 -0.1182 -0.3571 -0.2402
  232loPI    C1 3697   9.780  11.670  11.244 -0.1229 -0.0506 -0.1795
  232loPI    C2 3698   9.532  11.417  11.431 -0.0646  0.0830  0.0832
  232loPI    C3 3699   9.927  11.388  11.487 -0.0348  0.0247 -0.1454
  232loPI   PO4 3700   9.770  11.652  10.943  0.0289  0.3329  0.1754
  232loPI   GL1 3701   9.660  11.299  10.608 -0.1035  0.0383  0.0087
  232loPI   GL2 3702   9.470  11.197  10.554  0.2582 -0.0344  0.2409
  232loPI   C1A 3703   9.890  11.451  10.269 -0.1227  0.0147 -0.2204
  232loPI   C2A 3704   9.987  11.495   9.821  0.2996 -0.1085 -0.0060
  232loPI   C3A 3705   9.917  11.388   9.419  0.2509 -0.0271 -0.0242
  232loPI   C4A 3706   9.761  11.452   8.970 -0.0792  0.5106  0.0473
  232loPI   C5A 3707   9.601  11.648   8.549 -0.3278  0.2453 -0.2575
  232loPI   C6A 3708   9.768  11.763   8.161  0.2627 -0.0508 -0.1715
  232loPI   C1B 3709   9.473  11.234  10.086  0.1141 -0.1214  0.0021
  232loPI   C2B 3710   9.463  11.304   9.598 -0.0463  0.2839 -0.0529
  232loPI   C3B 3711   9.347  11.291   9.177 -0.5871 -0.1171 -0.0531
  232loPI   C4B 3712   9.353  11.255   8.766  0.3423 -0.3356  0.2508
  233loPI    C1 3713  10.348   2.000  11.396  0.0012 -0.1544  0.1797
  233loPI    C2 3714   9.956   1.993  11.475 -0.0133  0.0961  0.1375
  233loPI    C3 3715  10.146   2.343  11.439  0.1737 -0.0220 -0.0447
  233loPI   PO4 3716  10.325   1.848  11.189 -0.1547  0.1911  0.2325
  233loPI   GL1 3717  10.255   1.798  10.718 -0.4223 -0.0232 -0.0055
  233loPI   GL2 3718  10.015   1.660  10.558 -0.2514 -0.0849 -0.2928
  233loPI   C1A 3719  10.371   1.721  10.242  0.2967  0.2374  0.2267
  233loPI   C2A 3720  10.350   1.658   9.783  0.1957 -0.1091 -0.1119
  233loPI   C3A 3721  10.396   1.646   9.268 -0.0759 -0.0735 -0.4046
  233loPI   C4A 3722  10.382   1.661   8.846 -0.0720 -0.0377 -0.1606
  233loPI   C5A 3723  10.274   1.564   8.429 -0.1353 -0.4851 -0.0053
  233loPI   C6A 3724  10.529   1.703   8.026 -0.1968 -0.0930 -0.1567
  233loPI   C1B 3725   9.959   1.449  10.197  0.0350  0.0804  0.0573
  233loPI   C2B 3726   9.836   1.433   9.759 -0.0022  0.1238  0.0819
  233loPI   C3B 3727   9.900   1.460   9.255 -0.2042 -0.1849 -0.1373
  233loPI   C4B 3728   9.936   1.504   8.899  0.3341  0.0638 -0.2578
  234loPI    C1 3729  11.243   0.469  11.489 -0.3338  0.0030  0.1170
  234loPI    C2 3730  11.264   0.835  11.649  0.0912  0.0599 -0.0569
  234loPI    C3 3731  11.101   0.535  11.857  0.1153  0.2568  0.2526
  234loPI   PO4 3732  11.166   0.516  11.214  0.2796  0.1305  0.2228
  234loPI   GL1 3733  11.350   0.671  10.653  0.1802  0.1843 -0.2965
  234loPI   GL2 3734  11.549   0.399  10.725 -0.1313 -0.2227 -0.1907
  234loPI   C1A 3735  11.579   0.632  10.277  0.0253  0.2420 -0.0703
  234loPI   C2A 3736  11.602   0.560   9.824  0.2505  0.0671 -0.0486
  234loPI   C3A 3737  11.518   0.645   9.355 -0.2007  0.0590  0.1492
  234loPI   C4A 3738  11.575   0.427   8.919  0.2505  0.1647  0.2921
  234loPI   C5A 3739  11.928   0.375   8.637  0.2376  0.0188  0.3941
  234loPI   C6A 3740  11.985   0.464   8.229  0.3347  0.1450  0.0377
  234loPI   C1B 3741  11.430   0.170  10.457  0.4306  0.0243  0.2962
  234loPI   C2B 3742  11.423   0.117   9.942  0.1339 -0.2770  0.0228
  234loPI   C3B 3743  11.467   0.167   9.500 -0.3298  0.1157  0.0456
  234loPI   C4B 3744  11.607   0.014   9.136 -0.0093  0.0935  0.1041
  235loPI    C1 3745  16.806   9.182  10.328 -0.1836  0.2415 -0.2669
  235loPI    C2 3746  16.412   9.155  10.389 -0.1159 -0.0113  0.0873
  235loPI    C3 3747  16.660   9.192  10.700  0.1356  0.2446 -0.1388
  235loPI   PO4 3748  16.888   9.453  10.257 -0.1122 -0.0918  0.1914
  235loPI   GL1 3749  17.029   9.804  10.010  0.4235 -0.2573  0.1128
  235loPI   GL2 3750  16.912   9.652   9.793 -0.1134 -0.0913  0.0873
  235loPI   C1A 3751  17.173  10.163   9.733 -0.0279 -0.2353 -0.0206
  235loPI   C2A 3752  17.035  10.377   9.407 -0.0013 -0.2416 -0.0879
  235loPI   C3A 3753  17.032  10.277   9.012  0.0427 -0.2359 -0.1707
  235loPI   C4A 3754  17.165  10.220   8.609 -0.3090  0.0330  0.0925
  235loPI   C5A 3755  17.261  10.117   8.182  0.1135 -0.4588  0.0818
  235loPI   C6A 3756  17.365  10.356   7.830  0.1956 -0.1641  0.0753
  235loPI   C1B 3757  16.974   9.868   9.360 -0.1455  0.1404 -0.0103
  235loPI   C2B 3758  17.018   9.777   8.929 -0.1279 -0.0549 -0.0723
  235loPI   C3B 3759  17.156   9.684   8.492  0.0869  0.2035  0.0252
  235loPI   C4B 3760  17.197   9.583   8.169  0.0837 -0.1128 -0.0948
  236loPI    C1 3761  16.514   2.885  11.599  0.1075  0.1525  0.0280
  236loPI    C2 3762  16.335   3.199  11.771 -0.0003  0.0325  0.1370
  236loPI    C3 3763  16.436   2.881  11.991 -0.0530 -0.0836 -0.0047
  236loPI   PO4 3764  16.404   2.954  11.319  0.1471  0.1844 -0.0294
  236loPI   GL1 3765  16.645   2.931  10.915  0.0582  0.0427 -0.1195
  236loPI   GL2 3766  16.717   3.164  10.674 -0.0555 -0.3362  0.5008
  236loPI   C1A 3767  16.673   2.679  10.440 -0.3645 -0.0934  0.2166
  236loPI   C2A 3768  16.697   2.753   9.931  0.2835  0.1636 -0.0865
  236loPI   C3A 3769  16.774   2.723   9.508  0.1952  0.1897  0.1329
  236loPI   C4A 3770  16.833   2.738   9.116  0.2063 -0.0026  0.1227
  236loPI   C5A 3771  16.859   2.463   8.831  0.0626 -0.1250 -0.0460
  236loPI   C6A 3772  17.036   2.139   8.597  0.0806  0.1243 -0.0230
  236loPI   C1B 3773  16.780   3.343  10.268 -0.1618  0.0546 -0.1406
  236loPI   C2B 3774  16.762   3.211   9.891  0.0352 -0.1372 -0.0181
  236loPI   C3B 3775  16.914   3.189   9.498  0.0978 -0.1138  0.0036
  236loPI   C4B 3776  16.869   3.253   9.075 -0.1354 -0.2757  0.0377
  237loPI    C1 3777   1.788  13.778  11.539  0.0231 -0.0489  0.0824
  237loPI    C2 3778   1.604  13.911  11.868 -0.1815 -0.2732  0.0611
  237loPI    C3 3779   1.622  13.518  11.793  0.1881 -0.2470 -0.0089
  237loPI   PO4 3780   1.586  13.937  11.365 -0.0176  0.2458 -0.0472
  237loPI   GL1 3781   1.490  14.030  10.949  0.4287  0.0904 -0.0445
  237loPI   GL2 3782   1.829  14.046  10.939  0.4172 -0.0809  0.1358
  237loPI   C1A 3783   1.269  13.991  10.571 -0.1084  0.0609  0.0966
  237loPI   C2A 3784   1.306  14.021  10.084 -0.0435  0.0602  0.2767
  237loPI   C3A 3785   1.301  14.100   9.656 -0.0554  0.0387  0.0405
  237loPI   C4A 3786   1.299  14.101   9.258  0.1916  0.1534 -0.2822
  237loPI   C5A 3787   1.432  14.125   8.783 -0.0644  0.1773 -0.4544
  237loPI   C6A 3788   1.338  13.812   8.492 -0.2976 -0.0776  0.0918
  237loPI   C1B 3789   1.753  14.147  10.477 -0.1525 -0.1380  0.0791
  237loPI   C2B 3790   1.746  14.193  10.086 -0.0666 -0.1778  0.0149
  237loPI   C3B 3791   1.778  14.288   9.611  0.2100 -0.0805  0.2628
  237loPI   C4B 3792   1.811  14.285   9.140 -0.0818 -0.2167  0.1096
  238loPI    C1 3793  14.120  16.786  11.560 -0.0403  0.0330  0.0389
  238loPI    C2 3794  13.845  16.609  11.791 -0.0375 -0.2440 -0.1648
  238loPI    C3 3795  14.228  16.494  11.810  0.0092 -0.0833 -0.1165
  238loPI   PO4 3796  14.030  16.756  11.375  0.0756  0.0275  0.1326
  238loPI   GL1 3797  14.138  16.600  11.022  0.0896  0.2463 -0.0093
  238loPI   GL2 3798  13.714  16.505  11.023  0.0326 -0.0306  0.0292
  238loPI   C1A 3799  14.297  16.442  10.560  0.1198  0.1838  0.1475
  238loPI   C2A 3800  14.331  16.576  10.129  0.1605  0.0436 -0.0340
  238loPI   C3A 3801  14.282  16.498   9.659 -0.1695 -0.2332  0.1363
  238loPI   C4A 3802  14.402  16.485   9.256 -0.0888  0.0328 -0.2364
  238loPI   C5A 3803  14.398  16.370   8.898 -0.0416 -0.1953 -0.2028
  238loPI   C6A 3804  14.403  16.143   8.510 -0.0514 -0.0525  0.3447
  238loPI   C1B 3805  13.583  16.574  10.580  0.0918 -0.1906  0.1063
  238loPI   C2B 3806  13.482  16.558  10.044  0.0350  0.1659 -0.0316
  238loPI   C3B 3807  13.469  16.712   9.626 -0.0873 -0.1673 -0.1074
  238loPI   C4B 3808  13.507  16.670   9.143  0.0786 -0.2174 -0.1592
  239loPI    C1 3809  14.343  15.095  11.171 -0.1063 -0.1370 -0.1197
  239loPI    C2 3810  14.040  14.845  11.242 -0.0582 -0.1740 -0.0435
  239loPI    C3 3811  14.171  15.087  11.532 -0.0382 -0.1329 -0.0870
  239loPI   PO4 3812  14.471  14.891  10.994 -0.2672 -0.1468  0.1636
  239loPI   GL1 3813  14.098  14.656  10.796  0.0318  0.0668  0.0213
  239loPI   GL2 3814  14.170  14.826  10.540 -0.0706 -0.2261  0.1092
  239loPI   C1A 3815  13.736  14.635  10.422  0.2171 -0.1733 -0.5954
  239loPI   C2A 3816  13.658  14.702   9.931 -0.1725  0.0774 -0.2733
  239loPI   C3A 3817  13.713  14.737   9.510  0.0297 -0.3996  0.0381
  239loPI   C4A 3818  13.688  14.678   9.074  0.0912 -0.0425 -0.0035
  239loPI   C5A 3819  13.487  14.737   8.725 -0.3386 -0.0459  0.0523
  239loPI   C6A 3820  13.669  15.152   8.666 -0.1558  0.1284 -0.0131
  239loPI   C1B 3821  14.107  14.890  10.190 -0.2852 -0.1761  0.0629
  239loPI   C2B 3822  14.108  14.972   9.791 -0.0931  0.0097 -0.0016
  239loPI   C3B 3823  14.125  14.896   9.297 -0.1279  0.2934 -0.0941
  239loPI   C4B 3824  14.151  14.785   8.799  0.2407 -0.2756  0.0574
  240loPI    C1 3825  16.855   4.812  10.834  0.0047  0.3454 -0.1875
  240loPI    C2 3826  17.191   4.719  11.031 -0.0252  0.1115 -0.2434
  240loPI    C3 3827  16.876   4.865  11.230 -0.0639 -0.1472 -0.1116
  240loPI   PO4 3828  16.681   4.555  10.752 -0.2771  0.0933 -0.1369
  240loPI   GL1 3829  16.651   4.344  10.486  0.2462  0.0699 -0.0061
  240loPI   GL2 3830  16.454   4.198  10.276 -0.0659  0.3548  0.0454
  240loPI   C1A 3831  16.949   4.320  10.106 -0.2923 -0.0582  0.0380
  240loPI   C2A 3832  17.005   4.236   9.684 -0.1985  0.0286  0.0393
  240loPI   C3A 3833  17.063   4.323   9.261 -0.2053  0.3056 -0.0980
  240loPI   C4A 3834  17.032   4.388   8.843  0.1426  0.0027  0.2121
  240loPI   C5A 3835  17.338   4.385   8.588  0.3523 -0.1910 -0.2056
  240loPI   C6A 3836  17.321   4.221   8.236  0.1528 -0.0647  0.1854
  240loPI   C1B 3837  16.512   4.102   9.846  0.0954  0.2651  0.3980
  240loPI   C2B 3838  16.556   4.044   9.372 -0.1657 -0.0057  0.2325
  240loPI   C3B 3839  16.630   4.149   9.045  0.0611 -0.2560 -0.0915
  240loPI   C4B 3840  16.489   4.039   8.663  0.4384  0.1869 -0.0720
  241loPI    C1 3841   7.850   0.181  11.311  0.0006 -0.0280  0.0411
  241loPI    C2 3842   7.790   0.241  11.702 -0.0073  0.3719 -0.0168
  241loPI    C3 3843   8.162   0.232  11.556  0.0088 -0.0608  0.0375
  241loPI   PO4 3844   7.661   0.245  11.218  0.2940  0.0204  0.0797
  241loPI   GL1 3845   7.604   0.308  10.788 -0.2243  0.1768 -0.2946
  241loPI   GL2 3846   7.455  -0.023  10.508  0.0188 -0.0773 -0.0751
  241loPI   C1A 3847   7.593   0.491  10.372  0.1220 -0.2568 -0.0074
  241loPI   C2A 3848   7.495   0.608  10.014 -0.3274  0.1363  0.1372
  241loPI   C3A 3849   7.469   0.557   9.580 -0.2840 -0.0105 -0.0761
  241loPI   C4A 3850   7.443   0.594   9.143 -0.0670 -0.1382 -0.1612
  241loPI   C5A 3851   7.329   0.616   8.748 -0.0921 -0.1714  0.1099
  241loPI   C6A 3852   7.431   0.889   8.481 -0.2965 -0.2141  0.0388
  241loPI   C1B 3853   7.396   0.081  10.121  0.1084  0.3443  0.0453
  241loPI   C2B 3854   7.398   0.076   9.756  0.0875  0.0500 -0.1779
  241loPI   C3B 3855   7.341   0.124   9.335  0.3056 -0.1448  0.1964
  241loPI   C4B 3856   7.334   0.157   8.900  0.1099 -0.1657  0.0071
  242loPI    C1 3857  10.182   5.813  10.714 -0.1245 -0.2039 -0.1324
  242loPI    C2 3858  10.197   6.178  10.876 -0.1277 -0.2621 -0.0002
  242loPI    C3 3859  10.205   5.855  11.111  0.3255 -0.3569 -0.1363
  242loPI   PO4 3860   9.988   5.848  10.527 -0.1193 -0.1383 -0.0466
  242loPI   GL1 3861   9.748   5.719  10.235 -0.3570 -0.0880  0.1640
  242loPI   GL2 3862   9.523   5.511  10.120 -0.0203 -0.1357 -0.0309
  242loPI   C1A 3863   9.873   5.617   9.818  0.2549 -0.0406 -0.2395
  242loPI   C2A 3864   9.783   5.667   9.309 -0.0248 -0.0389  0.0362
  242loPI   C3A 3865   9.781   5.696   8.910 -0.2880 -0.0638  0.5233
  242loPI   C4A 3866   9.696   5.738   8.461  0.2351  0.1819  0.1001
  242loPI   C5A 3867   9.620   5.789   7.977 -0.2553 -0.1383 -0.2453
  242loPI   C6A 3868   9.761   6.128   7.707  0.3115  0.1120 -0.4889
  242loPI   C1B 3869   9.411   5.387   9.784  0.0778 -0.1378  0.2421
  242loPI   C2B 3870   9.307   5.456   9.238 -0.1670 -0.1141  0.0636
  242loPI   C3B 3871   9.335   5.414   8.809 -0.3976 -0.4035  0.1862
  242loPI   C4B 3872   9.239   5.303   8.346  0.1234 -0.0765 -0.0230
  243loPI    C1 3873   0.696   4.472  11.010 -0.0932  0.2762 -0.0718
  243loPI    C2 3874   0.670   4.117  11.194 -0.0931  0.1820 -0.2516
  243loPI    C3 3875   0.867   4.419  11.368 -0.0010  0.0621 -0.1464
  243loPI   PO4 3876   0.451   4.526  10.893  0.1323 -0.0394 -0.0934
  243loPI   GL1 3877   0.285   4.543  10.503 -0.1247 -0.0650  0.0793
  243loPI   GL2 3878   0.047   4.401  10.531  0.0769 -0.0212  0.3977
  243loPI   C1A 3879   0.341   4.639  10.093  0.0130 -0.4135  0.0090
  243loPI   C2A 3880   0.306   4.707   9.542  0.1720 -0.2519 -0.0500
  243loPI   C3A 3881   0.359   4.648   9.088 -0.0328  0.1028 -0.1842
  243loPI   C4A 3882   0.535   4.673   8.577 -0.4054  0.0200  0.2324
  243loPI   C5A 3883   0.707   4.627   8.152 -0.2150 -0.1041 -0.2197
  243loPI   C6A 3884   1.028   4.860   7.941  0.0344  0.1749  0.1642
  243loPI   C1B 3885   0.122   4.199  10.128 -0.0788 -0.1171 -0.2779
  243loPI   C2B 3886   0.214   4.224   9.745  0.2643  0.0146  0.1018
  243loPI   C3B 3887   0.246   4.107   9.373 -0.0268  0.0979 -0.1148
  243loPI   C4B 3888   0.377   4.163   8.976  0.0553 -0.2246 -0.0425
  244loPI    C1 3889  16.819   8.664  10.603  0.1227 -0.1445  0.2521
  244loPI    C2 3890  16.810   8.290  10.745  0.0737 -0.1357  0.2724
  244loPI    C3 3891  16.948   8.588  10.973  0.1628 -0.1497  0.2371
  244loPI   PO4 3892  16.626   8.710  10.525  0.1136  0.0271 -0.0797
  244loPI   GL1 3893  16.557   8.744  10.153 -0.1506 -0.0007  0.0406
  244loPI   GL2 3894  16.295   8.585  10.156  0.2655 -0.1410 -0.0361
  244loPI   C1A 3895  16.432   8.843   9.712  0.2192  0.0266 -0.0361
  244loPI   C2A 3896  16.429   8.884   9.278  0.1204 -0.0903  0.0329
  244loPI   C3A 3897  16.476   8.883   8.846 -0.1984  0.4840 -0.0913
  244loPI   C4A 3898  16.508   8.990   8.470  0.2330  0.2927 -0.1887
  244loPI   C5A 3899  16.546   9.081   8.075 -0.1541  0.0141  0.0784
  244loPI   C6A 3900  16.366   9.200   7.724 -0.3533  0.0275 -0.0820
  244loPI   C1B 3901  16.276   8.352   9.799 -0.0564 -0.0577  0.0737
  244loPI   C2B 3902  16.281   8.401   9.450 -0.0595 -0.0350 -0.0186
  244loPI   C3B 3903  16.318   8.438   9.026  0.2059 -0.0656  0.0084
  244loPI   C4B 3904  16.336   8.418   8.634  0.0442 -0.1370  0.2625
  245loPI    C1 3905   8.716  10.709  11.133 -0.2763 -0.0746 -0.1380
  245loPI    C2 3906   8.519  10.927  11.404  0.1117  0.1044  0.0075
  245loPI    C3 3907   8.754  10.626  11.522 -0.0626 -0.1021 -0.1633
  245loPI   PO4 3908   8.828  10.797  10.945 -0.0344  0.1213  0.1383
  245loPI   GL1 3909   8.688  10.823  10.554 -0.1001  0.0043  0.0142
  245loPI   GL2 3910   8.948  10.606  10.497  0.4772  0.0030 -0.1092
  245loPI   C1A 3911   8.479  10.867  10.079  0.0327 -0.2304 -0.4557
  245loPI   C2A 3912   8.482  11.002   9.666  0.0778 -0.1587 -0.0186
  245loPI   C3A 3913   8.460  10.963   9.188  0.2263  0.1124 -0.1493
  245loPI   C4A 3914   8.405  10.941   8.813  0.1930  0.0342 -0.2287
  245loPI   C5A 3915   8.246  10.941   8.403 -0.0033  0.5295  0.0887
  245loPI   C6A 3916   8.250  10.797   7.990  0.1383  0.1568 -0.0934
  245loPI   C1B 3917   8.938  10.643  10.087  0.2985  0.2120 -0.0311
  245loPI   C2B 3918   8.920  10.661   9.638 -0.0684 -0.1137 -0.0603
  245loPI   C3B 3919   8.881  10.563   9.175 -0.0575 -0.1660  0.2285
  245loPI   C4B 3920   8.805  10.564   8.796 -0.4172 -0.0939  0.2502
  246loPI    C1 3921  10.417   8.806  10.944  0.0607  0.0151  0.1298
  246loPI    C2 3922  10.639   8.820  11.276 -0.1018 -0.1624  0.2479
  246loPI    C3 3923  10.268   8.968  11.277  0.0151  0.1422  0.0483
  246loPI   PO4 3924  10.632   8.729  10.764  0.1139  0.1637  0.1982
  246loPI   GL1 3925  10.618   8.602  10.426  0.0133  0.0911  0.0759
  246loPI   GL2 3926  10.970   8.740  10.291  0.2638  0.0109  0.1858
  246loPI   C1A 3927  10.455   8.615  10.068 -0.2416 -0.2439 -0.2547
  246loPI   C2A 3928  10.421   8.657   9.632 -0.0138 -0.0951 -0.4083
  246loPI   C3A 3929  10.369   8.693   9.202 -0.1053 -0.1417  0.0541
  246loPI   C4A 3930  10.412   8.732   8.793  0.2561  0.0966 -0.0814
  246loPI   C5A 3931  10.126   8.606   8.386  0.1271  0.0422 -0.3118
  246loPI   C6A 3932   9.665   8.668   8.221  0.3237 -0.3811  0.2725
  246loPI   C1B 3933  10.910   8.860   9.895 -0.0236  0.1071  0.0369
  246loPI   C2B 3934  10.872   8.946   9.401  0.0156  0.1852 -0.1319
  246loPI   C3B 3935  10.798   8.953   8.978  0.0745 -0.5116  0.1552
  246loPI   C4B 3936  10.799   8.896   8.521 -0.0429 -0.0979 -0.0844
  247loPI    C1 3937   8.884   3.448  11.023 -0.0450 -0.0905 -0.0361
  247loPI    C2 3938   9.282   3.412  11.040 -0.0370  0.0548  0.1080
  247loPI    C3 3939   9.049   3.135  11.209  0.0013 -0.0611 -0.0276
  247loPI   PO4 3940   8.834   3.448  10.846 -0.0614  0.2375  0.1113
  247loPI   GL1 3941   8.631   3.376  10.464  0.2843  0.3276  0.3215
  247loPI   GL2 3942   8.856   3.453  10.169  0.1042  0.1498 -0.1366
  247loPI   C1A 3943   8.364   3.215  10.293 -0.0708 -0.2021  0.0475
  247loPI   C2A 3944   8.307   3.275   9.874 -0.2346 -0.0524  0.0308
  247loPI   C3A 3945   8.327   3.348   9.430  0.0039  0.2420 -0.1464
  247loPI   C4A 3946   8.299   3.273   9.009  0.1132  0.2038  0.2038
  247loPI   C5A 3947   8.519   3.345   8.643  0.4039 -0.0109  0.2644
  247loPI   C6A 3948   8.643   3.029   8.289  0.3292 -0.2228 -0.3058
  247loPI   C1B 3949   8.895   3.529   9.738  0.1997 -0.0883 -0.0255
  247loPI   C2B 3950   8.900   3.528   9.256 -0.3117  0.1048 -0.0642
  247loPI   C3B 3951   8.954   3.418   8.885 -0.3598 -0.0647  0.0098
  247loPI   C4B 3952   9.040   3.281   8.480 -0.0484  0.0168 -0.0449
  248loPI    C1 3953   8.873   4.476  10.750  0.0305  0.0303 -0.1694
  248loPI    C2 3954   9.123   4.304  10.490  0.1330 -0.0321 -0.0313
  248loPI    C3 3955   9.205   4.294  10.881  0.1258  0.3068 -0.0181
  248loPI   PO4 3956   8.711   4.531  10.604 -0.2164  0.0580 -0.0576
  248loPI   GL1 3957   8.736   4.617  10.225 -0.2029  0.1242 -0.1736
  248loPI   GL2 3958   8.689   4.831  10.026 -0.0066  0.3611 -0.0935
  248loPI   C1A 3959   8.595   4.332   9.941  0.1084  0.3769 -0.1310
  248loPI   C2A 3960   8.504   4.297   9.429  0.2269 -0.0882  0.1251
  248loPI   C3A 3961   8.650   4.248   8.990  0.1643  0.0060 -0.1487
  248loPI   C4A 3962   8.752   4.156   8.546 -0.1381 -0.2919  0.0369
  248loPI   C5A 3963   8.673   3.785   8.303 -0.2016 -0.3452  0.0670
  248loPI   C6A 3964   8.406   3.434   8.157  0.2416  0.0411  0.1109
  248loPI   C1B 3965   8.656   4.784   9.558  0.0439 -0.0108  0.0207
  248loPI   C2B 3966   8.625   4.766   9.105 -0.2126  0.0596  0.0466
  248loPI   C3B 3967   8.740   4.666   8.708 -0.2181 -0.0526 -0.0932
  248loPI   C4B 3968   8.872   4.700   8.370  0.2321 -0.0684 -0.2767
  249loPI    C1 3969  16.684   3.841  11.386  0.0576  0.1026 -0.3096
  249loPI    C2 3970  17.044   3.745  11.530 -0.0701 -0.0381 -0.0770
  249loPI    C3 3971  16.892   4.109  11.597 -0.1306 -0.1043  0.1503
  249loPI   PO4 3972  16.677   3.838  11.185  0.1760 -0.0244  0.1791
  249loPI   GL1 3973  16.755   3.809  10.784  0.0688  0.2577  0.1255
  249loPI   GL2 3974  16.576   3.668  10.663 -0.1723 -0.0099 -0.0914
  249loPI   C1A 3975  16.925   3.841  10.351 -0.1879 -0.0107 -0.1242
  249loPI   C2A 3976  16.920   3.773   9.940  0.1506 -0.0558  0.0071
  249loPI   C3A 3977  17.045   3.723   9.454  0.0213 -0.3679  0.0123
  249loPI   C4A 3978  17.001   3.753   9.032  0.2072 -0.0469 -0.0704
  249loPI   C5A 3979  17.034   3.974   8.632  0.3224 -0.1825 -0.1740
  249loPI   C6A 3980  16.837   4.081   8.255  0.0356 -0.0726  0.2417
  249loPI   C1B 3981  16.436   3.722  10.182 -0.1519  0.0702 -0.0315
  249loPI   C2B 3982  16.365   3.508   9.804 -0.0302  0.1625 -0.0987
  249loPI   C3B 3983  16.402   3.545   9.298 -0.1564 -0.0341 -0.0174
  249loPI   C4B 3984  16.518   3.584   8.843  0.0756  0.2256 -0.0817
  250loPI    C1 3985  14.433   6.823  10.970 -0.2435  0.1298 -0.0477
  250loPI    C2 3986  14.365   6.513  11.214 -0.1442 -0.0027 -0.1869
  250loPI    C3 3987  14.283   6.885  11.336 -0.1356 -0.0712  0.0319
  250loPI   PO4 3988  14.328   6.849  10.692 -0.1549 -0.0521 -0.2280
  250loPI   GL1 3989  14.045   6.963  10.482 -0.0173 -0.2613  0.2286
  250loPI   GL2 3990  13.818   7.004  10.247 -0.3505  0.2314  0.2013
  250loPI   C1A 3991  14.197   6.758  10.077 -0.0595 -0.0340  0.1603
  250loPI   C2A 3992  14.185   6.643   9.715 -0.1801 -0.0399 -0.1000
  250loPI   C3A 3993  14.218   6.627   9.317 -0.1005  0.0841  0.3325
  250loPI   C4A 3994  14.121   6.661   8.861  0.0970  0.0561 -0.2553
  250loPI   C5A 3995  14.246   6.725   8.454 -0.0724  0.2442 -0.0904
  250loPI   C6A 3996  14.367   6.629   8.097 -0.0350  0.0211  0.3424
  250loPI   C1B 3997  13.843   7.018   9.839  0.3430 -0.0062  0.1027
  250loPI   C2B 3998  13.804   6.950   9.433 -0.0649  0.2784 -0.0456
  250loPI   C3B 3999  13.753   7.004   8.984  0.2261 -0.2170  0.1487
  250loPI   C4B 4000  13.850   6.985   8.517  0.2446 -0.3045 -0.3219
  251loPI    C1 4001   8.934  14.302  11.254 -0.1951 -0.1960 -0.3437
  251loPI    C2 4002   8.555  14.393  11.343 -0.0780  0.1502 -0.1798
  251loPI    C3 4003   8.752  14.122  11.562 -0.2109  0.0116 -0.2298
  251loPI   PO4 4004   8.925  14.299  11.020 -0.0340 -0.0270 -0.0898
  251loPI   GL1 4005   8.863  14.440  10.593 -0.0979  0.0161 -0.0759
  251loPI   GL2 4006   8.625  14.240  10.596 -0.2610 -0.0212 -0.1929
  251loPI   C1A 4007   9.099  14.520  10.316  0.0682  0.0802  0.2847
  251loPI   C2A 4008   9.103  14.476   9.850 -0.1392 -0.0230 -0.0371
  251loPI   C3A 4009   9.101  14.517   9.373  0.0811 -0.1443  0.0938
  251loPI   C4A 4010   9.084  14.513   8.918 -0.3276  0.0320 -0.2166
  251loPI   C5A 4011   9.238  14.531   8.578  0.0246  0.3873 -0.3198
  251loPI   C6A 4012   9.270  14.728   8.308 -0.2667  0.0422 -0.0785
  251loPI   C1B 4013   8.613  14.277  10.146 -0.0765  0.0803 -0.1223
  251loPI   C2B 4014   8.583  14.353   9.731  0.1007  0.1061  0.0388
  251loPI   C3B 4015   8.570  14.373   9.342  0.0076  0.1577  0.1282
  251loPI   C4B 4016   8.598  14.408   8.836 -0.1658  0.0775 -0.1405
  252loPI    C1 4017   0.613   7.949  10.369  0.2287 -0.1580  0.0710
  252loPI    C2 4018   0.750   7.577  10.423  0.3862 -0.0990  0.0810
  252loPI    C3 4019   0.707   7.822  10.737 -0.0536 -0.2227  0.1235
  252loPI   PO4 4020   0.357   7.912  10.275  0.0439 -0.1731  0.1727
  252loPI   GL1 4021   0.072   8.044   9.930  0.1032 -0.0073  0.3943
  252loPI   GL2 4022  -0.036   7.668  10.036  0.0886  0.1813  0.0482
  252loPI   C1A 4023  -0.022   8.057   9.463  0.1394  0.1468 -0.0842
  252loPI   C2A 4024  -0.030   8.037   9.004 -0.1083  0.0145  0.2215
  252loPI   C3A 4025  -0.027   7.961   8.557  0.4500 -0.0019 -0.0897
  252loPI   C4A 4026   0.127   7.977   8.272  0.1748  0.0306 -0.1647
  252loPI   C5A 4027   0.329   7.664   8.064 -0.0950  0.0645  0.1064
  252loPI   C6A 4028   0.067   7.384   7.943 -0.0574  0.1360 -0.2512
  252loPI   C1B 4029  -0.079   7.307   9.612 -0.1142 -0.1984  0.0366
  252loPI   C2B 4030  -0.111   7.336   9.171 -0.0862 -0.0857  0.0152
  252loPI   C3B 4031  -0.076   7.538   8.853 -0.0461  0.2622 -0.3188
  252loPI   C4B 4032  -0.088   7.484   8.420 -0.1236  0.0665 -0.0197
  253loPI    C1 4033   8.986   8.380  11.315  0.1836 -0.0665 -0.2627
  253loPI    C2 4034   8.680   8.629  11.384  0.1541 -0.0969 -0.2827
  253loPI    C3 4035   9.042   8.711  11.533  0.1374 -0.0581 -0.2632
  253loPI   PO4 4036   8.973   8.331  11.056 -0.0666  0.0416 -0.0905
  253loPI   GL1 4037   8.894   8.465  10.663  0.0623  0.2197 -0.0234
  253loPI   GL2 4038   9.158   8.740  10.533  0.0921  0.0018  0.2090
  253loPI   C1A 4039   8.990   8.276  10.266 -0.0246  0.2914  0.2250
  253loPI   C2A 4040   8.995   8.235   9.891  0.0912 -0.1220 -0.1652
  253loPI   C3A 4041   8.893   8.265   9.537  0.3212 -0.2424 -0.0492
  253loPI   C4A 4042   8.872   8.208   9.098 -0.1983  0.0600  0.2874
  253loPI   C5A 4043   8.979   8.323   8.748 -0.2250 -0.1112  0.0247
  253loPI   C6A 4044   9.174   8.687   8.456 -0.0006 -0.1693  0.0793
  253loPI   C1B 4045   9.068   8.713  10.015 -0.3971  0.1319  0.0358
  253loPI   C2B 4046   9.028   8.754   9.588 -0.2558  0.0619 -0.3230
  253loPI   C3B 4047   9.046   8.645   9.263 -0.1425 -0.0133  0.0183
  253loPI   C4B 4048   8.933   8.804   8.902  0.1043  0.1630 -0.2276
  254loPI    C1 4049  16.342  12.564  11.019  0.1875 -0.0994 -0.0552
  254loPI    C2 4050  16.683  12.694  11.183  0.0015  0.0616  0.2119
  254loPI    C3 4051  16.408  12.515  11.411 -0.0832 -0.0903 -0.0066
  254loPI   PO4 4052  16.190  12.679  10.871  0.0406 -0.2445 -0.1336
  254loPI   GL1 4053  16.122  12.505  10.390  0.0632  0.2955 -0.0506
  254loPI   GL2 4054  16.473  12.532  10.431  0.2189 -0.0342  0.0170
  254loPI   C1A 4055  16.156  12.745  10.003 -0.1006  0.1901  0.4338
  254loPI   C2A 4056  16.116  12.847   9.554  0.0459  0.1393  0.0419
  254loPI   C3A 4057  16.052  12.875   9.238  0.2550  0.0314 -0.1992
  254loPI   C4A 4058  16.097  12.671   8.860 -0.2260 -0.1051 -0.3518
  254loPI   C5A 4059  16.102  12.598   8.474  0.3360 -0.1535 -0.1911
  254loPI   C6A 4060  15.922  12.488   8.076  0.2431 -0.1377 -0.0551
  254loPI   C1B 4061  16.479  12.425  10.100 -0.0780 -0.0530 -0.5082
  254loPI   C2B 4062  16.496  12.481   9.646  0.1143  0.1805  0.1868
  254loPI   C3B 4063  16.482  12.461   9.151  0.1466  0.1984  0.0076
  254loPI   C4B 4064  16.550  12.400   8.743  0.1025  0.2471  0.1609
  255loPI    C1 4065  15.541  12.613  11.294 -0.0279 -0.2316 -0.2693
  255loPI    C2 4066  15.940  12.603  11.275 -0.0108  0.0769 -0.1202
  255loPI    C3 4067  15.756  12.596  11.630 -0.1339  0.0534 -0.1839
  255loPI   PO4 4068  15.508  12.558  11.064  0.2189  0.0409 -0.0696
  255loPI   GL1 4069  15.500  12.536  10.686 -0.1337  0.0130  0.1537
  255loPI   GL2 4070  15.772  12.723  10.610  0.0663 -0.1264 -0.1805
  255loPI   C1A 4071  15.322  12.861  10.370  0.0296 -0.1777 -0.3616
  255loPI   C2A 4072  15.218  12.871   9.980 -0.0773  0.3223 -0.2972
  255loPI   C3A 4073  15.261  12.899   9.539  0.2151  0.2018 -0.4360
  255loPI   C4A 4074  15.167  12.923   9.114  0.5067 -0.1015  0.1144
  255loPI   C5A 4075  15.213  12.917   8.651 -0.0304  0.2447 -0.1305
  255loPI   C6A 4076  15.621  12.825   8.338  0.0197  0.0317 -0.0458
  255loPI   C1B 4077  15.860  13.011  10.250 -0.0316 -0.0707  0.0490
  255loPI   C2B 4078  15.785  13.136   9.827 -0.0734  0.3268  0.2479
  255loPI   C3B 4079  15.696  13.176   9.390  0.2323 -0.0071 -0.0227
  255loPI   C4B 4080  15.634  13.090   8.980  0.3429 -0.0441 -0.0815
  256loPI    C1 4081  11.104   8.617  10.799 -0.0876 -0.1872  0.1087
  256loPI    C2 4082  11.110   8.510  11.185 -0.0251 -0.2262  0.0971
  256loPI    C3 4083  11.143   8.896  11.083  0.1773 -0.2355  0.1228
  256loPI   PO4 4084  11.260   8.442  10.665 -0.3333 -0.1808  0.1175
  256loPI   GL1 4085  11.315   8.175  10.392 -0.0550 -0.1087  0.1731
  256loPI   GL2 4086  11.469   7.931  10.377 -0.3487  0.0041 -0.1218
  256loPI   C1A 4087  11.304   8.453   9.982 -0.0350  0.1254  0.2105
  256loPI   C2A 4088  11.291   8.657   9.529 -0.1226  0.0009 -0.1301
  256loPI   C3A 4089  11.229   8.655   9.099  0.0299  0.1545 -0.1720
  256loPI   C4A 4090  11.287   8.646   8.596  0.0892 -0.2553  0.0478
  256loPI   C5A 4091  11.089   8.699   8.185  0.1588  0.0554  0.0264
  256loPI   C6A 4092  11.099   8.911   7.864 -0.0056  0.3009 -0.0121
  256loPI   C1B 4093  11.237   7.921   9.984  0.1121 -0.3437  0.2146
  256loPI   C2B 4094  11.232   8.084   9.505 -0.0631 -0.1861 -0.1496
  256loPI   C3B 4095  11.205   8.043   9.032  0.1311 -0.2850 -0.5860
  256loPI   C4B 4096  11.337   8.096   8.608  0.1320 -0.3676  0.0845
  257loPI    C1 4097   7.570   1.159  11.445 -0.1395  0.0954  0.0009
  257loPI    C2 4098   7.448   1.057  11.813 -0.1050 -0.0559 -0.0290
  257loPI    C3 4099   7.595   1.423  11.745  0.1363 -0.1143  0.1666
  257loPI   PO4 4100   7.289   1.104  11.202 -0.1748  0.0325 -0.0921
  257loPI   GL1 4101   7.192   1.064  10.790  0.3642 -0.3798  0.0282
  257loPI   GL2 4102   7.279   1.456  10.850  0.1827 -0.1153 -0.0459
  257loPI   C1A 4103   7.202   0.948  10.399  0.1203 -0.4469  0.2271
  257loPI   C2A 4104   7.011   0.904   9.948  0.0818  0.5496 -0.0475
  257loPI   C3A 4105   7.019   0.801   9.527  0.0087  0.0061  0.1269
  257loPI   C4A 4106   7.038   0.959   9.101  0.1628 -0.1627 -0.0402
  257loPI   C5A 4107   6.994   1.059   8.668  0.1188 -0.1303  0.0513
  257loPI   C6A 4108   7.001   1.235   8.259 -0.1948 -0.0313 -0.1326
  257loPI   C1B 4109   7.231   1.460  10.436  0.1569  0.1748  0.0360
  257loPI   C2B 4110   7.128   1.385   9.985 -0.1371 -0.1587 -0.5321
  257loPI   C3B 4111   7.173   1.386   9.511  0.0865 -0.0829  0.3157
  257loPI   C4B 4112   7.105   1.457   9.057 -0.1881  0.2989  0.0318
  258loPI    C1 4113   4.137   7.500  10.712 -0.0511  0.0809  0.0546
  258loPI    C2 4114   4.279   7.665  11.048 -0.0597 -0.0166  0.1066
  258loPI    C3 4115   3.900   7.538  11.031 -0.0082 -0.1748  0.1196
  258loPI   PO4 4116   4.216   7.289  10.622  0.1705 -0.1062  0.1151
  258loPI   GL1 4117   4.122   7.011  10.408  0.0564  0.0881  0.0687
  258loPI   GL2 4118   4.412   7.072  10.226  0.0528  0.1039  0.0984
  258loPI   C1A 4119   4.016   6.960   9.954 -0.1211  0.2642 -0.0486
  258loPI   C2A 4120   4.065   6.945   9.557  0.1496  0.1893  0.1293
  258loPI   C3A 4121   3.949   6.993   9.231 -0.1997 -0.0205 -0.0453
  258loPI   C4A 4122   3.955   6.932   8.790 -0.0558  0.0354 -0.1045
  258loPI   C5A 4123   3.799   6.894   8.406 -0.3024 -0.0080  0.1484
  258loPI   C6A 4124   3.364   7.154   8.262  0.0124  0.0438  0.3148
  258loPI   C1B 4125   4.540   7.084   9.775  0.2610  0.1612  0.0212
  258loPI   C2B 4126   4.515   7.104   9.325  0.0954 -0.0460  0.1748
  258loPI   C3B 4127   4.534   7.111   8.959  0.0703 -0.0336 -0.0835
  258loPI   C4B 4128   4.387   7.071   8.513  0.1801 -0.1694  0.0192
  259loPI    C1 4129   1.361  11.202  11.096 -0.0726  0.0186  0.0958
  259loPI    C2 4130   1.030  11.122  11.306 -0.0898 -0.3295 -0.0577
  259loPI    C3 4131   1.378  10.954  11.409  0.0449  0.0385  0.1056
  259loPI   PO4 4132   1.195  11.057  10.869 -0.2178  0.0156  0.1037
  259loPI   GL1 4133   1.201  11.136  10.471 -0.3362 -0.1696 -0.0270
  259loPI   GL2 4134   0.919  11.289  10.375  0.0533 -0.1365  0.4603
  259loPI   C1A 4135   1.363  11.167  10.033 -0.0619 -0.0876 -0.0589
  259loPI   C2A 4136   1.363  11.194   9.553 -0.1547 -0.0396 -0.0061
  259loPI   C3A 4137   1.239  11.240   9.165 -0.2986  0.2587 -0.0900
  259loPI   C4A 4138   1.291  11.377   8.735 -0.2124  0.1551  0.0157
  259loPI   C5A 4139   1.271  11.670   8.294 -0.5057  0.2923 -0.2785
  259loPI   C6A 4140   1.614  11.681   7.950  0.0833  0.1586  0.0762
  259loPI   C1B 4141   0.920  11.427   9.853  0.0560 -0.1388  0.1570
  259loPI   C2B 4142   0.948  11.580   9.387  0.1345 -0.1032  0.2101
  259loPI   C3B 4143   0.858  11.506   8.972 -0.0983  0.1452 -0.3914
  259loPI   C4B 4144   0.873  11.427   8.522  0.0566 -0.1644  0.0378
  260loPI    C1 4145   5.405  17.408  11.488  0.1997 -0.0720 -0.0430
  260loPI    C2 4146   5.346  17.043  11.640 -0.0240 -0.0375 -0.0436
  260loPI    C3 4147   5.376  17.359  11.884 -0.0835 -0.0224 -0.0557
  260loPI   PO4 4148   5.453  17.322  11.181  0.0282 -0.2617 -0.0846
  260loPI   GL1 4149   5.350  17.471  10.823 -0.0502 -0.0311  0.1217
  260loPI   GL2 4150   5.073  17.385  10.705 -0.2037  0.2684  0.0610
  260loPI   C1A 4151   5.569  17.493  10.448  0.1396 -0.2219 -0.0004
  260loPI   C2A 4152   5.514  17.514   9.974  0.4196 -0.1102  0.0984
  260loPI   C3A 4153   5.500  17.553   9.505 -0.0893  0.3036  0.1447
  260loPI   C4A 4154   5.519  17.513   9.047 -0.1696 -0.1375 -0.1098
  260loPI   C5A 4155   5.345  17.715   8.649  0.0717  0.1355 -0.1223
  260loPI   C6A 4156   5.074  17.879   8.459 -0.1356 -0.1812  0.2497
  260loPI   C1B 4157   5.140  17.385  10.287  0.0953  0.3393 -0.1264
  260loPI   C2B 4158   5.083  17.358   9.767  0.2363 -0.0117  0.0474
  260loPI   C3B 4159   5.031  17.393   9.325  0.0207  0.1542 -0.0888
  260loPI   C4B 4160   5.001  17.361   8.959  0.2609  0.0857 -0.0252
  261loPI    C1 4161   8.894   3.997  11.360  0.0037 -0.1160 -0.0650
  261loPI    C2 4162   8.577   3.789  11.488 -0.1653  0.2052  0.0487
  261loPI    C3 4163   8.873   3.879  11.742 -0.0066 -0.0466 -0.0439
  261loPI   PO4 4164   8.873   3.976  11.079  0.1827  0.1081  0.1373
  261loPI   GL1 4165   8.736   3.878  10.602  0.1668 -0.0032 -0.1992
  261loPI   GL2 4166   8.447   4.031  10.466  0.0298  0.1354  0.1793
  261loPI   C1A 4167   8.919   3.948  10.238 -0.1721  0.1621  0.4199
  261loPI   C2A 4168   9.007   4.016   9.817  0.1220 -0.0115  0.1165
  261loPI   C3A 4169   8.998   4.052   9.376 -0.0000 -0.2629  0.0208
  261loPI   C4A 4170   9.123   3.917   8.889 -0.0793 -0.0898  0.0829
  261loPI   C5A 4171   9.170   3.782   8.508 -0.0881  0.0126  0.0578
  261loPI   C6A 4172   9.188   4.027   8.139 -0.0569 -0.0810  0.1715
  261loPI   C1B 4173   8.464   3.767  10.144 -0.1450  0.0559  0.0756
  261loPI   C2B 4174   8.498   3.876   9.672  0.1012 -0.1393 -0.0870
  261loPI   C3B 4175   8.467   3.829   9.303 -0.1732 -0.0061  0.3381
  261loPI   C4B 4176   8.591   3.789   8.901 -0.0429 -0.0740 -0.4532
  262loPI    C1 4177  13.164  12.750  11.202 -0.1109 -0.1853  0.0446
  262loPI    C2 4178  13.487  12.621  11.401 -0.1443 -0.1532  0.1199
  262loPI    C3 4179  13.121  12.515  11.523 -0.1658 -0.1128  0.0907
  262loPI   PO4 4180  13.247  12.730  10.935 -0.2681 -0.1220 -0.2211
  262loPI   GL1 4181  13.413  12.651  10.657  0.0563 -0.2383 -0.0684
  262loPI   GL2 4182  13.715  12.723  10.563 -0.0805 -0.1278  0.1641
  262loPI   C1A 4183  13.297  12.783  10.251  0.0413 -0.4474 -0.3261
  262loPI   C2A 4184  13.300  12.728   9.854  0.0530 -0.0550  0.0412
  262loPI   C3A 4185  13.280  12.697   9.362  0.1288  0.0463 -0.1375
  262loPI   C4A 4186  13.375  12.690   8.954 -0.0720  0.2004  0.2907
  262loPI   C5A 4187  13.643  12.672   8.583  0.0836  0.2019  0.0107
  262loPI   C6A 4188  13.854  12.575   8.186  0.4229  0.3940 -0.0107
  262loPI   C1B 4189  13.733  12.930  10.123  0.1480 -0.1644  0.1217
  262loPI   C2B 4190  13.813  12.930   9.626  0.2338  0.2065  0.2916
  262loPI   C3B 4191  13.866  12.853   9.140  0.3179 -0.2134  0.1117
  262loPI   C4B 4192  13.659  13.114   8.754 -0.0094  0.0243  0.2395
  263loPI    C1 4193   3.100   8.776  11.159 -0.0172  0.0998 -0.1830
  263loPI    C2 4194   2.945   8.412  11.094  0.1729 -0.0068 -0.0485
  263loPI    C3 4195   3.154   8.484  11.427 -0.1203  0.3115  0.0720
  263loPI   PO4 4196   3.187   8.932  10.909 -0.1082 -0.0070  0.3117
  263loPI   GL1 4197   3.150   9.043  10.467  0.1139 -0.2637  0.0148
  263loPI   GL2 4198   3.350   9.109  10.334  0.1389 -0.0170  0.1783
  263loPI   C1A 4199   3.103   8.753  10.127  0.0503 -0.1017 -0.0670
  263loPI   C2A 4200   3.177   8.776   9.664 -0.0790 -0.2556 -0.0745
  263loPI   C3A 4201   3.310   8.694   9.219 -0.0135 -0.0459  0.1315
  263loPI   C4A 4202   3.322   8.671   8.834 -0.1121 -0.0970  0.4471
  263loPI   C5A 4203   3.374   8.546   8.402 -0.3787 -0.0932 -0.0546
  263loPI   C6A 4204   3.670   8.868   8.130  0.0002 -0.5451  0.1780
  263loPI   C1B 4205   3.360   9.263  10.014  0.0217 -0.0352  0.0079
  263loPI   C2B 4206   3.454   9.231   9.585 -0.2759  0.0898 -0.0560
  263loPI   C3B 4207   3.499   9.193   9.112  0.0875  0.0652 -0.1191
  263loPI   C4B 4208   3.526   9.131   8.753 -0.5193 -0.0624 -0.0058
  264loPI    C1 4209  15.829   2.315  11.685 -0.1278  0.0555  0.1328
  264loPI    C2 4210  15.692   2.126  12.009 -0.5391  0.3005  0.1091
  264loPI    C3 4211  15.897   2.467  12.049 -0.0755  0.0273  0.1350
  264loPI   PO4 4212  15.777   2.066  11.449 -0.1816 -0.0895  0.0481
  264loPI   GL1 4213  15.737   2.091  11.026  0.1220  0.0591  0.0711
  264loPI   GL2 4214  15.637   1.880  10.799  0.1287  0.1459 -0.1839
  264loPI   C1A 4215  15.671   2.206  10.490  0.0018 -0.1593 -0.0690
  264loPI   C2A 4216  15.724   2.427  10.045 -0.1457 -0.0682 -0.1475
  264loPI   C3A 4217  15.798   2.397   9.617  0.0493 -0.0806 -0.0417
  264loPI   C4A 4218  15.885   2.373   9.206  0.0059  0.2044 -0.0180
  264loPI   C5A 4219  15.943   2.265   8.751  0.1625 -0.2199  0.1921
  264loPI   C6A 4220  15.787   1.925   8.448 -0.0109 -0.2927 -0.0683
  264loPI   C1B 4221  15.655   1.745  10.313  0.1617 -0.1171 -0.0949
  264loPI   C2B 4222  15.676   1.897   9.846 -0.3859 -0.2679  0.3967
  264loPI   C3B 4223  15.787   1.808   9.356 -0.0392  0.1933 -0.1428
  264loPI   C4B 4224  15.793   1.874   8.991  0.1008 -0.0205 -0.2381
  265loPI    C1 4225  11.002  10.525  11.056  0.1951 -0.0756 -0.2344
  265loPI    C2 4226  11.211  10.773  11.290 -0.1935 -0.1193  0.1724
  265loPI    C3 4227  11.156  10.393  11.400 -0.0382 -0.2535 -0.1957
  265loPI   PO4 4228  11.113  10.598  10.808 -0.1249  0.0577  0.0570
  265loPI   GL1 4229  11.120  10.700  10.390 -0.4399  0.0641  0.2166
  265loPI   GL2 4230  11.130  10.992  10.221 -0.1383 -0.1898 -0.0201
  265loPI   C1A 4231  11.114  10.451   9.980  0.0985 -0.1200 -0.0093
  265loPI   C2A 4232  11.064  10.530   9.532  0.0347  0.0296  0.2240
  265loPI   C3A 4233  11.046  10.483   9.118 -0.4139 -0.1657  0.1636
  265loPI   C4A 4234  11.103  10.378   8.737 -0.1953  0.3425  0.0813
  265loPI   C5A 4235  11.196  10.573   8.290  0.0822  0.0124  0.1376
  265loPI   C6A 4236  11.411  10.511   7.818 -0.2043 -0.2825 -0.3269
  265loPI   C1B 4237  11.136  10.960   9.764 -0.3809  0.1709 -0.0787
  265loPI   C2B 4238  11.072  11.019   9.365 -0.0792 -0.0239 -0.0580
  265loPI   C3B 4239  11.172  11.029   8.976 -0.3477  0.0065  0.0284
  265loPI   C4B 4240  11.021  10.869   8.631 -0.1194  0.0525 -0.2040
  266loPI    C1 4241   2.985  14.573  11.408  0.1450  0.2987 -0.0521
  266loPI    C2 4242   2.869  14.932  11.539 -0.0989  0.1052  0.2789
  266loPI    C3 4243   3.037  14.673  11.792  0.0070 -0.0432  0.0595
  266loPI   PO4 4244   3.068  14.580  11.082 -0.0445  0.0330 -0.0730
  266loPI   GL1 4245   3.299  14.809  10.686  0.4802  0.0940  0.1551
  266loPI   GL2 4246   3.578  15.003  10.631  0.0713 -0.1296  0.3089
  266loPI   C1A 4247   3.148  14.790  10.295  0.1463  0.0762 -0.2487
  266loPI   C2A 4248   3.140  14.782   9.885  0.1386 -0.0134  0.3395
  266loPI   C3A 4249   3.247  14.704   9.560 -0.0824  0.1337 -0.2082
  266loPI   C4A 4250   3.342  14.766   9.195  0.0978  0.3348 -0.4054
  266loPI   C5A 4251   3.365  14.796   8.783  0.1109 -0.0239 -0.2595
  266loPI   C6A 4252   3.578  14.805   8.448 -0.1853  0.1904  0.0020
  266loPI   C1B 4253   3.644  14.937  10.236  0.1684  0.1603  0.4291
  266loPI   C2B 4254   3.620  14.880   9.816 -0.0630  0.1700  0.3798
  266loPI   C3B 4255   3.693  14.972   9.485 -0.2250  0.4150 -0.1990
  266loPI   C4B 4256   3.804  14.928   9.000 -0.1021  0.3456  0.1573
  267loPI    C1 4257   6.099  15.313  11.342 -0.0332  0.1668 -0.0776
  267loPI    C2 4258   5.948  14.944  11.361  0.1603  0.0926  0.0447
  267loPI    C3 4259   5.976  15.165  11.693 -0.0278  0.2481 -0.0412
  267loPI   PO4 4260   5.971  15.475  11.148 -0.0581  0.1411  0.2954
  267loPI   GL1 4261   5.920  15.495  10.716 -0.0922  0.0939  0.0218
  267loPI   GL2 4262   5.695  15.570  10.695 -0.1004  0.1081  0.0905
  267loPI   C1A 4263   6.054  15.249  10.371 -0.2243 -0.3082  0.2356
  267loPI   C2A 4264   5.960  15.237   9.927 -0.0634  0.0596 -0.1811
  267loPI   C3A 4265   6.082  15.286   9.558  0.3285 -0.0817 -0.0484
  267loPI   C4A 4266   6.210  15.394   9.197  0.3739 -0.2091  0.1037
  267loPI   C5A 4267   6.169  15.464   8.714  0.3734 -0.2625  0.1246
  267loPI   C6A 4268   5.895  15.344   8.430 -0.0778 -0.1262  0.3766
  267loPI   C1B 4269   5.694  15.573  10.203  0.0309 -0.0606  0.4872
  267loPI   C2B 4270   5.622  15.698   9.830  0.0032 -0.0297 -0.0909
  267loPI   C3B 4271   5.720  15.662   9.400 -0.0646  0.1733  0.4912
  267loPI   C4B 4272   5.736  15.735   8.852  0.1263 -0.0720  0.1486
  268loPI    C1 4273   6.075   7.466  10.921  0.0174 -0.1934 -0.1185
  268loPI    C2 4274   6.269   7.716  10.675 -0.1447  0.0784  0.0248
  268loPI    C3 4275   6.435   7.609  11.024 -0.1127  0.0534  0.0021
  268loPI   PO4 4276   5.875   7.444  10.734  0.1888 -0.3139  0.0723
  268loPI   GL1 4277   5.647   7.298  10.351  0.3740  0.1061  0.2114
  268loPI   GL2 4278   5.524   7.483  10.174 -0.2238 -0.0877 -0.0469
  268loPI   C1A 4279   5.967   7.186   9.996  0.2040 -0.0517  0.3064
  268loPI   C2A 4280   5.937   7.205   9.466 -0.2839  0.1331 -0.1273
  268loPI   C3A 4281   5.837   7.094   9.030 -0.0676  0.1962 -0.1357
  268loPI   C4A 4282   5.810   7.040   8.553  0.3536 -0.0633 -0.3032
  268loPI   C5A 4283   5.928   7.478   8.378  0.1691  0.0931  0.0775
  268loPI   C6A 4284   5.599   7.757   8.179 -0.1226  0.2599 -0.1265
  268loPI   C1B 4285   5.583   7.461   9.758  0.1342 -0.2455  0.0124
  268loPI   C2B 4286   5.522   7.453   9.361  0.3441 -0.2067  0.0009
  268loPI   C3B 4287   5.490   7.449   9.003  0.0627 -0.1582 -0.0610
  268loPI   C4B 4288   5.443   7.527   8.643 -0.0205  0.0024  0.0413
  269loPI    C1 4289   0.830   1.614  11.535  0.1242  0.1570  0.0175
  269loPI    C2 4290   0.975   1.314  11.756  0.2792  0.2237  0.0081
  269loPI    C3 4291   0.623   1.479  11.849  0.2852  0.1687  0.1304
  269loPI   PO4 4292   0.878   1.523  11.273 -0.3753  0.0583 -0.2244
  269loPI   GL1 4293   0.583   1.298  10.977 -0.4529  0.2987  0.0065
  269loPI   GL2 4294   0.431   1.073  11.054 -0.0450 -0.2004 -0.0232
  269loPI   C1A 4295   0.691   1.537  10.622  0.1837  0.0338 -0.0375
  269loPI   C2A 4296   0.715   1.418  10.230 -0.0885  0.1333  0.3203
  269loPI   C3A 4297   0.653   1.396   9.773 -0.2088  0.2547  0.1700
  269loPI   C4A 4298   0.713   1.513   9.308  0.0574  0.1493 -0.3770
  269loPI   C5A 4299   1.065   1.580   8.962  0.0931  0.3261 -0.2539
  269loPI   C6A 4300   1.434   1.825   8.940 -0.2288 -0.0338  0.0009
  269loPI   C1B 4301   0.649   0.956  10.607  0.0269  0.1296  0.1553
  269loPI   C2B 4302   0.581   0.935  10.136  0.2318 -0.2107  0.2561
  269loPI   C3B 4303   0.592   0.879   9.742  0.0017 -0.1390  0.1331
  269loPI   C4B 4304   0.708   1.031   9.443 -0.1869 -0.1423 -0.0870
  270loPI    C1 4305  15.551  14.437  11.634  0.1167 -0.3671 -0.1302
  270loPI    C2 4306  15.233  14.240  11.777 -0.0307  0.1091  0.2255
  270loPI    C3 4307  15.593  14.186  11.943  0.0130 -0.1728  0.0450
  270loPI   PO4 4308  15.493  14.362  11.356 -0.0928  0.1598  0.0191
  270loPI   GL1 4309  15.268  14.452  10.987 -0.0690 -0.1071  0.1540
  270loPI   GL2 4310  15.486  14.403  10.800  0.0344 -0.1122  0.1863
  270loPI   C1A 4311  15.022  14.651  10.627 -0.3174 -0.4587 -0.1453
  270loPI   C2A 4312  14.969  14.826  10.252 -0.2819 -0.0235  0.0831
  270loPI   C3A 4313  14.992  14.851   9.799  0.0166  0.0416 -0.1257
  270loPI   C4A 4314  14.938  14.933   9.387 -0.0982 -0.0609  0.0405
  270loPI   C5A 4315  15.054  14.923   9.068  0.0385 -0.2053 -0.2322
  270loPI   C6A 4316  15.110  15.147   8.693 -0.0829 -0.0585  0.0373
  270loPI   C1B 4317  15.474  14.316  10.354  0.1234  0.0781 -0.1359
  270loPI   C2B 4318  15.319  14.475   9.923 -0.0908  0.0053 -0.2297
  270loPI   C3B 4319  15.272  14.595   9.475  0.0549  0.0213 -0.6036
  270loPI   C4B 4320  15.348  14.542   9.090 -0.0396 -0.0750  0.0581
  271loPI    C1 4321   7.694   0.737  11.114 -0.0019 -0.1759  0.0080
  271loPI    C2 4322   7.945   0.697  11.423  0.0563  0.2216  0.0169
  271loPI    C3 4323   7.551   0.663  11.481  0.0640  0.3412  0.1456
  271loPI   PO4 4324   7.821   0.802  10.912 -0.0376  0.0686  0.0987
  271loPI   GL1 4325   7.779   1.012  10.510 -0.1131 -0.0818  0.2509
  271loPI   GL2 4326   8.101   1.147  10.655  0.2948 -0.1439  0.0214
  271loPI   C1A 4327   7.581   1.075  10.096 -0.0049 -0.1014 -0.1438
  271loPI   C2A 4328   7.532   1.101   9.733 -0.1427  0.1980 -0.1845
  271loPI   C3A 4329   7.458   1.025   9.444 -0.0102 -0.2038  0.0486
  271loPI   C4A 4330   7.507   1.137   8.919  0.2725  0.2267 -0.1232
  271loPI   C5A 4331   7.414   1.426   8.485 -0.0747 -0.1916  0.0588
  271loPI   C6A 4332   7.277   1.895   8.468  0.0110  0.0688  0.1671
  271loPI   C1B 4333   8.272   1.124  10.330  0.0756  0.0261 -0.2004
  271loPI   C2B 4334   8.056   1.228   9.932  0.1997 -0.2561 -0.2462
  271loPI   C3B 4335   8.001   1.291   9.475 -0.2234  0.0428 -0.0871
  271loPI   C4B 4336   7.971   1.334   9.050  0.1449  0.0388  0.1572
  272loPI    C1 4337  13.193   6.064  10.882  0.1812 -0.2944  0.3079
  272loPI    C2 4338  12.957   5.910  11.166 -0.0838 -0.1597  0.1645
  272loPI    C3 4339  13.066   6.294  11.182 -0.1558 -0.1339  0.0482
  272loPI   PO4 4340  13.133   6.003  10.688  0.3152  0.1489  0.1130
  272loPI   GL1 4341  13.199   6.049  10.263 -0.2244  0.0799  0.0495
  272loPI   GL2 4342  13.008   5.878  10.230  0.0541  0.0027 -0.1598
  272loPI   C1A 4343  13.219   6.244   9.841  0.4958 -0.1253 -0.3546
  272loPI   C2A 4344  13.285   6.303   9.385  0.0049 -0.2635  0.1482
  272loPI   C3A 4345  13.239   6.336   8.934 -0.1908  0.0296  0.0268
  272loPI   C4A 4346  13.181   6.395   8.460  0.0567 -0.2305  0.1470
  272loPI   C5A 4347  13.470   6.500   8.154  0.1303  0.1993 -0.0437
  272loPI   C6A 4348  13.883   6.519   8.199  0.0355 -0.0176  0.1046
  272loPI   C1B 4349  13.261   5.713   9.885 -0.0656 -0.1907  0.1240
  272loPI   C2B 4350  13.228   5.759   9.491 -0.0140 -0.0291  0.1651
  272loPI   C3B 4351  13.164   5.760   9.136 -0.0494 -0.1471  0.0328
  272loPI   C4B 4352  13.009   5.730   8.719  0.1645  0.1653 -0.1210
  273loPI    C1 4353   0.318   2.346  11.273 -0.1432 -0.0620  0.0136
  273loPI    C2 4354   0.643   2.540  11.402 -0.0356 -0.1692 -0.0940
  273loPI    C3 4355   0.291   2.730  11.384  0.0319 -0.0366 -0.0290
  273loPI   PO4 4356   0.292   2.108  11.251 -0.2796  0.2625  0.0177
  273loPI   GL1 4357   0.394   1.884  10.911 -0.0205 -0.0749  0.2085
  273loPI   GL2 4358   0.577   2.150  10.839  0.2882 -0.2193  0.1102
  273loPI   C1A 4359   0.235   1.865  10.534 -0.1900  0.2479  0.2351
  273loPI   C2A 4360   0.201   1.694  10.142  0.0715  0.3469  0.2090
  273loPI   C3A 4361   0.256   1.713   9.777 -0.0382 -0.3261  0.0630
  273loPI   C4A 4362   0.330   1.871   9.362  0.1061 -0.0190 -0.0334
  273loPI   C5A 4363   0.321   1.604   9.020 -0.0208 -0.0439  0.0087
  273loPI   C6A 4364   0.580   1.394   8.829 -0.1976  0.1673 -0.3118
  273loPI   C1B 4365   0.723   2.019  10.479 -0.2306  0.2515  0.2362
  273loPI   C2B 4366   0.633   1.911  10.079  0.0788  0.0002  0.1254
  273loPI   C3B 4367   0.741   1.912   9.684  0.2101  0.1561 -0.2026
  273loPI   C4B 4368   1.003   1.961   9.307  0.0832  0.0026 -0.0878
  274loPI    C1 4369   0.557   5.079  10.880  0.0339 -0.1824 -0.1084
  274loPI    C2 4370   0.351   4.893  11.168  0.1173 -0.2794 -0.1108
  274loPI    C3 4371   0.518   5.249  11.240  0.1740 -0.3228 -0.0254
  274loPI   PO4 4372   0.466   4.986  10.593 -0.1313  0.0478  0.1171
  274loPI   GL1 4373   0.290   5.216  10.247  0.3826  0.0399 -0.0528
  274loPI   GL2 4374   0.044   4.985  10.282 -0.3150 -0.1520 -0.1302
  274loPI   C1A 4375   0.369   5.174   9.775  0.2426 -0.2583 -0.2732
  274loPI   C2A 4376   0.425   5.169   9.336 -0.2028  0.1524  0.2518
  274loPI   C3A 4377   0.485   5.229   8.915 -0.3371 -0.1925  0.0723
  274loPI   C4A 4378   0.345   5.208   8.457  0.1502 -0.2181 -0.0223
  274loPI   C5A 4379   0.185   4.937   8.248  0.0164 -0.0017  0.1098
  274loPI   C6A 4380  -0.206   4.708   8.178 -0.0616  0.1785 -0.2146
  274loPI   C1B 4381  -0.091   4.936   9.816 -0.0669 -0.4141  0.0656
  274loPI   C2B 4382  -0.039   5.000   9.339 -0.1168 -0.1994 -0.2107
  274loPI   C3B 4383   0.020   5.025   8.890 -0.0362  0.1669 -0.0960
  274loPI   C4B 4384  -0.045   4.768   8.658  0.2463 -0.0401 -0.0404
  275loPI    C1 4385   6.913   5.537  11.357 -0.3042  0.2840 -0.0492
  275loPI    C2 4386   7.071   5.904  11.349  0.0606  0.1336  0.0787
  275loPI    C3 4387   7.172   5.649  11.640 -0.3116 -0.0180  0.0805
  275loPI   PO4 4388   6.936   5.480  11.065  0.0456 -0.1081 -0.1066
  275loPI   GL1 4389   6.761   5.542  10.638 -0.4433  0.0892  0.2543
  275loPI   GL2 4390   6.981   5.548  10.510  0.1998 -0.1185  0.2252
  275loPI   C1A 4391   6.489   5.439  10.291  0.0183 -0.5174 -0.0324
  275loPI   C2A 4392   6.453   5.435   9.803  0.0480  0.0845 -0.3319
  275loPI   C3A 4393   6.570   5.548   9.356 -0.0125  0.0276 -0.0241
  275loPI   C4A 4394   6.691   5.478   8.938  0.1089 -0.0321 -0.0753
  275loPI   C5A 4395   6.457   5.683   8.583  0.1382 -0.0781 -0.1237
  275loPI   C6A 4396   6.131   5.847   8.324  0.1031  0.1291  0.0514
  275loPI   C1B 4397   7.101   5.580  10.097  0.3355  0.1911 -0.0535
  275loPI   C2B 4398   7.119   5.667   9.815 -0.2960 -0.0301  0.1510
  275loPI   C3B 4399   7.080   5.661   9.375 -0.0448 -0.0260  0.2294
  275loPI   C4B 4400   7.144   5.654   8.980 -0.1039  0.2567  0.0560
  276loPI    C1 4401   9.856  12.504  11.429 -0.1764  0.1325  0.0372
  276loPI    C2 4402   9.482  12.364  11.438 -0.1510  0.0720  0.1980
  276loPI    C3 4403   9.790  12.110  11.435 -0.1123  0.1161 -0.2275
  276loPI   PO4 4404   9.839  12.673  11.220 -0.1583 -0.0288 -0.1849
  276loPI   GL1 4405   9.905  12.437  10.761 -0.0683 -0.1388 -0.0627
  276loPI   GL2 4406   9.661  12.295  10.499 -0.1297 -0.0921 -0.4185
  276loPI   C1A 4407  10.101  12.567  10.239  0.2248  0.2790 -0.3752
  276loPI   C2A 4408  10.160  12.567   9.920 -0.1273  0.0421  0.1373
  276loPI   C3A 4409  10.106  12.501   9.468 -0.1053  0.0779 -0.0470
  276loPI   C4A 4410  10.041  12.439   9.039 -0.1563  0.0581 -0.3346
  276loPI   C5A 4411  10.018  12.463   8.531 -0.2913 -0.0802 -0.0455
  276loPI   C6A 4412   9.982  12.910   8.267  0.0812  0.0807  0.0470
  276loPI   C1B 4413   9.637  12.324  10.032  0.0389  0.1186  0.0328
  276loPI   C2B 4414   9.646  12.354   9.622  0.0600 -0.0819  0.0654
  276loPI   C3B 4415   9.585  12.212   9.209 -0.4356 -0.0107  0.0101
  276loPI   C4B 4416   9.492  12.338   8.760  0.1003 -0.4103 -0.0967
  277loPI    C1 4417   4.022  14.071  11.413 -0.0904  0.1068  0.2324
  277loPI    C2 4418   4.279  14.254  11.659  0.0724 -0.1264  0.2402
  277loPI    C3 4419   4.055  13.951  11.794 -0.1495  0.0225  0.2113
  277loPI   PO4 4420   3.859  14.216  11.299  0.0778  0.0904  0.0405
  277loPI   GL1 4421   4.087  14.219  10.879  0.0140  0.0944  0.0416
  277loPI   GL2 4422   4.382  14.351  10.743  0.0806 -0.3702  0.0152
  277loPI   C1A 4423   3.978  14.051  10.415  0.0560 -0.3197  0.0298
  277loPI   C2A 4424   3.977  14.122  10.011  0.0226 -0.0896  0.0423
  277loPI   C3A 4425   4.013  14.079   9.579 -0.2152  0.1034  0.0352
  277loPI   C4A 4426   3.990  14.108   9.101  0.0329 -0.1577  0.0371
  277loPI   C5A 4427   4.123  14.314   8.736 -0.1077 -0.0032 -0.0908
  277loPI   C6A 4428   4.074  14.673   8.570  0.2332  0.0258  0.2749
  277loPI   C1B 4429   4.446  14.284  10.346  0.1139 -0.2938 -0.2052
  277loPI   C2B 4430   4.450  14.301   9.881 -0.2551  0.4316  0.2811
  277loPI   C3B 4431   4.475  14.220   9.417 -0.3032 -0.1769 -0.0432
  277loPI   C4B 4432   4.515  14.352   8.976 -0.3440  0.0939 -0.0606
  278loPI    C1 4433   9.793  17.309  11.201 -0.2791 -0.0971  0.1985
  278loPI    C2 4434   9.865  16.930  11.309 -0.0031 -0.0910  0.0459
  278loPI    C3 4435  10.068  17.229  11.481  0.0759 -0.0441 -0.1267
  278loPI   PO4 4436   9.819  17.316  10.934 -0.0252 -0.2244  0.2625
  278loPI   GL1 4437  10.039  17.239  10.469  0.2583  0.1707 -0.3918
  278loPI   GL2 4438   9.761  17.258  10.453 -0.2496  0.1497 -0.2054
  278loPI   C1A 4439  10.087  17.195   9.954  0.2967  0.2023  0.0544
  278loPI   C2A 4440  10.066  17.246   9.466  0.0429 -0.2169  0.0515
  278loPI   C3A 4441  10.041  17.335   9.031  0.1535  0.1352  0.1808
  278loPI   C4A 4442   9.955  17.416   8.642 -0.0360 -0.1141 -0.0352
  278loPI   C5A 4443   9.894  17.891   8.418  0.1191  0.0604 -0.0050
  278loPI   C6A 4444   9.799  18.237   8.275  0.3717 -0.0346 -0.0437
  278loPI   C1B 4445   9.656  17.431  10.065  0.0704 -0.3485 -0.1274
  278loPI   C2B 4446   9.699  17.607   9.744 -0.1431 -0.1145  0.3632
  278loPI   C3B 4447   9.531  17.679   9.443 -0.0491 -0.0391  0.1153
  278loPI   C4B 4448   9.605  17.647   9.010 -0.0798 -0.0306 -0.3117
  279loPI    C1 4449  13.967  13.245  11.366  0.4170  0.0596 -0.0422
  279loPI    C2 4450  13.767  13.512  11.587  0.0686 -0.1729 -0.0687
  279loPI    C3 4451  14.062  13.298  11.751  0.3944  0.2654 -0.0636
  279loPI   PO4 4452  14.067  13.360  11.159 -0.0347  0.2084  0.0764
  279loPI   GL1 4453  13.987  13.637  10.762 -0.3015  0.0595 -0.1178
  279loPI   GL2 4454  13.868  13.251  10.694 -0.1157  0.1158 -0.1707
  279loPI   C1A 4455  14.009  13.865  10.362  0.1582  0.0237 -0.1086
  279loPI   C2A 4456  14.011  13.852  10.002  0.0824 -0.1571  0.3065
  279loPI   C3A 4457  13.993  13.917   9.547 -0.0956  0.0670 -0.0700
  279loPI   C4A 4458  13.928  13.806   9.155  0.4323 -0.2042 -0.0685
  279loPI   C5A 4459  13.880  13.796   8.660  0.1030  0.1519  0.1208
  279loPI   C6A 4460  13.769  13.995   8.236  0.1200 -0.1315  0.0179
  279loPI   C1B 4461  13.935  13.382  10.299  0.0935 -0.1916 -0.0046
  279loPI   C2B 4462  13.823  13.381   9.899 -0.1361  0.4516 -0.0345
  279loPI   C3B 4463  13.938  13.411   9.494  0.0594  0.1032 -0.0470
  279loPI   C4B 4464  13.880  13.334   9.088  0.2191  0.0422  0.0588
  280loPI    C1 4465  11.638  16.359  11.416 -0.0935  0.0439 -0.0674
  280loPI    C2 4466  11.814  16.060  11.615  0.0722  0.2965  0.1723
  280loPI    C3 4467  11.447  16.179  11.718 -0.2070 -0.1566 -0.2556
  280loPI   PO4 4468  11.694  16.376  11.257 -0.0540  0.0416 -0.4400
  280loPI   GL1 4469  11.617  16.210  10.862  0.0202 -0.3571  0.2447
  280loPI   GL2 4470  11.744  15.809  10.816  0.1415 -0.2287  0.0147
  280loPI   C1A 4471  11.651  16.459  10.534 -0.0600 -0.0125 -0.0622
  280loPI   C2A 4472  11.714  16.361  10.131  0.1179  0.3936 -0.0430
  280loPI   C3A 4473  11.689  16.354   9.640 -0.1160 -0.1407  0.4012
  280loPI   C4A 4474  11.679  16.398   9.270 -0.0123 -0.0984  0.3472
  280loPI   C5A 4475  11.630  16.432   8.874 -0.0148 -0.1630 -0.0437
  280loPI   C6A 4476  11.641  16.593   8.441 -0.0195 -0.0965  0.0004
  280loPI   C1B 4477  11.586  15.885  10.343 -0.1194 -0.1423 -0.1459
  280loPI   C2B 4478  11.569  15.890   9.871 -0.0401 -0.0750  0.1835
  280loPI   C3B 4479  11.603  15.872   9.397  0.0486  0.1301 -0.1010
  280loPI   C4B 4480  11.619  15.972   9.001 -0.3144  0.1642  0.3027
  281loPI    C1 4481  10.975   0.937  10.893 -0.1282  0.0183  0.1595
  281loPI    C2 4482  11.266   1.183  10.771 -0.2068  0.0394  0.0118
  281loPI    C3 4483  11.277   1.026  11.139  0.0665 -0.0750 -0.0429
  281loPI   PO4 4484  10.772   1.006  10.777  0.1899  0.1194  0.0580
  281loPI   GL1 4485  10.747   0.853  10.353 -0.2736 -0.2618 -0.1533
  281loPI   GL2 4486  10.888   0.638  10.467 -0.0452  0.0118  0.1349
  281loPI   C1A 4487  10.659   0.880   9.983 -0.0723  0.0644  0.0699
  281loPI   C2A 4488  10.618   0.802   9.460  0.0650  0.0356  0.0676
  281loPI   C3A 4489  10.719   0.726   9.133 -0.0593  0.0303  0.0924
  281loPI   C4A 4490  10.684   0.815   8.740  0.1339 -0.3699  0.1868
  281loPI   C5A 4491  10.642   0.588   8.378  0.0619  0.0283  0.0433
  281loPI   C6A 4492  11.065   0.489   8.149 -0.1685 -0.1674  0.2203
  281loPI   C1B 4493  11.143   0.504  10.119  0.0234  0.0795 -0.1466
  281loPI   C2B 4494  11.145   0.461   9.633  0.0468 -0.1587 -0.1858
  281loPI   C3B 4495  11.123   0.456   9.149  0.4341  0.0783  0.0807
  281loPI   C4B 4496  11.090   0.497   8.683  0.4022  0.0602  0.0218
  282loPI    C1 4497  15.041  12.742  11.114 -0.0353 -0.1476 -0.0324
  282loPI    C2 4498  14.808  12.617  11.415 -0.0762 -0.0297 -0.0146
  282loPI    C3 4499  15.049  12.359  11.227  0.0272 -0.0823  0.1881
  282loPI   PO4 4500  14.869  12.925  11.020 -0.1686 -0.1175 -0.0174
  282loPI   GL1 4501  14.655  13.049  10.649  0.0012 -0.1767 -0.3570
  282loPI   GL2 4502  14.403  13.302  10.591 -0.0163 -0.1079  0.3346
  282loPI   C1A 4503  14.795  12.858  10.208 -0.2544 -0.0369 -0.2474
  282loPI   C2A 4504  14.700  12.778   9.769  0.1378 -0.0262 -0.1023
  282loPI   C3A 4505  14.712  12.805   9.427 -0.0272 -0.2256  0.1722
  282loPI   C4A 4506  14.711  12.724   9.015 -0.1004 -0.3345 -0.0619
  282loPI   C5A 4507  14.584  12.605   8.635 -0.1366 -0.1490 -0.0926
  282loPI   C6A 4508  14.483  12.198   8.391  0.0829 -0.1186 -0.1974
  282loPI   C1B 4509  14.457  13.531  10.221 -0.2019  0.0553  0.0191
  282loPI   C2B 4510  14.392  13.547   9.775 -0.0268 -0.2113 -0.1907
  282loPI   C3B 4511  14.346  13.567   9.303  0.0646  0.1266  0.0107
  282loPI   C4B 4512  14.370  13.632   8.839 -0.0842  0.1013  0.3014
  283loPI    C1 4513   0.335  16.144  11.644 -0.0288  0.1717  0.0156
  283loPI    C2 4514   0.322  16.044  12.031  0.1254  0.0793 -0.0022
  283loPI    C3 4515   0.539  16.359  11.913  0.0448  0.1328 -0.0087
  283loPI   PO4 4516   0.074  16.124  11.593  0.0844 -0.1842  0.0171
  283loPI   GL1 4517  -0.110  16.021  11.256 -0.0920  0.0341 -0.0232
  283loPI   GL2 4518  -0.353  15.976  11.016  0.1820  0.0691  0.0090
  283loPI   C1A 4519   0.092  16.070  10.853  0.0638  0.2749 -0.2764
  283loPI   C2A 4520   0.250  16.129  10.511  0.0236  0.0199  0.1355
  283loPI   C3A 4521   0.243  16.080  10.134  0.2623  0.1238  0.2353
  283loPI   C4A 4522   0.258  16.001   9.685  0.0535 -0.4444  0.1198
  283loPI   C5A 4523   0.286  16.004   9.343  0.2372 -0.0026  0.1188
  283loPI   C6A 4524   0.301  16.211   9.007 -0.2066 -0.1370  0.0108
  283loPI   C1B 4525  -0.670  15.745  10.685 -0.3558 -0.0713 -0.1229
  283loPI   C2B 4526  -0.666  15.591  10.296 -0.3782 -0.0832 -0.2120
  283loPI   C3B 4527  -0.763  15.659   9.824 -0.0155  0.2264 -0.0747
  283loPI   C4B 4528  -0.649  15.708   9.381  0.2208 -0.1761 -0.0929
  284loPI    C1 4529  10.946  12.959  11.238  0.0462 -0.2600  0.0298
  284loPI    C2 4530  11.263  13.174  11.122 -0.0456 -0.0929  0.0857
  284loPI    C3 4531  11.283  12.951  11.453 -0.0095 -0.0252  0.1295
  284loPI   PO4 4532  10.812  12.866  11.051  0.3357  0.1082 -0.2758
  284loPI   GL1 4533  10.893  12.632  10.616  0.4650 -0.4533 -0.0540
  284loPI   GL2 4534  10.536  12.625  10.502 -0.0533 -0.0018 -0.0635
  284loPI   C1A 4535  11.117  12.789  10.257 -0.0221 -0.1831  0.1729
  284loPI   C2A 4536  11.089  12.843   9.858 -0.2791  0.1494  0.4017
  284loPI   C3A 4537  11.020  12.839   9.340  0.1087  0.0529  0.1743
  284loPI   C4A 4538  10.943  12.919   8.937 -0.1844 -0.0708 -0.0937
  284loPI   C5A 4539  10.722  13.145   8.608  0.1490  0.0354 -0.1364
  284loPI   C6A 4540  10.719  13.533   8.524 -0.0571  0.2357  0.2211
  284loPI   C1B 4541  10.650  12.738  10.108  0.1626  0.0506 -0.0654
  284loPI   C2B 4542  10.633  12.586   9.665  0.2125  0.0299  0.3400
  284loPI   C3B 4543  10.489  12.733   9.260 -0.1191 -0.1522 -0.2704
  284loPI   C4B 4544  10.479  12.642   8.885 -0.0528 -0.1369  0.0964
  285loPI    C1 4545   5.415   2.060  11.587 -0.0005 -0.1818 -0.1764
  285loPI    C2 4546   5.185   2.159  11.898 -0.3241 -0.0639 -0.4469
  285loPI    C3 4547   5.394   1.818  11.905  0.1031  0.1920  0.1214
  285loPI   PO4 4548   5.274   2.037  11.276  0.4667  0.2365  0.3971
  285loPI   GL1 4549   5.133   2.184  10.846 -0.0894  0.0411 -0.0260
  285loPI   GL2 4550   5.423   1.925  10.795  0.0618  0.0033 -0.0652
  285loPI   C1A 4551   5.013   1.956  10.563  0.1084  0.0199 -0.1938
  285loPI   C2A 4552   4.933   1.922  10.114  0.1013  0.5006 -0.4953
  285loPI   C3A 4553   4.990   2.003   9.731 -0.2260 -0.1323 -0.1211
  285loPI   C4A 4554   5.052   1.995   9.307 -0.1104 -0.0120  0.1533
  285loPI   C5A 4555   5.137   1.902   8.799 -0.1222  0.2371  0.0887
  285loPI   C6A 4556   5.128   1.682   8.356 -0.0278  0.0026  0.1581
  285loPI   C1B 4557   5.486   1.751  10.406 -0.1226  0.2292  0.0354
  285loPI   C2B 4558   5.336   1.644  10.101  0.0322  0.0980  0.0523
  285loPI   C3B 4559   5.393   1.670   9.662 -0.0065 -0.3783  0.2260
  285loPI   C4B 4560   5.439   1.711   9.178 -0.1009  0.3442  0.5987
  286loPI    C1 4561  16.213   3.424  11.179 -0.1593 -0.0640  0.0634
  286loPI    C2 4562  16.164   3.821  11.182 -0.0838 -0.0542  0.0363
  286loPI    C3 4563  16.223   3.624  11.525 -0.1782 -0.0495  0.0557
  286loPI   PO4 4564  16.367   3.419  10.988  0.0616  0.1680  0.0975
  286loPI   GL1 4565  16.202   3.302  10.678  0.0599  0.1029  0.1606
  286loPI   GL2 4566  16.266   2.956  10.599 -0.0920 -0.2075  0.0442
  286loPI   C1A 4567  15.999   3.431  10.348 -0.1561  0.0436 -0.1409
  286loPI   C2A 4568  15.878   3.426   9.839  0.2196  0.0514 -0.0882
  286loPI   C3A 4569  15.968   3.337   9.420 -0.0878 -0.0417 -0.2752
  286loPI   C4A 4570  15.973   3.460   9.032 -0.3915  0.0860  0.2019
  286loPI   C5A 4571  16.050   3.342   8.649  0.1729  0.1863 -0.1023
  286loPI   C6A 4572  16.234   3.276   8.328  0.1696  0.1436  0.3768
  286loPI   C1B 4573  16.369   3.097  10.232 -0.1260  0.0934  0.3131
  286loPI   C2B 4574  16.249   3.049   9.768 -0.0331 -0.1261 -0.0274
  286loPI   C3B 4575  16.412   3.003   9.354 -0.3595 -0.2551  0.3618
  286loPI   C4B 4576  16.382   3.087   8.951 -0.2004  0.3065 -0.1317
  287loPI    C1 4577   0.908  17.604  11.614  0.0643  0.1251 -0.1033
  287loPI    C2 4578   1.071  17.791  11.927  0.0110  0.1328 -0.0800
  287loPI    C3 4579   0.690  17.671  11.942  0.0885 -0.1126 -0.0370
  287loPI   PO4 4580   1.087  17.669  11.376 -0.0783 -0.1562  0.0959
  287loPI   GL1 4581   1.503  17.730  11.159  0.1304  0.1699  0.1273
  287loPI   GL2 4582   1.486  17.509  10.916 -0.0850 -0.0653  0.0493
  287loPI   C1A 4583   1.453  18.031  10.770 -0.0692  0.0818 -0.1273
  287loPI   C2A 4584   1.391  18.014  10.307  0.0506 -0.0770  0.1844
  287loPI   C3A 4585   1.399  17.937   9.832 -0.0810  0.2345 -0.2507
  287loPI   C4A 4586   1.531  17.901   9.478 -0.0001  0.1915 -0.0832
  287loPI   C5A 4587   1.418  18.021   9.059  0.2881 -0.0624  0.0946
  287loPI   C6A 4588   1.188  18.227   8.788 -0.1900  0.1653 -0.2278
  287loPI   C1B 4589   1.361  17.494  10.561  0.0113 -0.0787  0.0776
  287loPI   C2B 4590   1.301  17.519  10.141 -0.0886 -0.0862 -0.0999
  287loPI   C3B 4591   1.414  17.375   9.752  0.0934 -0.0256  0.0511
  287loPI   C4B 4592   1.370  17.453   9.254 -0.0573 -0.0346 -0.2526
  288loPI    C1 4593   4.998   1.220  11.660  0.0126 -0.1073 -0.0789
  288loPI    C2 4594   5.166   1.566  11.551  0.0298 -0.0516  0.1213
  288loPI    C3 4595   4.957   1.543  11.892 -0.1777 -0.1781 -0.0119
  288loPI   PO4 4596   4.960   1.148  11.432 -0.0546 -0.2311 -0.0388
  288loPI   GL1 4597   5.152   1.309  11.122 -0.5079 -0.0108 -0.1984
  288loPI   GL2 4598   4.971   1.700  11.109 -0.1745  0.4577  0.0930
  288loPI   C1A 4599   5.431   1.403  10.811  0.0252 -0.0952 -0.1977
  288loPI   C2A 4600   5.281   1.213  10.410  0.0383 -0.2404 -0.0076
  288loPI   C3A 4601   5.289   1.191   9.895  0.2627 -0.1083  0.2632
  288loPI   C4A 4602   5.264   1.125   9.436 -0.3556 -0.1245 -0.0189
  288loPI   C5A 4603   5.370   1.208   9.058 -0.2126 -0.0953  0.1449
  288loPI   C6A 4604   5.385   1.436   8.690 -0.3208 -0.1044 -0.1791
  288loPI   C1B 4605   4.874   1.508  10.674  0.2443 -0.0046  0.1677
  288loPI   C2B 4606   4.853   1.456  10.235  0.0356  0.2252  0.0283
  288loPI   C3B 4607   4.890   1.454   9.766 -0.0411 -0.0104  0.0287
  288loPI   C4B 4608   4.937   1.489   9.266 -0.1783 -0.0348 -0.2455
  289loPI    C1 4609  14.840  11.771  11.085  0.2129  0.3264 -0.0976
  289loPI    C2 4610  14.797  11.928  11.450  0.0883  0.2573 -0.0819
  289loPI    C3 4611  14.867  11.536  11.408  0.1118  0.2669 -0.1319
  289loPI   PO4 4612  14.914  11.977  10.914 -0.1389 -0.2359 -0.2764
  289loPI   GL1 4613  15.020  12.336  10.702  0.1452 -0.0219 -0.0448
  289loPI   GL2 4614  14.940  12.618  10.606  0.2461  0.2513 -0.0475
  289loPI   C1A 4615  15.167  12.417  10.252  0.1020  0.0963  0.1985
  289loPI   C2A 4616  15.009  12.405   9.928  0.0732  0.0712 -0.3015
  289loPI   C3A 4617  15.084  12.426   9.599  0.2419 -0.3124 -0.1498
  289loPI   C4A 4618  15.088  12.386   9.150 -0.2411 -0.1018  0.1595
  289loPI   C5A 4619  15.109  12.372   8.637 -0.1581 -0.2404 -0.0981
  289loPI   C6A 4620  15.515  12.347   8.332  0.2541  0.1973 -0.0506
  289loPI   C1B 4621  14.685  12.308  10.297  0.2448  0.0863 -0.1123
  289loPI   C2B 4622  14.577  12.260   9.841 -0.1998 -0.2613  0.1178
  289loPI   C3B 4623  14.619  12.230   9.389 -0.1985  0.1032  0.3502
  289loPI   C4B 4624  14.734  12.206   8.935 -0.1498 -0.0219  0.1077
  290loPI    C1 4625  16.328  14.600  11.181 -0.0641 -0.0205  0.0034
  290loPI    C2 4626  16.710  14.703  11.243 -0.0170 -0.1379 -0.0874
  290loPI    C3 4627  16.547  14.403  11.452 -0.0766 -0.0524 -0.0097
  290loPI   PO4 4628  16.346  14.605  10.932 -0.0247  0.0982 -0.0594
  290loPI   GL1 4629  16.526  14.424  10.543  0.2295 -0.3655  0.2317
  290loPI   GL2 4630  16.360  14.425  10.139  0.1027 -0.1056 -0.1181
  290loPI   C1A 4631  16.768  14.611  10.287 -0.0622  0.4505 -0.0995
  290loPI   C2A 4632  16.771  14.628   9.840 -0.1877 -0.2240  0.1195
  290loPI   C3A 4633  16.806  14.543   9.478  0.1416 -0.0844  0.1767
  290loPI   C4A 4634  16.802  14.470   9.011 -0.3404 -0.0597  0.0001
  290loPI   C5A 4635  16.594  14.318   8.604  0.0208  0.3648 -0.3639
  290loPI   C6A 4636  16.478  13.940   8.599  0.2340 -0.0456  0.2768
  290loPI   C1B 4637  16.299  14.336   9.670 -0.1532  0.2262  0.0078
  290loPI   C2B 4638  16.324  14.363   9.264 -0.2798  0.0330 -0.0154
  290loPI   C3B 4639  16.301  14.588   8.900 -0.0934  0.1036  0.2585
  290loPI   C4B 4640  16.045  14.903   8.700  0.0881 -0.2751 -0.1349
  291loPI    C1 4641   5.324   8.278  10.772  0.2007 -0.0287 -0.1660
  291loPI    C2 4642   5.468   8.462  11.097  0.1866 -0.2829 -0.0132
  291loPI    C3 4643   5.077   8.380  11.071  0.1224  0.0807 -0.2669
  291loPI   PO4 4644   5.462   8.382  10.584  0.0500 -0.0065  0.1572
  291loPI   GL1 4645   5.666   8.549  10.294  0.1330 -0.1487 -0.0359
  291loPI   GL2 4646   6.035   8.611  10.279 -0.1890 -0.1088 -0.1196
  291loPI   C1A 4647   5.710   8.487   9.838  0.1489  0.1402  0.1147
  291loPI   C2A 4648   5.766   8.548   9.418 -0.4507  0.0288  0.1986
  291loPI   C3A 4649   5.715   8.535   8.956  0.0016 -0.2131 -0.0857
  291loPI   C4A 4650   5.696   8.680   8.611 -0.2921 -0.0114  0.1374
  291loPI   C5A 4651   5.576   8.598   8.300  0.0364 -0.1331  0.3334
  291loPI   C6A 4652   5.584   8.267   8.049  0.1683 -0.1157 -0.0346
  291loPI   C1B 4653   6.199   8.662  10.000 -0.1663 -0.0199  0.2193
  291loPI   C2B 4654   6.357   8.770   9.687 -0.0297  0.2803 -0.0771
  291loPI   C3B 4655   6.204   8.751   9.299  0.4219  0.0010 -0.0739
  291loPI   C4B 4656   6.134   8.738   8.880 -0.2280 -0.0928 -0.0665
  292loPI    C1 4657  10.117   0.767  11.249  0.0487 -0.0753  0.0595
  292loPI    C2 4658   9.900   0.684  10.923 -0.0615 -0.0555  0.1273
  292loPI    C3 4659   9.796   0.531  11.278  0.1452 -0.1990  0.1278
  292loPI   PO4 4660  10.315   0.911  11.117  0.4141 -0.0985  0.2625
  292loPI   GL1 4661  10.303   0.840  10.693  0.0305 -0.0607  0.0553
  292loPI   GL2 4662  10.428   0.492  10.535 -0.1382 -0.3126  0.1508
  292loPI   C1A 4663  10.069   0.915  10.324  0.2348  0.0012  0.1754
  292loPI   C2A 4664  10.168   0.713   9.944  0.3219  0.1800 -0.0297
  292loPI   C3A 4665  10.227   0.545   9.468  0.1244 -0.1676 -0.1542
  292loPI   C4A 4666  10.179   0.584   8.992  0.1623 -0.1611  0.0619
  292loPI   C5A 4667  10.190   0.612   8.560 -0.2668 -0.1095  0.2772
  292loPI   C6A 4668  10.166   0.868   8.223 -0.0863 -0.2075 -0.1898
  292loPI   C1B 4669  10.451   0.394  10.160 -0.0896 -0.0587  0.0714
  292loPI   C2B 4670  10.623   0.399   9.776  0.2591 -0.2302 -0.0440
  292loPI   C3B 4671  10.628   0.247   9.305  0.2117 -0.0070  0.0620
  292loPI   C4B 4672  10.649   0.279   8.865  0.2585 -0.2860 -0.2924
  293loPI    C1 4673   5.239  10.248  11.194  0.1647 -0.0176 -0.0839
  293loPI    C2 4674   5.237  10.452  11.538 -0.1508  0.0919 -0.1471
  293loPI    C3 4675   4.896  10.300  11.394  0.0310 -0.2231 -0.2550
  293loPI   PO4 4676   5.328  10.386  11.002  0.2270  0.1688 -0.2411
  293loPI   GL1 4677   5.266  10.572  10.636  0.1365  0.0140  0.2800
  293loPI   GL2 4678   5.034  10.701  10.694 -0.0799 -0.0911  0.0170
  293loPI   C1A 4679   5.323  10.646  10.218 -0.1003  0.1412  0.1243
  293loPI   C2A 4680   5.302  10.717   9.891  0.0758 -0.0966 -0.1417
  293loPI   C3A 4681   5.206  10.672   9.441 -0.0206 -0.1582  0.0109
  293loPI   C4A 4682   5.223  10.627   9.006  0.0989 -0.0886  0.0776
  293loPI   C5A 4683   5.028  10.461   8.653 -0.0989  0.1219 -0.2293
  293loPI   C6A 4684   4.955  10.157   8.347 -0.3758 -0.0764 -0.1043
  293loPI   C1B 4685   4.785  10.571  10.354 -0.1213  0.2006 -0.0041
  293loPI   C2B 4686   4.669  10.485  10.007 -0.0049 -0.1257 -0.1593
  293loPI   C3B 4687   4.651  10.494   9.561  0.1362 -0.1776 -0.0777
  293loPI   C4B 4688   4.683  10.549   9.054  0.1090  0.2048  0.2526
  294loPI    C1 4689  15.712   1.287  11.691 -0.0179  0.0954 -0.0722
  294loPI    C2 4690  16.049   1.423  11.860 -0.0980  0.0797  0.1025
  294loPI    C3 4691  15.761   1.679  11.754  0.0911  0.1237 -0.3241
  294loPI   PO4 4692  15.884   1.037  11.493 -0.1695 -0.0599 -0.0721
  294loPI   GL1 4693  15.924   1.108  11.054 -0.1021 -0.2479  0.0843
  294loPI   GL2 4694  16.234   1.164  10.887  0.2771  0.0386  0.1394
  294loPI   C1A 4695  15.852   1.018  10.630 -0.0329 -0.1962 -0.0213
  294loPI   C2A 4696  16.029   0.940  10.290 -0.1557 -0.0245 -0.0486
  294loPI   C3A 4697  16.014   1.009   9.836  0.1620 -0.0783 -0.0771
  294loPI   C4A 4698  16.091   0.986   9.398  0.0583 -0.0863 -0.3175
  294loPI   C5A 4699  16.054   1.045   8.946  0.4422 -0.0607 -0.1125
  294loPI   C6A 4700  15.874   1.056   8.514 -0.0706  0.1033  0.2293
  294loPI   C1B 4701  16.374   1.187  10.561 -0.1557 -0.2908  0.1215
  294loPI   C2B 4702  16.428   1.216  10.042 -0.0874 -0.1577 -0.0607
  294loPI   C3B 4703  16.493   1.173   9.628 -0.2314  0.0192  0.1960
  294loPI   C4B 4704  16.536   1.166   9.141 -0.1521 -0.0641  0.1254
  295loPI    C1 4705   8.189  14.382  10.999 -0.1122  0.0599 -0.0998
  295loPI    C2 4706   8.177  14.059  11.235  0.3473  0.1874  0.1101
  295loPI    C3 4707   8.052  14.413  11.374  0.1593  0.1683 -0.0068
  295loPI   PO4 4708   8.131  14.325  10.784 -0.1612  0.0952 -0.2027
  295loPI   GL1 4709   8.163  14.292  10.332  0.0187 -0.0390  0.3643
  295loPI   GL2 4710   8.316  14.669  10.469 -0.1557 -0.1918  0.3122
  295loPI   C1A 4711   8.102  14.154   9.851 -0.2170 -0.3980 -0.1998
  295loPI   C2A 4712   8.038  14.140   9.479 -0.1183 -0.1033  0.1068
  295loPI   C3A 4713   8.175  14.229   9.098 -0.4609 -0.3458  0.0103
  295loPI   C4A 4714   8.111  14.272   8.699  0.0168  0.0672 -0.0608
  295loPI   C5A 4715   7.930  14.536   8.339  0.0772 -0.0604  0.0608
  295loPI   C6A 4716   7.811  14.965   8.437 -0.0290 -0.0561  0.0268
  295loPI   C1B 4717   8.205  14.624  10.019 -0.2398  0.0175 -0.1813
  295loPI   C2B 4718   8.194  14.595   9.620 -0.1517 -0.1029  0.0055
  295loPI   C3B 4719   8.221  14.732   9.166 -0.1396 -0.0584 -0.1514
  295loPI   C4B 4720   8.216  14.768   8.740  0.1225 -0.5302  0.1960
  296loPI    C1 4721  13.461  16.221  11.594  0.0476 -0.0692 -0.2893
  296loPI    C2 4722  13.171  15.958  11.676  0.0703 -0.1003 -0.3091
  296loPI    C3 4723  13.537  15.906  11.829 -0.0764  0.2415  0.1831
  296loPI   PO4 4724  13.385  16.276  11.348 -0.0641  0.1214  0.1197
  296loPI   GL1 4725  13.534  16.033  11.020  0.3211 -0.3209  0.1509
  296loPI   GL2 4726  13.715  15.688  10.897 -0.5057 -0.0033  0.1440
  296loPI   C1A 4727  13.414  16.047  10.620  0.1611  0.0739  0.3236
  296loPI   C2A 4728  13.491  16.050  10.212  0.0100  0.1534 -0.1670
  296loPI   C3A 4729  13.424  16.090   9.764 -0.2056 -0.2022  0.1191
  296loPI   C4A 4730  13.314  16.037   9.320 -0.0180  0.1930 -0.2546
  296loPI   C5A 4731  13.392  16.174   8.978 -0.1387 -0.1686 -0.0046
  296loPI   C6A 4732  13.118  16.283   8.579 -0.1411 -0.3006 -0.0121
  296loPI   C1B 4733  13.787  15.723  10.434  0.2904  0.0586 -0.2660
  296loPI   C2B 4734  13.788  15.727   9.968  0.3080  0.1819 -0.0669
  296loPI   C3B 4735  13.852  15.794   9.565  0.1024  0.3425 -0.1075
  296loPI   C4B 4736  13.754  15.881   9.152  0.0921  0.3308  0.2213
  297loPI    C1 4737   4.465  12.058  11.046  0.1045  0.1182  0.0618
  297loPI    C2 4738   4.677  11.816  11.283  0.2322  0.1103 -0.0592
  297loPI    C3 4739   4.324  11.957  11.406  0.0406 -0.3322 -0.0838
  297loPI   PO4 4740   4.440  11.981  10.811  0.0832  0.0020 -0.0744
  297loPI   GL1 4741   4.712  11.885  10.474 -0.0509 -0.1153 -0.0629
  297loPI   GL2 4742   4.993  11.881  10.337 -0.0673 -0.0286  0.0653
  297loPI   C1A 4743   4.477  11.855  10.080 -0.2164  0.2177  0.0825
  297loPI   C2A 4744   4.467  11.923   9.625 -0.2575  0.0158 -0.3902
  297loPI   C3A 4745   4.625  11.806   9.191  0.2144  0.0699  0.0136
  297loPI   C4A 4746   4.619  11.819   8.733 -0.1017  0.1489 -0.1677
  297loPI   C5A 4747   4.663  11.977   8.230  0.1051  0.0793 -0.1433
  297loPI   C6A 4748   4.725  11.720   7.918  0.2144  0.1153  0.0130
  297loPI   C1B 4749   4.952  12.066   9.935  0.0268  0.0424 -0.0932
  297loPI   C2B 4750   4.972  12.045   9.486 -0.0926  0.4847  0.0984
  297loPI   C3B 4751   5.097  12.040   9.017 -0.2852  0.0831  0.0501
  297loPI   C4B 4752   5.140  12.019   8.596  0.2527  0.1078  0.3102
  298loPI    C1 4753   4.735   8.743  11.072  0.3717  0.1701 -0.1921
  298loPI    C2 4754   4.492   9.051  10.994 -0.1448 -0.2411 -0.2615
  298loPI    C3 4755   4.675   9.025  11.349 -0.0302  0.1813 -0.2849
  298loPI   PO4 4756   4.964   8.798  10.775  0.2873  0.1187 -0.0152
  298loPI   GL1 4757   5.144   8.664  10.365  0.0343 -0.0565 -0.0323
  298loPI   GL2 4758   5.106   9.054  10.350  0.0780 -0.1274  0.1024
  298loPI   C1A 4759   5.351   8.811  10.009 -0.2629 -0.1853  0.0275
  298loPI   C2A 4760   5.337   8.799   9.629  0.1118  0.2011  0.1887
  298loPI   C3A 4761   5.322   8.822   9.241  0.3297  0.2558  0.2237
  298loPI   C4A 4762   5.199   8.873   8.824 -0.2489 -0.1023 -0.1810
  298loPI   C5A 4763   5.230   8.985   8.377  0.0269 -0.0017 -0.0761
  298loPI   C6A 4764   4.941   9.299   8.163 -0.2152 -0.0424 -0.1008
  298loPI   C1B 4765   4.961   9.166   9.998  0.0551  0.0120 -0.0555
  298loPI   C2B 4766   5.011   9.196   9.558 -0.1893 -0.2946  0.0879
  298loPI   C3B 4767   4.901   9.189   9.135  0.1043  0.1771  0.1964
  298loPI   C4B 4768   4.833   9.151   8.694  0.0851 -0.2575  0.0890
  299loPI    C1 4769   8.737  16.603  10.831 -0.0717  0.1023  0.1388
  299loPI    C2 4770   9.120  16.515  10.757 -0.0649  0.0580  0.2249
  299loPI    C3 4771   9.010  16.637  11.121 -0.1851 -0.2387  0.2911
  299loPI   PO4 4772   8.567  16.441  10.738  0.3000 -0.1401 -0.0765
  299loPI   GL1 4773   8.389  16.147  10.498 -0.3816 -0.0147  0.0722
  299loPI   GL2 4774   8.069  16.351  10.483 -0.0590  0.0688  0.4659
  299loPI   C1A 4775   8.442  16.126  10.050  0.3424 -0.0462  0.2075
  299loPI   C2A 4776   8.453  16.261   9.609 -0.3843  0.1790  0.0067
  299loPI   C3A 4777   8.560  16.193   9.142 -0.0244  0.2659  0.1496
  299loPI   C4A 4778   8.432  16.412   8.658 -0.0006 -0.2633 -0.0969
  299loPI   C5A 4779   8.010  16.335   8.468 -0.0551  0.1318  0.0826
  299loPI   C6A 4780   7.581  15.974   8.523 -0.1200 -0.1085  0.0635
  299loPI   C1B 4781   8.080  16.467  10.044 -0.3067  0.0196  0.3475
  299loPI   C2B 4782   8.042  16.624   9.660  0.1293 -0.0064  0.1586
  299loPI   C3B 4783   8.099  16.629   9.291  0.3503 -0.0627 -0.0475
  299loPI   C4B 4784   8.031  16.649   8.878  0.1629 -0.1257  0.2372
  300loPI    C1 4785  11.061   2.552  10.894  0.0546  0.2211 -0.2209
  300loPI    C2 4786  11.161   2.276  10.622 -0.1123  0.0714 -0.1330
  300loPI    C3 4787  11.211   2.200  11.012  0.0549  0.2557 -0.1167
  300loPI   PO4 4788  10.781   2.586  10.788  0.1139 -0.1779 -0.0785
  300loPI   GL1 4789  10.739   2.898  10.535 -0.0333  0.1416 -0.2030
  300loPI   GL2 4790  10.638   3.167  10.306  0.1968  0.0084 -0.1829
  300loPI   C1A 4791  10.565   2.690  10.160  0.3149 -0.0554  0.1911
  300loPI   C2A 4792  10.564   2.609   9.762 -0.1215  0.1318  0.1324
  300loPI   C3A 4793  10.651   2.575   9.320  0.2737 -0.1831  0.1442
  300loPI   C4A 4794  10.636   2.621   8.926 -0.0678 -0.1812  0.0312
  300loPI   C5A 4795  10.576   2.644   8.459 -0.2116  0.2540  0.0596
  300loPI   C6A 4796  10.374   2.856   8.078  0.2497  0.0973 -0.1198
  300loPI   C1B 4797  10.583   3.436   9.852 -0.3526  0.0454  0.1584
  300loPI   C2B 4798  10.587   3.490   9.402 -0.0200 -0.0466  0.4871
  300loPI   C3B 4799  10.817   3.607   9.046  0.0311  0.0586  0.0556
  300loPI   C4B 4800  10.792   3.601   8.540  0.1481 -0.0410  0.1398
  301loPI    C1 4801   8.789   6.846  10.983  0.1047 -0.0450 -0.2115
  301loPI    C2 4802   9.052   6.812  11.282  0.0088  0.0919 -0.1106
  301loPI    C3 4803   8.660   6.827  11.361 -0.0154  0.1568 -0.2411
  301loPI   PO4 4804   8.820   6.706  10.872 -0.1090 -0.0873 -0.1487
  301loPI   GL1 4805   8.654   6.571  10.495  0.0067  0.0745  0.0294
  301loPI   GL2 4806   8.512   6.366  10.400  0.1682  0.0482  0.1109
  301loPI   C1A 4807   8.667   6.846  10.081 -0.1592  0.0704  0.0010
  301loPI   C2A 4808   8.640   6.728   9.675  0.0648  0.2053 -0.2622
  301loPI   C3A 4809   8.580   6.648   9.286  0.0558  0.2889 -0.1483
  301loPI   C4A 4810   8.549   6.756   8.877  0.1634 -0.0891 -0.1019
  301loPI   C5A 4811   8.553   6.748   8.388 -0.0544 -0.2177  0.1969
  301loPI   C6A 4812   8.629   6.628   7.952  0.0402  0.3922  0.3516
  301loPI   C1B 4813   8.339   6.467   9.954  0.0603  0.0634  0.1185
  301loPI   C2B 4814   8.220   6.384   9.573  0.0839  0.1299  0.1742
  301loPI   C3B 4815   8.121   6.536   9.091 -0.1522  0.2342 -0.2327
  301loPI   C4B 4816   8.129   6.609   8.652  0.0771 -0.1023  0.0226
  302loPI    C1 4817   2.360   7.242  10.626  0.0340 -0.3395 -0.0782
  302loPI    C2 4818   2.642   7.524  10.658 -0.3410  0.0008  0.3672
  302loPI    C3 4819   2.699   7.164  10.823  0.1670 -0.2247 -0.2584
  302loPI   PO4 4820   2.301   7.317  10.337 -0.0632 -0.5066  0.2436
  302loPI   GL1 4821   1.958   7.194  10.024 -0.1435 -0.0308 -0.3900
  302loPI   GL2 4822   1.743   7.162   9.944  0.0787  0.2118 -0.0707
  302loPI   C1A 4823   2.143   7.325   9.670  0.0805 -0.0271  0.1842
  302loPI   C2A 4824   2.160   7.308   9.160 -0.1408 -0.0096 -0.4058
  302loPI   C3A 4825   2.157   7.316   8.663  0.0352 -0.2012 -0.0289
  302loPI   C4A 4826   2.222   7.121   8.242 -0.0871  0.2116 -0.0531
  302loPI   C5A 4827   2.435   7.145   7.946 -0.3012  0.0653  0.0444
  302loPI   C6A 4828   2.708   6.917   7.709 -0.1869  0.2270 -0.0182
  302loPI   C1B 4829   1.654   7.099   9.567  0.0809 -0.0419  0.0440
  302loPI   C2B 4830   1.757   7.104   9.191 -0.0883 -0.0827  0.1069
  302loPI   C3B 4831   1.701   7.169   8.735 -0.3318 -0.2461 -0.2633
  302loPI   C4B 4832   1.698   7.266   8.311 -0.1233  0.2697  0.1162
  303loPI    C1 4833   2.864  12.685  11.539 -0.1964  0.0985  0.1382
  303loPI    C2 4834   3.068  12.342  11.542 -0.0286  0.1932 -0.1214
  303loPI    C3 4835   2.834  12.438  11.852 -0.0664 -0.1472 -0.0405
  303loPI   PO4 4836   2.988  12.825  11.189 -0.2241  0.1256  0.3394
  303loPI   GL1 4837   3.110  12.907  10.778 -0.1594  0.2099 -0.0608
  303loPI   GL2 4838   2.870  13.086  10.594 -0.4742 -0.3792 -0.0587
  303loPI   C1A 4839   3.211  12.889  10.380  0.0381 -0.0849  0.0306
  303loPI   C2A 4840   3.430  12.830  10.119  0.1416 -0.0068  0.0633
  303loPI   C3A 4841   3.342  12.858   9.732 -0.2880  0.0709  0.2112
  303loPI   C4A 4842   3.308  12.956   9.359  0.2624 -0.0196  0.2194
  303loPI   C5A 4843   3.309  12.962   8.895  0.1635  0.1872 -0.2218
  303loPI   C6A 4844   3.345  13.019   8.443 -0.0000 -0.0489  0.1042
  303loPI   C1B 4845   2.931  13.284  10.193  0.1349  0.0054  0.1089
  303loPI   C2B 4846   2.920  13.159   9.748 -0.0670 -0.3015  0.0624
  303loPI   C3B 4847   2.888  13.264   9.300  0.1045  0.1023 -0.2288
  303loPI   C4B 4848   2.929  13.254   8.863  0.1807 -0.2283 -0.1226
  304loPI    C1 4849  15.925  10.421  10.498  0.1485  0.0378 -0.0800
  304loPI    C2 4850  16.019  10.642  10.818  0.1892  0.0676 -0.1124
  304loPI    C3 4851  16.028  10.242  10.841 -0.2123  0.0629  0.0464
  304loPI   PO4 4852  15.700  10.551  10.389  0.2401 -0.0039  0.1254
  304loPI   GL1 4853  15.527  10.892  10.124  0.1884  0.2510 -0.2186
  304loPI   GL2 4854  15.708  11.096  10.221 -0.4840  0.0358 -0.1201
  304loPI   C1A 4855  15.342  11.057   9.814  0.1561 -0.0510  0.2305
  304loPI   C2A 4856  15.365  11.002   9.364 -0.2533  0.0963 -0.4967
  304loPI   C3A 4857  15.357  11.016   8.999  0.0502 -0.3675  0.1788
  304loPI   C4A 4858  15.407  10.966   8.572  0.1184 -0.0971 -0.2434
  304loPI   C5A 4859  15.455  11.111   8.248  0.1522 -0.0126  0.0599
  304loPI   C6A 4860  15.688  11.069   7.958 -0.0808  0.0074 -0.0526
  304loPI   C1B 4861  15.886  11.160   9.804  0.0431  0.0934  0.2590
  304loPI   C2B 4862  15.948  11.223   9.373  0.0642 -0.1277  0.2412
  304loPI   C3B 4863  15.819  11.257   8.909  0.2121 -0.1033 -0.3173
  304loPI   C4B 4864  15.917  11.164   8.491  0.2256 -0.0188  0.0345
  305loPI    C1 4865  13.965  10.747  10.991  0.0242  0.0040 -0.0740
  305loPI    C2 4866  13.932  10.724  11.389  0.0088  0.4719 -0.0424
  305loPI    C3 4867  14.279  10.836  11.223  0.0807  0.0687 -0.1745
  305loPI   PO4 4868  13.823  10.896  10.906  0.0203  0.2766 -0.5319
  305loPI   GL1 4869  13.689  11.062  10.579 -0.0080  0.0968  0.2300
  305loPI   GL2 4870  13.551  10.872  10.475  0.0033 -0.2028 -0.2776
  305loPI   C1A 4871  13.931  11.146  10.281  0.4756 -0.2379  0.1984
  305loPI   C2A 4872  13.981  11.113   9.793  0.1120  0.0445 -0.0611
  305loPI   C3A 4873  13.932  11.017   9.387 -0.0284 -0.2287 -0.1013
  305loPI   C4A 4874  13.987  10.978   8.913 -0.0993  0.3307 -0.0021
  305loPI   C5A 4875  13.916  10.817   8.461 -0.2318 -0.3035  0.0907
  305loPI   C6A 4876  13.970  10.742   8.049 -0.0729 -0.0245  0.1376
  305loPI   C1B 4877  13.483  10.918  10.073 -0.4493  0.2351 -0.0473
  305loPI   C2B 4878  13.514  10.887   9.634 -0.1150 -0.1675 -0.0439
  305loPI   C3B 4879  13.512  10.837   9.212 -0.2132  0.0506  0.0104
  305loPI   C4B 4880  13.447  10.749   8.764  0.1184 -0.0604 -0.1619
  306loPI    C1 4881  14.231  13.842  11.216 -0.0499  0.0820 -0.1357
  306loPI    C2 4882  14.460  14.048  11.471  0.1189 -0.1485 -0.0981
  306loPI    C3 4883  14.121  13.878  11.599  0.0849 -0.0690 -0.0819
  306loPI   PO4 4884  14.424  13.849  10.997  0.1935 -0.0625  0.0368
  306loPI   GL1 4885  14.519  13.832  10.561 -0.3610  0.1606  0.0258
  306loPI   GL2 4886  14.811  13.685  10.688 -0.1496  0.1595 -0.2727
  306loPI   C1A 4887  14.454  14.049  10.240  0.1012  0.1531 -0.0859
  306loPI   C2A 4888  14.462  14.054   9.838  0.1551  0.0669  0.1149
  306loPI   C3A 4889  14.502  14.104   9.452 -0.1678  0.0802  0.0524
  306loPI   C4A 4890  14.423  14.026   9.067  0.0769 -0.1676  0.2364
  306loPI   C5A 4891  14.225  14.125   8.752 -0.1930  0.1902 -0.0435
  306loPI   C6A 4892  13.777  14.295   8.640 -0.2559 -0.3477 -0.0860
  306loPI   C1B 4893  15.004  13.772  10.318  0.1034  0.2268  0.0176
  306loPI   C2B 4894  14.863  13.781   9.881  0.0999  0.0099  0.0402
  306loPI   C3B 4895  14.879  13.805   9.466  0.2270  0.2076 -0.1021
  306loPI   C4B 4896  14.819  13.730   9.073 -0.1714  0.0815 -0.1309
  307loPI    C1 4897   3.251   4.387  10.992  0.0052 -0.3011  0.1568
  307loPI    C2 4898   3.522   4.519  11.255  0.1866 -0.0731 -0.1386
  307loPI    C3 4899   3.304   4.195  11.339  0.1527  0.0675  0.3437
  307loPI   PO4 4900   3.354   4.452  10.732  0.2396  0.0123 -0.1572
  307loPI   GL1 4901   3.631   4.372  10.426  0.1352 -0.1398 -0.1449
  307loPI   GL2 4902   3.802   4.203  10.495  0.1718 -0.2777 -0.1413
  307loPI   C1A 4903   3.631   4.348   9.970 -0.0086  0.0238 -0.0338
  307loPI   C2A 4904   3.612   4.408   9.671 -0.0220  0.0465  0.1609
  307loPI   C3A 4905   3.657   4.345   9.202  0.0590 -0.1165 -0.0076
  307loPI   C4A 4906   3.552   4.319   8.727  0.0701 -0.2191  0.2512
  307loPI   C5A 4907   3.554   4.470   8.330 -0.1300 -0.1800 -0.1370
  307loPI   C6A 4908   3.181   4.542   8.096 -0.0406  0.2609  0.1403
  307loPI   C1B 4909   4.007   4.124  10.155 -0.0724 -0.0336  0.0330
  307loPI   C2B 4910   4.075   4.128   9.694 -0.1810 -0.0929  0.1716
  307loPI   C3B 4911   4.054   4.040   9.198 -0.0551  0.0761 -0.0746
  307loPI   C4B 4912   4.009   3.914   8.751  0.0541 -0.1164 -0.0694
  308loPI    C1 4913   1.658  12.711  11.366 -0.0589  0.0862  0.1984
  308loPI    C2 4914   1.885  12.542  11.649 -0.0857 -0.1572  0.0767
  308loPI    C3 4915   1.487  12.535  11.682 -0.0851 -0.0490  0.1096
  308loPI   PO4 4916   1.713  12.769  11.196 -0.3680  0.0340 -0.1163
  308loPI   GL1 4917   1.989  12.974  10.938  0.1985  0.1706  0.0760
  308loPI   GL2 4918   1.761  13.155  10.818  0.0869  0.1365 -0.0608
  308loPI   C1A 4919   2.079  12.798  10.548  0.0499  0.0633 -0.0180
  308loPI   C2A 4920   2.033  12.867  10.072  0.1006 -0.0956 -0.0596
  308loPI   C3A 4921   1.979  12.897   9.632  0.2050 -0.0609 -0.0961
  308loPI   C4A 4922   1.988  12.926   9.201  0.1967 -0.1860  0.0710
  308loPI   C5A 4923   1.971  12.909   8.706 -0.0021  0.2466 -0.0814
  308loPI   C6A 4924   2.083  12.540   8.555 -0.0436  0.0510 -0.0686
  308loPI   C1B 4925   1.628  13.118  10.370  0.1484 -0.0467  0.1645
  308loPI   C2B 4926   1.545  13.217   9.963  0.3039 -0.0724  0.0902
  308loPI   C3B 4927   1.628  13.231   9.538 -0.0031  0.3198  0.0188
  308loPI   C4B 4928   1.566  13.264   9.076  0.2107  0.4941 -0.0803
  309loPI    C1 4929  16.815   6.487  10.700  0.0305 -0.1175 -0.2486
  309loPI    C2 4930  16.635   6.843  10.668 -0.0753 -0.1489 -0.0218
  309loPI    C3 4931  16.933   6.792  10.930  0.1636 -0.1392 -0.2873
  309loPI   PO4 4932  16.835   6.407  10.451 -0.2742 -0.0313 -0.1505
  309loPI   GL1 4933  16.659   6.141  10.097  0.2990 -0.4683 -0.1351
  309loPI   GL2 4934  16.432   5.992  10.034  0.0796  0.1669 -0.2418
  309loPI   C1A 4935  16.910   6.177   9.700 -0.1689  0.1098  0.0235
  309loPI   C2A 4936  17.018   6.225   9.349  0.3360  0.0054  0.1335
  309loPI   C3A 4937  17.051   6.295   9.057  0.0758 -0.1530  0.0814
  309loPI   C4A 4938  16.925   6.248   8.676 -0.3275 -0.1374 -0.1638
  309loPI   C5A 4939  17.089   6.315   8.280 -0.0658 -0.0465  0.3380
  309loPI   C6A 4940  17.381   6.459   7.985  0.0740 -0.0941 -0.1187
  309loPI   C1B 4941  16.371   5.934   9.657 -0.3456  0.1385  0.3231
  309loPI   C2B 4942  16.408   5.908   9.210 -0.3149 -0.3201 -0.0596
  309loPI   C3B 4943  16.369   6.014   8.769 -0.0563  0.1910  0.1344
  309loPI   C4B 4944  16.401   6.114   8.362 -0.0704 -0.1548 -0.0711
  310loPI    C1 4945  12.730   5.224  10.811  0.0648 -0.2026 -0.0058
  310loPI    C2 4946  12.552   5.103  11.148  0.0644  0.0105  0.0716
  310loPI    C3 4947  12.696   5.475  11.121  0.2518 -0.0723 -0.0891
  310loPI   PO4 4948  12.652   5.024  10.641 -0.0198  0.3084  0.1183
  310loPI   GL1 4949  12.820   4.887  10.265  0.2133  0.0795 -0.0958
  310loPI   GL2 4950  13.036   4.751  10.131  0.0883 -0.1545  0.0811
  310loPI   C1A 4951  12.593   5.008   9.828  0.2651  0.1398  0.1226
  310loPI   C2A 4952  12.625   5.034   9.409 -0.0679 -0.2904 -0.1799
  310loPI   C3A 4953  12.587   5.051   8.978  0.1287  0.0226  0.1497
  310loPI   C4A 4954  12.522   5.226   8.592  0.3697 -0.1323  0.2597
  310loPI   C5A 4955  12.428   5.335   8.150 -0.1979  0.0066 -0.0895
  310loPI   C6A 4956  12.219   5.165   7.824 -0.0507 -0.0382 -0.0933
  310loPI   C1B 4957  13.026   4.742   9.721  0.0195 -0.1322  0.1796
  310loPI   C2B 4958  13.016   4.800   9.322  0.1333  0.0810  0.0292
  310loPI   C3B 4959  13.005   4.697   8.995  0.0493  0.1304  0.2825
  310loPI   C4B 4960  12.926   4.742   8.646 -0.3303  0.0907 -0.0181
  311loPI    C1 4961   1.195   6.644  10.628  0.2453  0.1512 -0.0023
  311loPI    C2 4962   1.093   6.564  11.007  0.1402  0.0755 -0.0462
  311loPI    C3 4963   1.326   6.309  10.805 -0.1430 -0.0946 -0.1657
  311loPI   PO4 4964   1.045   6.668  10.500 -0.1469 -0.0024  0.2781
  311loPI   GL1 4965   1.050   6.623  10.081 -0.3542  0.0946 -0.1954
  311loPI   GL2 4966   0.726   6.746  10.028 -0.1910  0.1266 -0.0053
  311loPI   C1A 4967   1.065   6.340   9.715 -0.0420 -0.0635  0.1454
  311loPI   C2A 4968   1.086   6.416   9.289 -0.2337 -0.1058  0.3574
  311loPI   C3A 4969   1.089   6.418   8.891  0.1738 -0.2209 -0.1206
  311loPI   C4A 4970   1.123   6.541   8.466  0.0552  0.3943  0.1009
  311loPI   C5A 4971   1.048   6.528   8.052 -0.0424 -0.0679  0.2364
  311loPI   C6A 4972   0.936   6.456   7.676 -0.1830  0.4448  0.1096
  311loPI   C1B 4973   0.613   6.671   9.619 -0.1854  0.0875 -0.0113
  311loPI   C2B 4974   0.743   6.736   9.222 -0.1562  0.0981 -0.0739
  311loPI   C3B 4975   0.756   6.846   8.872  0.0152 -0.0862  0.0986
  311loPI   C4B 4976   0.718   6.794   8.400 -0.1114  0.0293  0.0553
  312loPI    C1 4977  17.172  15.496  11.318 -0.0863  0.1069 -0.0175
  312loPI    C2 4978  17.115  15.857  11.481  0.0585 -0.0595  0.4162
  312loPI    C3 4979  16.900  15.745  11.163  0.0943  0.4499  0.2041
  312loPI   PO4 4980  17.477  15.540  11.230 -0.1725  0.3874  0.2392
  312loPI   GL1 4981  17.598  15.584  10.803  0.0833  0.4788  0.0304
  312loPI   GL2 4982  17.911  15.591  10.862  0.2327 -0.0973  0.0066
  312loPI   C1A 4983  17.471  15.834  10.485  0.0363 -0.0227 -0.0374
  312loPI   C2A 4984  17.424  15.805   9.978  0.2159 -0.0840  0.2565
  312loPI   C3A 4985  17.474  15.856   9.532 -0.0703 -0.2846 -0.1558
  312loPI   C4A 4986  17.456  15.842   9.167 -0.2124 -0.0971 -0.0382
  312loPI   C5A 4987  17.244  15.686   8.839 -0.0871  0.0113 -0.2832
  312loPI   C6A 4988  17.027  15.684   8.489 -0.0219 -0.0277  0.0576
  312loPI   C1B 4989  17.890  15.561  10.386 -0.1053  0.0769  0.0161
  312loPI   C2B 4990  17.823  15.514   9.945  0.0867 -0.3180  0.0364
  312loPI   C3B 4991  17.945  15.481   9.528 -0.1167  0.1777 -0.0833
  312loPI   C4B 4992  17.825  15.444   9.162  0.0281 -0.2885  0.1781
  313loPI    C1 4993   5.455  16.425  11.150  0.0920  0.1756 -0.1500
  313loPI    C2 4994   5.352  16.571  11.508 -0.0881 -0.1964 -0.0453
  313loPI    C3 4995   5.425  16.180  11.464  0.2390 -0.1068 -0.3515
  313loPI   PO4 4996   5.259  16.514  10.945 -0.1310 -0.2892  0.2197
  313loPI   GL1 4997   5.137  16.492  10.593 -0.0658 -0.0329  0.3984
  313loPI   GL2 4998   4.849  16.226  10.564 -0.0986 -0.1448 -0.0187
  313loPI   C1A 4999   5.401  16.544  10.300  0.1696  0.0973  0.2928
  313loPI   C2A 5000   5.432  16.542   9.754 -0.0871 -0.1669 -0.0396
  313loPI   C3A 5001   5.418  16.491   9.334  0.0556  0.2567 -0.0909
  313loPI   C4A 5002   5.406  16.633   8.923  0.3671 -0.1169  0.1355
  313loPI   C5A 5003   5.368  17.093   8.748  0.3175  0.1419  0.0603
  313loPI   C6A 5004   5.363  17.332   8.306  0.1908  0.1889  0.0321
  313loPI   C1B 5005   4.878  16.315  10.178 -0.0451  0.0464  0.0404
  313loPI   C2B 5006   4.944  16.363   9.654 -0.4170 -0.2033 -0.2629
  313loPI   C3B 5007   4.979  16.352   9.221 -0.3209 -0.1867  0.1169
  313loPI   C4B 5008   4.983  16.304   8.724  0.0495  0.2340  0.0498
  314loPI    C1 5009   1.753   2.090  11.256 -0.0212  0.1045 -0.2747
  314loPI    C2 5010   1.416   2.294  11.326 -0.1351 -0.0540 -0.3534
  314loPI    C3 5011   1.540   2.017  11.586 -0.0219  0.0598 -0.2849
  314loPI   PO4 5012   1.938   2.236  11.214 -0.1659  0.0428  0.1933
  314loPI   GL1 5013   2.005   2.428  10.803 -0.0453  0.1084  0.1599
  314loPI   GL2 5014   2.297   2.229  10.773 -0.2843 -0.0134 -0.2272
  314loPI   C1A 5015   1.781   2.473  10.422  0.1770  0.1514 -0.1063
  314loPI   C2A 5016   1.967   2.524  10.045  0.2133  0.0108  0.2465
  314loPI   C3A 5017   2.272   2.573   9.764 -0.1236  0.2389  0.1358
  314loPI   C4A 5018   2.322   2.546   9.362  0.3791 -0.3317 -0.1604
  314loPI   C5A 5019   2.279   2.554   8.920 -0.0172 -0.0658  0.2513
  314loPI   C6A 5020   2.012   2.587   8.589 -0.3139 -0.1846  0.0946
  314loPI   C1B 5021   2.108   2.085  10.398  0.1616 -0.4138 -0.1346
  314loPI   C2B 5022   2.149   2.005   9.933 -0.0335  0.0805 -0.0441
  314loPI   C3B 5023   2.103   1.824   9.457 -0.1004 -0.2127 -0.0386
  314loPI   C4B 5024   1.926   1.692   9.062 -0.2254  0.0080  0.0448
  315loPI    C1 5025   6.505   4.909  11.277  0.0587 -0.3699  0.2607
  315loPI    C2 5026   6.389   4.951  11.657  0.0935 -0.1789  0.2514
  315loPI    C3 5027   6.754   5.071  11.545 -0.0456  0.0984  0.0853
  315loPI   PO4 5028   6.181   4.922  11.152 -0.1660 -0.2487  0.2210
  315loPI   GL1 5029   6.077   4.896  10.726  0.1074  0.1315  0.0195
  315loPI   GL2 5030   5.745   4.845  10.649 -0.0108 -0.0310  0.3202
  315loPI   C1A 5031   6.299   4.960  10.270 -0.2006 -0.1338 -0.2057
  315loPI   C2A 5032   6.456   4.880   9.860 -0.1639 -0.2702  0.1678
  315loPI   C3A 5033   6.411   4.988   9.477  0.0946 -0.2008  0.2268
  315loPI   C4A 5034   6.402   5.100   9.003 -0.1294  0.0561  0.0077
  315loPI   C5A 5035   6.506   5.179   8.581 -0.2620  0.1499  0.1651
  315loPI   C6A 5036   6.289   5.185   8.221  0.2299 -0.0910 -0.0332
  315loPI   C1B 5037   5.878   4.752  10.258  0.3566 -0.2782 -0.0450
  315loPI   C2B 5038   5.967   4.771   9.863 -0.2297 -0.0271 -0.2015
  315loPI   C3B 5039   5.917   4.748   9.410 -0.2719 -0.0259  0.2397
  315loPI   C4B 5040   5.952   4.825   9.000 -0.1334  0.0340  0.2867
  316loPI    C1 5041  13.419   0.182  11.690  0.1302 -0.1153 -0.1352
  316loPI    C2 5042  13.311  -0.110  11.439 -0.0335 -0.0045 -0.1956
  316loPI    C3 5043  13.373  -0.191  11.826 -0.1340 -0.1089 -0.2006
  316loPI   PO4 5044  13.466   0.403  11.417  0.0567  0.1890 -0.0401
  316loPI   GL1 5045  13.674   0.470  11.010 -0.0404  0.0251 -0.0031
  316loPI   GL2 5046  13.849   0.686  10.859  0.0349  0.1630  0.1736
  316loPI   C1A 5047  13.299   0.384  10.802 -0.0282 -0.0873 -0.0074
  316loPI   C2A 5048  13.219   0.377  10.360 -0.1641 -0.0576  0.0484
  316loPI   C3A 5049  13.237   0.313   9.920  0.1656  0.0293 -0.1575
  316loPI   C4A 5050  13.283   0.342   9.433  0.1246  0.2972  0.3875
  316loPI   C5A 5051  13.311   0.364   8.979  0.0153  0.3524  0.0817
  316loPI   C6A 5052  13.411   0.500   8.586 -0.1239  0.1841  0.2337
  316loPI   C1B 5053  13.671   0.604  10.509  0.1778 -0.1760 -0.0386
  316loPI   C2B 5054  13.700   0.507  10.107  0.3691  0.1572 -0.0900
  316loPI   C3B 5055  13.655   0.515   9.671 -0.1505  0.2575 -0.1990
  316loPI   C4B 5056  13.745   0.494   9.259  0.1962 -0.0645 -0.0987
  317loPI    C1 5057  17.426   2.838  11.536 -0.0364  0.0148 -0.1341
  317loPI    C2 5058  17.693   3.016  11.775 -0.1463  0.1291 -0.0953
  317loPI    C3 5059  17.534   2.664  11.879 -0.1883  0.1749 -0.0031
  317loPI   PO4 5060  17.476   2.784  11.297  0.2083  0.1129  0.0727
  317loPI   GL1 5061  17.191   2.998  10.911 -0.1841  0.1504 -0.3023
  317loPI   GL2 5062  17.414   3.163  10.821 -0.0927 -0.0235  0.1644
  317loPI   C1A 5063  17.066   2.977  10.426 -0.0471  0.0105 -0.2163
  317loPI   C2A 5064  17.208   2.894   9.961 -0.0527  0.0409 -0.0796
  317loPI   C3A 5065  17.274   2.816   9.459  0.3168  0.0070 -0.2077
  317loPI   C4A 5066  17.313   2.949   9.091 -0.1416 -0.2671  0.0729
  317loPI   C5A 5067  17.094   2.880   8.687 -0.0367  0.0363 -0.1101
  317loPI   C6A 5068  16.715   3.096   8.594 -0.1121 -0.0701 -0.0106
  317loPI   C1B 5069  17.552   3.143  10.315  0.0120 -0.0041  0.1092
  317loPI   C2B 5070  17.666   3.079   9.774  0.1374  0.1299  0.3983
  317loPI   C3B 5071  17.810   3.117   9.361 -0.0736  0.0776 -0.0562
  317loPI   C4B 5072  17.779   3.182   8.931 -0.0927  0.1138  0.1249
  318loPI    C1 5073   2.382   6.362  10.859  0.3326  0.1234 -0.0728
  318loPI    C2 5074   2.565   6.718  10.872  0.0928  0.2437  0.0819
  318loPI    C3 5075   2.450   6.540  11.211  0.0196  0.1193 -0.0073
  318loPI   PO4 5076   2.244   6.476  10.571  0.2828 -0.2299  0.3966
  318loPI   GL1 5077   2.448   6.344  10.170 -0.0224  0.2986 -0.0036
  318loPI   GL2 5078   2.468   6.523  10.008  0.2458  0.0386 -0.1722
  318loPI   C1A 5079   2.769   6.118   9.913  0.0868 -0.2279  0.0548
  318loPI   C2A 5080   2.891   6.056   9.490  0.1494  0.2165  0.0694
  318loPI   C3A 5081   2.895   6.098   9.112  0.1342  0.4071 -0.1240
  318loPI   C4A 5082   2.981   6.042   8.708 -0.0401  0.2577 -0.1935
  318loPI   C5A 5083   3.114   6.228   8.346 -0.0629  0.1358  0.1109
  318loPI   C6A 5084   3.363   6.644   8.237 -0.0075  0.2241 -0.0337
  318loPI   C1B 5085   2.472   6.379   9.543  0.1194  0.1085  0.0466
  318loPI   C2B 5086   2.458   6.326   9.186  0.0951 -0.2377  0.2074
  318loPI   C3B 5087   2.506   6.461   8.834  0.1032 -0.0332  0.1778
  318loPI   C4B 5088   2.608   6.410   8.387 -0.1437 -0.2619 -0.0994
  319loPI    C1 5089   6.151   3.616  11.355 -0.2610  0.0573 -0.1116
  319loPI    C2 5090   5.929   3.848  11.594  0.0923  0.0920  0.1915
  319loPI    C3 5091   6.274   3.696  11.727  0.1810 -0.0828 -0.2221
  319loPI   PO4 5092   6.185   3.684  11.118  0.0270  0.0729  0.1466
  319loPI   GL1 5093   6.022   3.655  10.781 -0.1957 -0.2436  0.1241
  319loPI   GL2 5094   6.152   3.969  10.653 -0.0304  0.4158  0.0006
  319loPI   C1A 5095   6.116   3.468  10.417  0.3315 -0.3268  0.1639
  319loPI   C2A 5096   6.123   3.422  10.098  0.1532 -0.0347  0.0803
  319loPI   C3A 5097   6.084   3.435   9.685  0.1220 -0.0503 -0.3581
  319loPI   C4A 5098   6.151   3.422   9.204  0.0961  0.0178 -0.0206
  319loPI   C5A 5099   6.211   3.399   8.761 -0.0757 -0.0883 -0.1558
  319loPI   C6A 5100   6.156   3.213   8.418 -0.0686  0.1049  0.0299
  319loPI   C1B 5101   6.213   3.925  10.230  0.1127 -0.1415  0.0905
  319loPI   C2B 5102   6.234   3.925   9.733 -0.0338 -0.1985 -0.0015
  319loPI   C3B 5103   6.172   3.951   9.278 -0.1390 -0.1344 -0.0197
  319loPI   C4B 5104   6.274   3.954   8.813  0.1103 -0.1205  0.3836
  320loPI    C1 5105   5.037   2.416  11.491  0.1126  0.0035 -0.0198
  320loPI    C2 5106   4.944   2.687  11.770 -0.0631  0.0528 -0.1243
  320loPI    C3 5107   5.328   2.612  11.683 -0.0067  0.0261  0.1397
  320loPI   PO4 5108   4.916   2.413  11.276  0.1945  0.1790 -0.0928
  320loPI   GL1 5109   4.861   2.664  10.969  0.3416  0.6895 -0.0982
  320loPI   GL2 5110   4.851   2.950  10.878  0.0302 -0.1286 -0.1349
  320loPI   C1A 5111   5.119   2.622  10.647 -0.0576 -0.0778 -0.0527
  320loPI   C2A 5112   5.146   2.650  10.202  0.0617  0.1713  0.0266
  320loPI   C3A 5113   5.147   2.620   9.703  0.0535  0.2995 -0.0740
  320loPI   C4A 5114   5.063   2.552   9.294  0.0678 -0.1645  0.1807
  320loPI   C5A 5115   5.119   2.385   8.912  0.0229 -0.0181 -0.2555
  320loPI   C6A 5116   5.473   2.317   8.713  0.0927 -0.0242 -0.0366
  320loPI   C1B 5117   4.778   2.961  10.433  0.0352 -0.5409 -0.1713
  320loPI   C2B 5118   4.773   2.902   9.972  0.2207 -0.0301 -0.2934
  320loPI   C3B 5119   4.761   2.911   9.560  0.3695  0.0097  0.0459
  320loPI   C4B 5120   4.681   2.887   9.159  0.0595 -0.2620  0.0207
  321loPI    C1 5121   6.050   1.908  11.135  0.2591  0.2310  0.0797
  321loPI    C2 5122   5.754   2.171  11.194 -0.0170 -0.0919  0.1653
  321loPI    C3 5123   5.924   1.989  11.506  0.3956  0.2169  0.1296
  321loPI   PO4 5124   5.977   1.727  10.961 -0.0413 -0.1766 -0.1121
  321loPI   GL1 5125   5.947   1.935  10.606 -0.1603  0.3652  0.0459
  321loPI   GL2 5126   6.064   2.239  10.731 -0.2170 -0.2043 -0.0948
  321loPI   C1A 5127   5.902   1.897  10.132  0.1203 -0.1358  0.0272
  321loPI   C2A 5128   5.876   1.878   9.729  0.0322  0.0168  0.2240
  321loPI   C3A 5129   5.862   1.881   9.334 -0.1211  0.2887  0.1501
  321loPI   C4A 5130   5.813   1.951   8.954  0.0822 -0.1336  0.0972
  321loPI   C5A 5131   5.659   1.859   8.525  0.1191  0.0043 -0.0866
  321loPI   C6A 5132   5.658   1.519   8.197  0.1013 -0.4100  0.1330
  321loPI   C1B 5133   5.999   2.453  10.294 -0.5029  0.3769 -0.1015
  321loPI   C2B 5134   5.987   2.446   9.868 -0.4437 -0.1477 -0.2947
  321loPI   C3B 5135   5.948   2.400   9.494 -0.1266  0.0674  0.3839
  321loPI   C4B 5136   5.933   2.467   9.036  0.0924 -0.1581 -0.2357
  322loPI    C1 5137   2.054  10.556  10.799 -0.0349 -0.0067  0.2024
  322loPI    C2 5138   2.327  10.375  11.028  0.0438 -0.0035  0.1115
  322loPI    C3 5139   1.958  10.223  10.999  0.0085  0.0419  0.3052
  322loPI   PO4 5140   2.165  10.550  10.532 -0.0026 -0.3784 -0.2947
  322loPI   GL1 5141   2.253  10.393  10.246 -0.0317 -0.1924 -0.2184
  322loPI   GL2 5142   2.158  10.199  10.000  0.0757 -0.1401 -0.1010
  322loPI   C1A 5143   2.598  10.468  10.054  0.1886  0.1206 -0.0607
  322loPI   C2A 5144   2.816  10.533   9.642 -0.0349  0.2177 -0.1983
  322loPI   C3A 5145   2.942  10.438   9.222  0.0329  0.2120  0.0081
  322loPI   C4A 5146   2.878  10.342   8.788  0.1369 -0.1708  0.3384
  322loPI   C5A 5147   2.740  10.251   8.390 -0.1142  0.0769  0.1302
  322loPI   C6A 5148   2.408   9.989   8.336  0.0553  0.0657 -0.1953
  322loPI   C1B 5149   2.350  10.352   9.613 -0.0660  0.0371  0.1018
  322loPI   C2B 5150   2.488  10.648   9.292 -0.1866  0.1515  0.0567
  322loPI   C3B 5151   2.550  10.726   8.871 -0.1541  0.0173  0.0515
  322loPI   C4B 5152   2.363  10.540   8.557  0.3311 -0.3447  0.2729
  323loPI    C1 5153   7.315  17.028  11.535 -0.0669  0.0718 -0.0263
  323loPI    C2 5154   7.202  17.254  11.845 -0.0469 -0.0219  0.0496
  323loPI    C3 5155   7.127  16.861  11.846  0.0093 -0.0330 -0.0359
  323loPI   PO4 5156   7.220  17.197  11.305 -0.2593  0.1327 -0.0536
  323loPI   GL1 5157   7.198  17.082  10.813 -0.1044  0.1660 -0.1743
  323loPI   GL2 5158   6.916  17.071  10.643 -0.1033  0.1957 -0.4555
  323loPI   C1A 5159   7.326  17.161  10.378 -0.1191  0.3134  0.2806
  323loPI   C2A 5160   7.360  17.214   9.965 -0.1498 -0.0214 -0.1896
  323loPI   C3A 5161   7.306  17.238   9.572 -0.0618 -0.1200  0.1548
  323loPI   C4A 5162   7.243  17.272   9.062 -0.1220 -0.0755 -0.2359
  323loPI   C5A 5163   7.156  17.465   8.637  0.0928 -0.0229  0.0364
  323loPI   C6A 5164   7.044  17.819   8.285  0.1509  0.1338 -0.2460
  323loPI   C1B 5165   6.818  17.029  10.219  0.0552  0.1820  0.3168
  323loPI   C2B 5166   6.845  17.023   9.767  0.2364  0.5799 -0.1553
  323loPI   C3B 5167   6.851  17.113   9.328  0.0282 -0.0498 -0.0892
  323loPI   C4B 5168   6.777  17.151   8.932  0.1085 -0.1149  0.0326
  324loPI    C1 5169   0.634   3.229  11.231 -0.0121  0.1723 -0.1677
  324loPI    C2 5170   0.480   3.230  11.600  0.0475 -0.1964 -0.1385
  324loPI    C3 5171   0.443   3.553  11.368  0.0260  0.0464  0.1948
  324loPI   PO4 5172   0.625   3.021  11.113  0.1819  0.2061 -0.0760
  324loPI   GL1 5173   0.639   2.634  10.877  0.2447 -0.0725 -0.3225
  324loPI   GL2 5174   0.861   2.554  10.721 -0.2886  0.0375 -0.1401
  324loPI   C1A 5175   0.424   2.889  10.505 -0.0620 -0.5738  0.1231
  324loPI   C2A 5176   0.293   2.907  10.155  0.2574 -0.0386 -0.0371
  324loPI   C3A 5177   0.405   2.806   9.729 -0.1914  0.0551 -0.1609
  324loPI   C4A 5178   0.556   2.859   9.278 -0.1550 -0.2682  0.1957
  324loPI   C5A 5179   0.447   2.846   8.905  0.3464  0.0852 -0.3341
  324loPI   C6A 5180   0.148   2.659   8.702  0.1346 -0.1065 -0.2015
  324loPI   C1B 5181   0.886   2.436  10.290  0.0334  0.0047 -0.0080
  324loPI   C2B 5182   1.042   2.169   9.958 -0.2115 -0.0643 -0.0154
  324loPI   C3B 5183   1.315   2.191   9.670  0.0326 -0.1721  0.0398
  324loPI   C4B 5184   1.396   2.308   9.314  0.0715  0.2301 -0.1216
  325loPI    C1 5185  13.746   5.098  10.895 -0.3047  0.0642  0.1682
  325loPI    C2 5186  14.137   5.167  10.853 -0.3218  0.0184 -0.0831
  325loPI    C3 5187  13.964   5.209  11.211 -0.0517 -0.1451  0.0701
  325loPI   PO4 5188  13.615   5.205  10.709  0.3259  0.1225  0.1546
  325loPI   GL1 5189  13.487   5.008  10.340  0.1119 -0.0673 -0.3409
  325loPI   GL2 5190  13.522   5.385  10.152  0.0950  0.1571  0.1349
  325loPI   C1A 5191  13.505   4.929   9.858 -0.1077  0.1489  0.0087
  325loPI   C2A 5192  13.472   4.901   9.467 -0.0422 -0.3349  0.1288
  325loPI   C3A 5193  13.493   4.925   9.081  0.0565  0.2941  0.1117
  325loPI   C4A 5194  13.436   4.822   8.677 -0.0170  0.0794 -0.1900
  325loPI   C5A 5195  13.233   4.980   8.309  0.1625 -0.2310 -0.2082
  325loPI   C6A 5196  12.798   5.040   8.080 -0.1707  0.1886 -0.0400
  325loPI   C1B 5197  13.616   5.424   9.659  0.1032 -0.3427  0.0138
  325loPI   C2B 5198  13.613   5.443   9.172  0.2902 -0.2786  0.2192
  325loPI   C3B 5199  13.472   5.390   8.767  0.1573  0.2255  0.1904
  325loPI   C4B 5200  13.331   5.505   8.306 -0.0489 -0.0572 -0.0422
  326loPI    C1 5201   2.262   9.635  10.738 -0.0288  0.0041 -0.1428
  326loPI    C2 5202   2.368   9.876  11.039  0.0636  0.2022 -0.3303
  326loPI    C3 5203   1.992   9.741  11.013  0.1548 -0.1616  0.1055
  326loPI   PO4 5204   2.326   9.714  10.485 -0.2924 -0.0217 -0.0112
  326loPI   GL1 5205   2.597   9.893  10.224  0.0188 -0.0809  0.1077
  326loPI   GL2 5206   2.993  10.056  10.233 -0.0101 -0.0383  0.0305
  326loPI   C1A 5207   2.655   9.978   9.874 -0.0134  0.1430 -0.2010
  326loPI   C2A 5208   2.687  10.057   9.482  0.0174 -0.3360 -0.1757
  326loPI   C3A 5209   2.726   9.933   9.028  0.1879 -0.1961 -0.1548
  326loPI   C4A 5210   2.756   9.833   8.630  0.2173 -0.0740  0.4424
  326loPI   C5A 5211   2.770   9.568   8.310 -0.0035  0.2848  0.2284
  326loPI   C6A 5212   2.632   9.108   8.259 -0.0938  0.1413  0.1725
  326loPI   C1B 5213   3.169  10.115   9.727  0.0330 -0.0057  0.0363
  326loPI   C2B 5214   3.218  10.057   9.266 -0.2001 -0.0415 -0.1194
  326loPI   C3B 5215   3.236   9.987   8.791 -0.2306  0.0023  0.0290
  326loPI   C4B 5216   3.181   9.904   8.305 -0.2133  0.1561 -0.0337
  327loPI    C1 5217  15.714   4.150  11.183 -0.2186  0.2498  0.1074
  327loPI    C2 5218  16.021   4.334  11.362 -0.0181  0.1146 -0.0911
  327loPI    C3 5219  15.848   4.018  11.537  0.2061 -0.0451 -0.1525
  327loPI   PO4 5220  15.836   4.118  10.925  0.2543 -0.2610  0.1310
  327loPI   GL1 5221  15.685   3.908  10.603  0.0232  0.0381 -0.2565
  327loPI   GL2 5222  16.086   3.839  10.664 -0.2152 -0.0447  0.1110
  327loPI   C1A 5223  15.549   3.689  10.259 -0.3270 -0.1978  0.1388
  327loPI   C2A 5224  15.496   3.710   9.783  0.1346  0.1053 -0.1743
  327loPI   C3A 5225  15.602   3.677   9.337 -0.2969  0.0543  0.0292
  327loPI   C4A 5226  15.621   3.770   8.847  0.4483 -0.0318 -0.1489
  327loPI   C5A 5227  15.814   3.789   8.476 -0.1173  0.0726 -0.0470
  327loPI   C6A 5228  16.163   3.747   8.265 -0.2683 -0.0569 -0.1890
  327loPI   C1B 5229  15.984   3.923  10.187  0.1806  0.0032 -0.0343
  327loPI   C2B 5230  16.045   3.876   9.777 -0.1919 -0.2282  0.1263
  327loPI   C3B 5231  16.076   3.900   9.305 -0.2035  0.1550  0.1135
  327loPI   C4B 5232  16.057   3.992   8.927 -0.0070  0.3183  0.1817
  328loPI    C1 5233  10.114   4.570  10.687  0.0781 -0.0538  0.0957
  328loPI    C2 5234  10.501   4.664  10.647  0.0907 -0.0791  0.1566
  328loPI    C3 5235  10.348   4.595  11.010 -0.0016  0.0595  0.1450
  328loPI   PO4 5236  10.026   4.768  10.508 -0.1556  0.5009 -0.2019
  328loPI   GL1 5237  10.298   4.913  10.290  0.3166 -0.3315 -0.0946
  328loPI   GL2 5238  10.549   5.014  10.257 -0.3065  0.1581 -0.0443
  328loPI   C1A 5239  10.274   4.827   9.873  0.2256 -0.2515 -0.0903
  328loPI   C2A 5240  10.113   4.800   9.348 -0.2202 -0.1726 -0.0867
  328loPI   C3A 5241  10.185   4.824   8.892  0.2166  0.1376 -0.1451
  328loPI   C4A 5242  10.216   4.927   8.458  0.1534  0.0218 -0.1038
  328loPI   C5A 5243  10.496   5.167   8.266 -0.0503  0.2174 -0.1639
  328loPI   C6A 5244  10.975   5.011   8.082 -0.2632  0.2075  0.1775
  328loPI   C1B 5245  10.753   4.939   9.845  0.0907 -0.1375  0.4903
  328loPI   C2B 5246  10.666   5.048   9.471 -0.0913  0.0239 -0.2897
  328loPI   C3B 5247  10.670   4.972   9.110  0.1685  0.0279  0.0734
  328loPI   C4B 5248  10.640   5.060   8.745 -0.0810 -0.3004 -0.5323
  329loPI    C1 5249   4.930  12.203  11.077  0.0444  0.0732 -0.2806
  329loPI    C2 5250   5.009  12.563  11.231 -0.1157  0.0851 -0.2238
  329loPI    C3 5251   5.166  12.236  11.398 -0.0510  0.1205 -0.2149
  329loPI   PO4 5252   4.959  12.218  10.829  0.0109 -0.2945 -0.0332
  329loPI   GL1 5253   5.061  12.337  10.392  0.4242  0.1205  0.0274
  329loPI   GL2 5254   4.758  12.398  10.417 -0.1476 -0.3449  0.1975
  329loPI   C1A 5255   5.096  12.568  10.042 -0.3108  0.2589 -0.0564
  329loPI   C2A 5256   5.144  12.550   9.619 -0.0416 -0.1099  0.4821
  329loPI   C3A 5257   5.184  12.512   9.220  0.3384 -0.1062  0.2372
  329loPI   C4A 5258   5.175  12.527   8.778  0.1915  0.1128  0.1893
  329loPI   C5A 5259   5.481  12.570   8.535 -0.0448 -0.0383 -0.0869
  329loPI   C6A 5260   5.901  12.459   8.487  0.2449  0.0269  0.3337
  329loPI   C1B 5261   4.598  12.405  10.003 -0.1080 -0.1739 -0.3084
  329loPI   C2B 5262   4.658  12.398   9.617  0.1565  0.1330  0.2394
  329loPI   C3B 5263   4.745  12.348   9.142  0.1695  0.2238 -0.0280
  329loPI   C4B 5264   4.758  12.281   8.682  0.0343 -0.2033  0.2731
  330loPI    C1 5265  11.941   9.431  10.830  0.1744  0.1528  0.0167
  330loPI    C2 5266  11.829   9.152  11.093  0.0278  0.3032  0.1164
  330loPI    C3 5267  11.805   9.539  11.191 -0.0842  0.3629 -0.1394
  330loPI   PO4 5268  11.773   9.394  10.641  0.0055 -0.1083  0.1516
  330loPI   GL1 5269  11.980   9.182  10.253  0.1533 -0.0329 -0.0202
  330loPI   GL2 5270  11.624   9.182  10.156  0.1133  0.1766  0.2090
  330loPI   C1A 5271  11.949   9.311   9.764  0.1052  0.0203 -0.1713
  330loPI   C2A 5272  11.799   9.318   9.313  0.0939 -0.0822 -0.1206
  330loPI   C3A 5273  11.839   9.303   8.966 -0.1831  0.1458 -0.2382
  330loPI   C4A 5274  11.845   9.258   8.496 -0.0908 -0.2298  0.2463
  330loPI   C5A 5275  12.121   9.270   8.156  0.0404  0.2174 -0.2256
  330loPI   C6A 5276  12.391   9.348   7.788  0.1522  0.2567  0.0185
  330loPI   C1B 5277  11.416   9.113   9.849  0.2613  0.1177  0.3205
  330loPI   C2B 5278  11.348   9.128   9.290  0.1254 -0.2754  0.0232
  330loPI   C3B 5279  11.318   9.084   8.868  0.1871  0.2635 -0.0015
  330loPI   C4B 5280  11.260   9.145   8.408  0.2196  0.2662 -0.0050
  331loPI    C1 5281  11.521   3.337  10.688 -0.3796  0.2217  0.1641
  331loPI    C2 5282  11.695   3.362  11.047  0.3220  0.1295 -0.1530
  331loPI    C3 5283  11.502   3.678  10.896  0.0582  0.1821  0.2781
  331loPI   PO4 5284  11.716   3.189  10.533 -0.4251 -0.0956  0.1796
  331loPI   GL1 5285  11.635   2.909  10.198 -0.2725  0.2734  0.2202
  331loPI   GL2 5286  11.818   2.848  10.017  0.4561 -0.1027  0.5543
  331loPI   C1A 5287  11.342   2.946   9.827 -0.0117 -0.2220  0.2219
  331loPI   C2A 5288  11.306   2.915   9.459 -0.0628 -0.2159 -0.1939
  331loPI   C3A 5289  11.114   2.795   9.260  0.0042 -0.0130  0.3762
  331loPI   C4A 5290  11.098   2.828   8.925  0.1988 -0.0306 -0.0473
  331loPI   C5A 5291  11.061   2.877   8.472  0.1431 -0.0937 -0.0863
  331loPI   C6A 5292  11.151   3.273   8.231 -0.1292  0.0334 -0.1110
  331loPI   C1B 5293  12.205   3.022   9.765 -0.0168  0.0446  0.1624
  331loPI   C2B 5294  12.312   3.038   9.394 -0.2204  0.0297  0.1151
  331loPI   C3B 5295  12.073   3.067   9.029 -0.0682  0.1985 -0.2236
  331loPI   C4B 5296  11.999   3.159   8.543 -0.0085  0.1504  0.1850
  332loPI    C1 5297   8.016   6.853  10.794 -0.1568 -0.1032 -0.0599
  332loPI    C2 5298   8.128   6.835  11.178 -0.0990 -0.0841 -0.0757
  332loPI    C3 5299   8.323   6.621  10.902 -0.1081 -0.0586 -0.1019
  332loPI   PO4 5300   7.979   7.072  10.715 -0.0416  0.0412  0.1783
  332loPI   GL1 5301   8.041   7.243  10.423 -0.1665  0.0002  0.0989
  332loPI   GL2 5302   8.026   7.608  10.386  0.0365 -0.0118 -0.1010
  332loPI   C1A 5303   8.294   7.126  10.082 -0.0188 -0.5439  0.1074
  332loPI   C2A 5304   8.243   7.137   9.687 -0.1281 -0.2715  0.2915
  332loPI   C3A 5305   8.237   7.053   9.245  0.1629 -0.0766 -0.0430
  332loPI   C4A 5306   8.070   7.043   8.867 -0.0492  0.2427  0.0901
  332loPI   C5A 5307   8.015   7.208   8.495 -0.1384 -0.0507  0.0349
  332loPI   C6A 5308   8.048   7.501   8.103  0.1060 -0.0874 -0.0056
  332loPI   C1B 5309   7.831   7.448  10.036 -0.1476  0.1142 -0.0410
  332loPI   C2B 5310   7.864   7.460   9.616  0.0346 -0.1294  0.2055
  332loPI   C3B 5311   7.784   7.374   9.190 -0.2916 -0.1918  0.0751
  332loPI   C4B 5312   7.734   7.481   8.796  0.2472  0.0303  0.1338
  333loPI    C1 5313   4.556  12.966  11.428  0.2319  0.1065  0.1332
  333loPI    C2 5314   4.182  13.093  11.361  0.2677  0.0844 -0.1165
  333loPI    C3 5315   4.248  12.793  11.617  0.0984 -0.0177 -0.1911
  333loPI   PO4 5316   4.676  12.915  11.157 -0.1546  0.1062 -0.0593
  333loPI   GL1 5317   4.610  12.986  10.685 -0.0176  0.1896 -0.0882
  333loPI   GL2 5318   4.686  13.371  10.601 -0.0504  0.0856 -0.2868
  333loPI   C1A 5319   4.829  12.896  10.286  0.0991  0.0278  0.2150
  333loPI   C2A 5320   4.697  12.919   9.824 -0.3164  0.1814  0.0921
  333loPI   C3A 5321   4.814  12.900   9.374 -0.0953  0.1874 -0.1104
  333loPI   C4A 5322   4.690  12.774   8.859 -0.1028 -0.2263 -0.0711
  333loPI   C5A 5323   4.680  13.171   8.481 -0.1044 -0.1633 -0.2625
  333loPI   C6A 5324   4.648  13.589   8.303  0.1849  0.1704 -0.2346
  333loPI   C1B 5325   4.811  13.471  10.204 -0.0550  0.2422 -0.1292
  333loPI   C2B 5326   4.772  13.451   9.766  0.0231  0.0808  0.0008
  333loPI   C3B 5327   4.754  13.401   9.354  0.1103 -0.3724  0.1821
  333loPI   C4B 5328   4.786  13.375   8.921  0.0820 -0.0759  0.4375
  334loPI    C1 5329  16.420  10.969  10.842 -0.0800  0.1388 -0.0537
  334loPI    C2 5330  16.570  11.172  11.153 -0.1170  0.1920 -0.0704
  334loPI    C3 5331  16.218  10.986  11.187 -0.1008  0.1617 -0.0670
  334loPI   PO4 5332  16.592  11.119  10.613 -0.0118  0.0607  0.1485
  334loPI   GL1 5333  16.780  11.486  10.257  0.2807  0.2080  0.0804
  334loPI   GL2 5334  16.918  11.666  10.018  0.2276  0.0237 -0.0537
  334loPI   C1A 5335  17.127  11.222  10.019 -0.0408  0.0209 -0.1563
  334loPI   C2A 5336  17.214  11.294   9.564  0.0569 -0.0173  0.1691
  334loPI   C3A 5337  17.211  11.358   9.142 -0.1205  0.1585  0.0126
  334loPI   C4A 5338  17.232  11.285   8.739 -0.2485  0.2768 -0.0529
  334loPI   C5A 5339  17.540  11.361   8.469 -0.2969  0.0575  0.1021
  334loPI   C6A 5340  17.745  11.671   8.243  0.2091 -0.2038  0.2215
  334loPI   C1B 5341  16.767  11.717   9.495 -0.1493 -0.1379  0.1392
  334loPI   C2B 5342  16.765  11.670   9.094  0.2971 -0.0260  0.0020
  334loPI   C3B 5343  16.823  11.615   8.721  0.0687  0.1268  0.0026
  334loPI   C4B 5344  16.906  11.743   8.288 -0.0146 -0.0359  0.0615
  335loPI    C1 5345   4.678   3.316  11.301 -0.0170 -0.1029 -0.0474
  335loPI    C2 5346   4.850   3.173  11.632 -0.0873  0.0220  0.0438
  335loPI    C3 5347   4.658   2.925  11.384  0.2151 -0.1182 -0.0557
  335loPI   PO4 5348   4.845   3.386  11.139 -0.1463  0.0415  0.4762
  335loPI   GL1 5349   4.760   3.533  10.687 -0.0272 -0.0451 -0.0491
  335loPI   GL2 5350   4.800   3.811  10.501  0.1075 -0.0823  0.1313
  335loPI   C1A 5351   4.741   3.411  10.234 -0.1024  0.0416 -0.1028
  335loPI   C2A 5352   4.852   3.400   9.840  0.3774  0.0543  0.0323
  335loPI   C3A 5353   4.823   3.384   9.415 -0.1355 -0.0868 -0.1990
  335loPI   C4A 5354   4.816   3.326   9.033  0.0437  0.0385 -0.2697
  335loPI   C5A 5355   4.866   3.494   8.661 -0.0414  0.0055  0.0144
  335loPI   C6A 5356   4.767   3.807   8.313  0.3683 -0.0569  0.1870
  335loPI   C1B 5357   4.935   3.908  10.111 -0.1997  0.0937  0.1386
  335loPI   C2B 5358   4.895   3.864   9.632 -0.3542  0.0417  0.0308
  335loPI   C3B 5359   4.880   3.989   9.164 -0.0775 -0.1139 -0.0005
  335loPI   C4B 5360   4.921   4.032   8.755 -0.3567 -0.1574 -0.1294
  336loPI    C1 5361  15.995  11.393  10.835 -0.1145  0.1875 -0.3854
  336loPI    C2 5362  16.001  11.789  10.782  0.0229  0.2415  0.0013
  336loPI    C3 5363  15.782  11.631  11.076  0.1562  0.0491 -0.0018
  336loPI   PO4 5364  15.999  11.256  10.597  0.1118  0.1090 -0.1646
  336loPI   GL1 5365  16.277  11.362  10.301 -0.0562 -0.0419  0.1587
  336loPI   GL2 5366  15.953  11.625  10.264 -0.3599  0.1258 -0.0473
  336loPI   C1A 5367  16.355  11.499   9.964 -0.1101  0.0542  0.0352
  336loPI   C2A 5368  16.304  11.421   9.586  0.0254 -0.0543 -0.0811
  336loPI   C3A 5369  16.355  11.438   9.128 -0.2015  0.2357  0.0011
  336loPI   C4A 5370  16.341  11.341   8.763 -0.0251  0.0381 -0.2786
  336loPI   C5A 5371  16.439  11.419   8.309  0.2674 -0.1876 -0.2918
  336loPI   C6A 5372  16.512  11.328   7.901  0.3120  0.5279 -0.1473
  336loPI   C1B 5373  15.976  11.736   9.887 -0.0041 -0.1039  0.1559
  336loPI   C2B 5374  15.967  11.776   9.481 -0.1910 -0.0181 -0.0255
  336loPI   C3B 5375  15.878  11.739   9.030  0.1321  0.1209 -0.2803
  336loPI   C4B 5376  16.014  11.653   8.647  0.0907  0.0281 -0.1490
  337loPI    C1 5377  10.165   3.440  10.838 -0.0028  0.1496  0.0568
  337loPI    C2 5378  10.551   3.402  10.741 -0.0458 -0.0490 -0.0423
  337loPI    C3 5379  10.432   3.703  10.976  0.1520  0.0787 -0.1031
  337loPI   PO4 5380  10.108   3.357  10.547 -0.0060  0.2067  0.2214
  337loPI   GL1 5381  10.028   2.788  10.380 -0.3198 -0.0040  0.4426
  337loPI   GL2 5382  10.119   2.619  10.388  0.1863 -0.2870 -0.2025
  337loPI   C1A 5383   9.718   2.795  10.124  0.2702 -0.1495  0.1748
  337loPI   C2A 5384   9.660   2.746   9.697  0.3942 -0.0263  0.1298
  337loPI   C3A 5385   9.624   2.737   9.273 -0.1685 -0.4773 -0.0842
  337loPI   C4A 5386   9.795   2.763   8.924  0.2088  0.3259  0.1747
  337loPI   C5A 5387   9.678   2.733   8.561  0.0334 -0.1919  0.1364
  337loPI   C6A 5388   9.587   2.955   8.316 -0.0391  0.1446  0.1235
  337loPI   C1B 5389  10.069   2.456   9.923 -0.0912  0.2380 -0.2037
  337loPI   C2B 5390  10.027   2.419   9.452  0.3157 -0.0365  0.0948
  337loPI   C3B 5391  10.187   2.429   8.997  0.0524  0.0158 -0.1157
  337loPI   C4B 5392  10.077   2.433   8.499  0.1169 -0.1947 -0.1965
  338loPI    C1 5393  15.093   4.259  11.320  0.0274 -0.1242 -0.0328
  338loPI    C2 5394  15.329   3.994  11.505  0.0573 -0.0874 -0.0182
  338loPI    C3 5395  15.114   4.254  11.719  0.1186 -0.0218 -0.0358
  338loPI   PO4 5396  15.247   4.378  11.151  0.1665 -0.1827 -0.0956
  338loPI   GL1 5397  15.360   4.404  10.731  0.1284 -0.1583 -0.0771
  338loPI   GL2 5398  15.200   4.118  10.569  0.2545 -0.1282  0.0923
  338loPI   C1A 5399  15.598   4.314  10.337  0.1029  0.1959  0.2890
  338loPI   C2A 5400  15.638   4.235   9.947 -0.2807 -0.1048  0.0514
  338loPI   C3A 5401  15.682   4.139   9.625 -0.0009 -0.1327  0.3292
  338loPI   C4A 5402  15.643   4.235   9.213 -0.1345  0.2481 -0.3003
  338loPI   C5A 5403  15.688   4.358   8.834 -0.1927 -0.0763 -0.0390
  338loPI   C6A 5404  15.538   4.179   8.504 -0.0315 -0.4303 -0.1586
  338loPI   C1B 5405  15.131   4.030  10.160 -0.1938 -0.2077  0.4191
  338loPI   C2B 5406  15.166   4.050   9.719 -0.0954  0.1383 -0.1396
  338loPI   C3B 5407  15.201   4.048   9.285 -0.0584  0.0514  0.0767
  338loPI   C4B 5408  15.150   4.147   8.817  0.1056 -0.2036 -0.2361
  339loPI    C1 5409   2.439  11.641  11.400 -0.1131  0.0852 -0.0205
  339loPI    C2 5410   2.586  11.633  11.772  0.1261 -0.0882 -0.1169
  339loPI    C3 5411   2.233  11.463  11.693  0.0055  0.0773  0.0587
  339loPI   PO4 5412   2.574  11.641  11.224  0.0825  0.0993 -0.0979
  339loPI   GL1 5413   2.694  11.908  10.799  0.2115  0.1421 -0.2357
  339loPI   GL2 5414   2.886  12.183  10.754  0.0249  0.2080 -0.1549
  339loPI   C1A 5415   2.450  11.957  10.436 -0.1851 -0.1365  0.0592
  339loPI   C2A 5416   2.432  12.050   9.958  0.2051 -0.0207 -0.0192
  339loPI   C3A 5417   2.400  12.098   9.529 -0.1015 -0.1276  0.5524
  339loPI   C4A 5418   2.420  12.080   9.039 -0.1305  0.1552  0.0003
  339loPI   C5A 5419   2.391  12.134   8.641 -0.3130 -0.1193 -0.0135
  339loPI   C6A 5420   2.506  12.416   8.335 -0.1371  0.0760 -0.1965
  339loPI   C1B 5421   2.867  12.169  10.300  0.1850 -0.0201 -0.3252
  339loPI   C2B 5422   2.861  12.201   9.823 -0.1065 -0.0039  0.1838
  339loPI   C3B 5423   2.860  12.269   9.352 -0.1466 -0.2333 -0.1400
  339loPI   C4B 5424   2.923  12.271   8.897 -0.1817  0.0328  0.0697
  340loPI    C1 5425  15.743  15.817  11.502  0.3912  0.1694 -0.0358
  340loPI    C2 5426  15.697  16.203  11.599 -0.0119  0.0836  0.1375
  340loPI    C3 5427  15.724  15.927  11.886  0.2950 -0.0200  0.0143
  340loPI   PO4 5428  15.648  15.802  11.216  0.0384  0.2860  0.2389
  340loPI   GL1 5429  15.543  15.431  10.965  0.0115  0.0830 -0.1677
  340loPI   GL2 5430  15.347  15.323  10.882  0.2586 -0.0666  0.2640
  340loPI   C1A 5431  15.609  15.487  10.560  0.0691  0.0103  0.1703
  340loPI   C2A 5432  15.621  15.548  10.159  0.4499 -0.2713 -0.1281
  340loPI   C3A 5433  15.615  15.561   9.698 -0.0329  0.0839  0.1532
  340loPI   C4A 5434  15.586  15.599   9.226  0.1281 -0.0922  0.0727
  340loPI   C5A 5435  15.536  15.576   8.846 -0.0942 -0.0523  0.0206
  340loPI   C6A 5436  15.752  15.391   8.525  0.2422  0.1195 -0.0080
  340loPI   C1B 5437  15.163  15.222  10.548  0.1376 -0.1861  0.0479
  340loPI   C2B 5438  15.095  15.308  10.107 -0.3460  0.1047 -0.2320
  340loPI   C3B 5439  15.132  15.337   9.781  0.1740 -0.2313  0.0200
  340loPI   C4B 5440  15.058  15.392   9.330  0.0950  0.1553 -0.0927
  341loPI    C1 5441   2.779   9.290  10.881  0.0925 -0.1335 -0.1180
  341loPI    C2 5442   2.451   9.326  11.107  0.2367  0.3317  0.0281
  341loPI    C3 5443   2.797   9.214  11.273  0.1851 -0.0311 -0.1016
  341loPI   PO4 5444   2.636   9.257  10.622  0.1279  0.0236  0.3677
  341loPI   GL1 5445   2.581   8.912  10.250 -0.3508 -0.2525  0.0942
  341loPI   GL2 5446   2.364   8.928   9.943  0.0115 -0.2235  0.0775
  341loPI   C1A 5447   2.804   9.148   9.869 -0.0643 -0.0378 -0.0246
  341loPI   C2A 5448   2.973   9.138   9.456  0.1595  0.0049  0.1409
  341loPI   C3A 5449   3.045   9.034   9.012  0.2006  0.3326 -0.0429
  341loPI   C4A 5450   3.090   8.994   8.528 -0.2778 -0.0560  0.0761
  341loPI   C5A 5451   3.161   9.098   8.216 -0.1029 -0.3552 -0.0788
  341loPI   C6A 5452   3.000   9.188   7.767  0.0084 -0.1811 -0.1678
  341loPI   C1B 5453   2.523   8.852   9.540  0.1754 -0.1750 -0.0146
  341loPI   C2B 5454   2.465   8.883   9.229  0.0162  0.1548  0.1927
  341loPI   C3B 5455   2.433   8.848   8.763  0.1063 -0.2736 -0.0174
  341loPI   C4B 5456   2.315   8.747   8.368  0.0178  0.1472  0.1308
  342loPI    C1 5457  16.742  13.932  11.380 -0.0605  0.1169 -0.0261
  342loPI    C2 5458  16.917  13.818  11.721  0.1880 -0.0097 -0.1922
  342loPI    C3 5459  16.518  13.836  11.697  0.1680 -0.0167  0.0975
  342loPI   PO4 5460  16.901  13.751  11.104  0.1109  0.0209 -0.1279
  342loPI   GL1 5461  17.005  13.846  10.642  0.2303 -0.0630  0.0721
  342loPI   GL2 5462  16.710  13.941  10.585 -0.1438 -0.0183  0.0613
  342loPI   C1A 5463  17.114  13.710  10.238  0.4262  0.1360  0.2381
  342loPI   C2A 5464  17.089  13.767   9.758  0.1650 -0.2971 -0.0028
  342loPI   C3A 5465  17.166  13.728   9.281 -0.0459 -0.0021 -0.0860
  342loPI   C4A 5466  17.030  13.594   8.870 -0.0719  0.0353 -0.0758
  342loPI   C5A 5467  16.899  13.625   8.455 -0.1530 -0.2307  0.3160
  342loPI   C6A 5468  16.758  13.210   8.195 -0.1837 -0.1509  0.0054
  342loPI   C1B 5469  16.704  14.056  10.147  0.1351 -0.1574  0.0101
  342loPI   C2B 5470  16.733  14.133   9.761 -0.0007  0.1182 -0.0178
  342loPI   C3B 5471  16.719  13.971   9.404 -0.0315 -0.1238  0.0046
  342loPI   C4B 5472  16.709  13.935   9.034 -0.0495  0.0315 -0.1015
  343loPI    C1 5473   7.551  12.074  11.292 -0.1408  0.0780 -0.0311
  343loPI    C2 5474   7.695  12.040  11.664  0.1469  0.0357 -0.1441
  343loPI    C3 5475   7.301  12.061  11.604  0.1118  0.5252  0.2018
  343loPI   PO4 5476   7.755  12.330  11.172 -0.0106  0.0167 -0.0864
  343loPI   GL1 5477   7.798  12.354  10.730  0.0409  0.1768 -0.2212
  343loPI   GL2 5478   8.145  12.342  10.706 -0.2153 -0.1706 -0.1725
  343loPI   C1A 5479   7.819  12.574  10.291 -0.3356  0.0121  0.2367
  343loPI   C2A 5480   7.785  12.626   9.887 -0.1800  0.0189 -0.0954
  343loPI   C3A 5481   7.857  12.548   9.463  0.0125 -0.1623 -0.0625
  343loPI   C4A 5482   7.808  12.742   9.096  0.3275 -0.1970  0.1977
  343loPI   C5A 5483   7.672  12.855   8.583  0.3186 -0.1388  0.1769
  343loPI   C6A 5484   7.712  13.229   8.311  0.2250  0.0251  0.0864
  343loPI   C1B 5485   8.172  12.188  10.282  0.1379 -0.0668 -0.0061
  343loPI   C2B 5486   8.194  12.296   9.839 -0.0671 -0.1473 -0.2960
  343loPI   C3B 5487   8.248  12.300   9.362 -0.0006  0.2133 -0.0687
  343loPI   C4B 5488   8.007  12.325   8.976 -0.4186  0.1485  0.5465
  344loPI    C1 5489   7.680   7.800  10.868 -0.1974 -0.0128 -0.0267
  344loPI    C2 5490   7.653   7.420  10.743  0.0167 -0.0377 -0.0014
  344loPI    C3 5491   7.362   7.578  10.968 -0.1063 -0.1645 -0.0698
  344loPI   PO4 5492   7.703   7.945  10.644  0.1225  0.1174 -0.1468
  344loPI   GL1 5493   7.491   8.022  10.289 -0.0858  0.0731  0.2066
  344loPI   GL2 5494   7.503   7.695  10.242  0.0331 -0.0217  0.0661
  344loPI   C1A 5495   7.600   8.214   9.915 -0.1045 -0.0402 -0.0034
  344loPI   C2A 5496   7.463   8.178   9.560 -0.0657  0.0220  0.0862
  344loPI   C3A 5497   7.539   8.301   9.176  0.2403  0.2053  0.0516
  344loPI   C4A 5498   7.626   8.279   8.761  0.1596  0.1617 -0.3659
  344loPI   C5A 5499   7.430   8.129   8.499  0.4964  0.0058 -0.1852
  344loPI   C6A 5500   7.638   7.824   8.348 -0.4756 -0.2097  0.1933
  344loPI   C1B 5501   7.474   7.732   9.831 -0.1201 -0.3386  0.2406
  344loPI   C2B 5502   7.457   7.691   9.400 -0.0073  0.0794 -0.1349
  344loPI   C3B 5503   7.443   7.830   9.006  0.1434 -0.0606 -0.2210
  344loPI   C4B 5504   7.271   7.606   8.654  0.0178 -0.1442  0.0706
  345loPI    C1 5505   3.516   6.643  10.845  0.1282  0.1679 -0.0269
  345loPI    C2 5506   3.667   6.906  11.105 -0.0848  0.2206  0.0451
  345loPI    C3 5507   3.419   6.618  11.232  0.0076  0.0928 -0.0611
  345loPI   PO4 5508   3.541   6.683  10.706 -0.0748 -0.1457  0.0343
  345loPI   GL1 5509   3.385   6.453  10.406 -0.2736  0.1423 -0.1858
  345loPI   GL2 5510   3.564   6.099  10.304 -0.0487  0.0752 -0.1473
  345loPI   C1A 5511   3.164   6.381  10.128  0.1545  0.4591  0.0612
  345loPI   C2A 5512   3.312   6.223   9.764 -0.0110  0.0359  0.0528
  345loPI   C3A 5513   3.355   6.196   9.373  0.0553 -0.0606  0.1585
  345loPI   C4A 5514   3.462   6.268   8.873 -0.0309 -0.2909  0.3303
  345loPI   C5A 5515   3.718   6.315   8.440 -0.0932 -0.1104  0.0276
  345loPI   C6A 5516   4.147   6.079   8.233  0.0034  0.0024  0.1972
  345loPI   C1B 5517   3.756   5.846  10.008  0.1876  0.1939 -0.1709
  345loPI   C2B 5518   3.877   5.852   9.696  0.2393  0.2207  0.0442
  345loPI   C3B 5519   3.943   5.907   9.191  0.0261  0.1728  0.0736
  345loPI   C4B 5520   3.797   5.903   8.741  0.1604  0.0451  0.1148
  346loPI    C1 5521   9.261  11.653  11.075 -0.0300  0.0777 -0.1445
  346loPI    C2 5522   9.061  11.614  11.419 -0.0386 -0.0572 -0.1640
  346loPI    C3 5523   9.345  11.894  11.383 -0.2529  0.1654 -0.1504
  346loPI   PO4 5524   9.274  11.391  10.996  0.0016  0.0559  0.2367
  346loPI   GL1 5525   8.997  11.202  10.668  0.1101  0.0134 -0.1864
  346loPI   GL2 5526   9.005  11.537  10.535 -0.0465 -0.5055  0.0385
  346loPI   C1A 5527   9.019  11.125  10.262  0.1140  0.2849 -0.0949
  346loPI   C2A 5528   8.930  11.123   9.830  0.2835  0.0708 -0.0130
  346loPI   C3A 5529   8.935  11.098   9.401 -0.1428  0.1159 -0.1713
  346loPI   C4A 5530   8.857  11.187   8.948  0.1554 -0.0439  0.1261
  346loPI   C5A 5531   8.761  11.086   8.497  0.0799 -0.0999 -0.0200
  346loPI   C6A 5532   8.601  11.151   8.115 -0.0460  0.2581  0.1276
  346loPI   C1B 5533   8.941  11.668  10.092 -0.3080  0.0608  0.0310
  346loPI   C2B 5534   9.031  11.586   9.604 -0.1657 -0.4010 -0.2460
  346loPI   C3B 5535   8.920  11.642   9.163 -0.0466 -0.0460  0.1304
  346loPI   C4B 5536   9.037  11.642   8.813  0.0734  0.3805 -0.0314
  347loPI    C1 5537  15.468  16.583  11.338 -0.1179 -0.0532  0.0367
  347loPI    C2 5538  15.211  16.501  11.633 -0.1574 -0.1813 -0.0322
  347loPI    C3 5539  15.180  16.845  11.431 -0.1550 -0.1111  0.0859
  347loPI   PO4 5540  15.464  16.323  11.143  0.1443 -0.0007 -0.1110
  347loPI   GL1 5541  15.636  16.128  10.828 -0.0007 -0.0593  0.1012
  347loPI   GL2 5542  15.465  15.913  10.756  0.1392  0.1579  0.0406
  347loPI   C1A 5543  15.769  16.526  10.551  0.1360 -0.2409  0.1142
  347loPI   C2A 5544  15.792  16.641  10.101  0.0878 -0.2589  0.3989
  347loPI   C3A 5545  15.776  16.577   9.632  0.0078  0.1176  0.0022
  347loPI   C4A 5546  15.715  16.527   9.273  0.2726 -0.1434 -0.1517
  347loPI   C5A 5547  15.774  16.708   8.855 -0.1343  0.1605 -0.0386
  347loPI   C6A 5548  15.865  17.121   8.574 -0.0685  0.0548  0.3722
  347loPI   C1B 5549  15.701  16.029  10.354  0.1425 -0.1302  0.1605
  347loPI   C2B 5550  15.788  16.072   9.919  0.3549 -0.1770 -0.0563
  347loPI   C3B 5551  15.744  16.087   9.537 -0.0637 -0.0698  0.1094
  347loPI   C4B 5552  15.585  16.071   9.047 -0.1520 -0.2419 -0.1103
  348loPI    C1 5553   0.725  14.423  11.672  0.0241 -0.0917  0.0136
  348loPI    C2 5554   0.790  14.172  11.977  0.0179  0.0715  0.1501
  348loPI    C3 5555   1.003  14.509  11.946  0.2914 -0.1302 -0.2414
  348loPI   PO4 5556   0.760  14.291  11.477 -0.0779  0.2834 -0.0605
  348loPI   GL1 5557   0.774  14.354  10.997  0.0994  0.4137  0.1801
  348loPI   GL2 5558   0.974  14.354  10.769  0.2155 -0.2283 -0.0668
  348loPI   C1A 5559   0.471  14.249  10.673 -0.0898  0.0095  0.2477
  348loPI   C2A 5560   0.393  14.195  10.225  0.0007 -0.1765  0.1257
  348loPI   C3A 5561   0.411  14.140   9.782 -0.1134 -0.1515 -0.1759
  348loPI   C4A 5562   0.459  14.068   9.336 -0.4204 -0.4037 -0.0087
  348loPI   C5A 5563   0.456  14.139   8.892  0.1546 -0.1534  0.2047
  348loPI   C6A 5564   0.456  14.480   8.696  0.0420  0.0382  0.1143
  348loPI   C1B 5565   0.860  14.342  10.308  0.1482  0.0275 -0.0271
  348loPI   C2B 5566   0.897  14.350   9.881 -0.2232 -0.6551  0.2103
  348loPI   C3B 5567   0.912  14.311   9.475  0.1826 -0.1351  0.0710
  348loPI   C4B 5568   0.966  14.283   9.001 -0.0479  0.0264  0.1684
  349loPI    C1 5569  16.750  17.648  11.654 -0.0259  0.1395  0.1248
  349loPI    C2 5570  16.438  17.840  11.814 -0.1996  0.0065 -0.0492
  349loPI    C3 5571  16.655  17.590  12.039 -0.1433  0.1902  0.1037
  349loPI   PO4 5572  16.559  17.575  11.355 -0.0384 -0.2016  0.0666
  349loPI   GL1 5573  16.460  17.539  10.941 -0.0820  0.1656 -0.0092
  349loPI   GL2 5574  16.746  17.666  10.843 -0.0989 -0.0080  0.3831
  349loPI   C1A 5575  16.242  17.396  10.603  0.0964  0.0104  0.3646
  349loPI   C2A 5576  16.330  17.270  10.128 -0.2338  0.0252  0.1059
  349loPI   C3A 5577  16.309  17.261   9.648  0.0323 -0.1737  0.0282
  349loPI   C4A 5578  16.331  17.177   9.246  0.1532  0.2486  0.2330
  349loPI   C5A 5579  16.320  17.258   8.849  0.1511 -0.1534 -0.1718
  349loPI   C6A 5580  16.541  17.586   8.604  0.0512  0.1046  0.0987
  349loPI   C1B 5581  16.713  17.531  10.407  0.0890  0.1309 -0.4053
  349loPI   C2B 5582  16.789  17.521   9.946 -0.1724 -0.0328 -0.1106
  349loPI   C3B 5583  16.706  17.487   9.518 -0.2284  0.1230  0.0377
  349loPI   C4B 5584  16.830  17.507   9.137  0.0970  0.0812 -0.3426
  350loPI    C1 5585   5.053   7.099  11.083  0.1836  0.0311 -0.0341
  350loPI    C2 5586   5.186   7.474  11.045  0.0345  0.1018  0.1326
  350loPI    C3 5587   4.853   7.399  11.254  0.0228 -0.1156  0.0388
  350loPI   PO4 5588   5.052   6.888  10.878  0.1429 -0.1681 -0.0097
  350loPI   GL1 5589   4.900   6.979  10.506  0.1266  0.1065  0.3644
  350loPI   GL2 5590   4.982   6.758  10.406  0.1123  0.1322  0.0096
  350loPI   C1A 5591   4.992   7.194  10.164  0.0816 -0.1053 -0.0496
  350loPI   C2A 5592   5.110   7.261   9.743 -0.0080  0.2357  0.4964
  350loPI   C3A 5593   5.104   7.266   9.265 -0.0833 -0.2357 -0.1595
  350loPI   C4A 5594   4.985   7.353   8.873 -0.0246 -0.3023 -0.2306
  350loPI   C5A 5595   4.971   7.331   8.424  0.1403  0.0719  0.1275
  350loPI   C6A 5596   5.059   7.518   8.018 -0.0154  0.0852  0.1209
  350loPI   C1B 5597   4.942   6.788   9.947 -0.0604  0.2094  0.4069
  350loPI   C2B 5598   4.876   6.854   9.510 -0.1685  0.2347  0.2598
  350loPI   C3B 5599   4.885   6.767   9.048 -0.1550  0.3103 -0.0709
  350loPI   C4B 5600   4.949   6.775   8.537  0.0032 -0.2142 -0.0723
  351loPI    C1 5601  14.510  10.402  10.839  0.0468  0.0922 -0.1587
  351loPI    C2 5602  14.491  10.318  11.230 -0.1383  0.0275 -0.1804
  351loPI    C3 5603  14.846  10.361  11.051 -0.0500 -0.1186 -0.0423
  351loPI   PO4 5604  14.383  10.541  10.794  0.1770  0.1384 -0.1284
  351loPI   GL1 5605  14.088  10.707  10.499 -0.1522 -0.1838  0.0111
  351loPI   GL2 5606  13.947  10.460  10.307  0.0919 -0.4262  0.1473
  351loPI   C1A 5607  14.247  10.823  10.103 -0.0985  0.0407 -0.1329
  351loPI   C2A 5608  14.329  10.744   9.691  0.0157 -0.4942  0.1468
  351loPI   C3A 5609  14.293  10.664   9.240 -0.0478  0.0655 -0.0954
  351loPI   C4A 5610  14.387  10.660   8.784  0.2076  0.3286  0.1543
  351loPI   C5A 5611  14.374  10.573   8.335 -0.2070 -0.2230 -0.1392
  351loPI   C6A 5612  14.325  10.331   7.893 -0.1923 -0.0529  0.0118
  351loPI   C1B 5613  13.855  10.656   9.897 -0.0266 -0.4330 -0.0846
  351loPI   C2B 5614  13.843  10.516   9.526  0.0308 -0.1832 -0.1479
  351loPI   C3B 5615  13.839  10.406   9.157 -0.1436 -0.1950 -0.0847
  351loPI   C4B 5616  13.790  10.435   8.745 -0.1122 -0.2583 -0.0404
  352loPI    C1 5617  17.028  17.171  11.601  0.1862  0.0106 -0.0600
  352loPI    C2 5618  17.219  17.490  11.749  0.0684  0.0292  0.0535
  352loPI    C3 5619  17.035  17.235  11.996 -0.0974  0.0397 -0.0577
  352loPI   PO4 5620  17.189  17.078  11.398  0.1135  0.2331 -0.2127
  352loPI   GL1 5621  17.203  16.875  11.045 -0.2297  0.1894  0.0097
  352loPI   GL2 5622  17.155  17.241  10.914  0.1097  0.2253 -0.2034
  352loPI   C1A 5623  17.078  16.755  10.586  0.1037  0.2441  0.0620
  352loPI   C2A 5624  17.156  16.690  10.089 -0.1791 -0.0996  0.4900
  352loPI   C3A 5625  17.104  16.688   9.658 -0.1557 -0.1391 -0.1115
  352loPI   C4A 5626  17.183  16.648   9.206  0.2599 -0.1508  0.0064
  352loPI   C5A 5627  16.920  16.548   8.853  0.0756  0.0495  0.0577
  352loPI   C6A 5628  16.525  16.308   8.703  0.0834  0.2333  0.0391
  352loPI   C1B 5629  17.173  17.227  10.472 -0.0065 -0.0607 -0.2293
  352loPI   C2B 5630  17.189  17.210   9.988 -0.1547  0.3822 -0.0183
  352loPI   C3B 5631  17.197  17.223   9.587 -0.2640  0.1771  0.2305
  352loPI   C4B 5632  17.195  17.143   9.250  0.0804  0.1220  0.0742
  353loPI    C1 5633   5.625   3.496  11.255 -0.0338  0.0721  0.3000
  353loPI    C2 5634   5.315   3.378  11.031  0.2362 -0.0510 -0.0184
  353loPI    C3 5635   5.268   3.438  11.424 -0.1418 -0.2586 -0.0279
  353loPI   PO4 5636   5.664   3.682  11.174 -0.0156 -0.2919  0.2232
  353loPI   GL1 5637   5.477   3.872  10.712 -0.1660 -0.3189  0.0681
  353loPI   GL2 5638   5.271   3.669  10.611 -0.0603  0.2076  0.0996
  353loPI   C1A 5639   5.736   3.783  10.352 -0.2316  0.0071  0.0025
  353loPI   C2A 5640   5.811   3.796   9.879  0.2594  0.0073 -0.1566
  353loPI   C3A 5641   5.753   3.744   9.425  0.1050 -0.0618 -0.0488
  353loPI   C4A 5642   5.798   3.712   8.947  0.4974  0.2653 -0.1198
  353loPI   C5A 5643   5.789   3.880   8.549 -0.1820 -0.2253  0.1406
  353loPI   C6A 5644   5.729   4.055   8.120 -0.0328 -0.0076  0.3257
  353loPI   C1B 5645   5.323   3.605  10.159  0.0775 -0.0169  0.1698
  353loPI   C2B 5646   5.307   3.571   9.652  0.3313  0.0980 -0.3281
  353loPI   C3B 5647   5.247   3.565   9.191  0.2601  0.0284 -0.1923
  353loPI   C4B 5648   5.262   3.692   8.811  0.2050 -0.1083  0.3132
  354loPI    C1 5649   9.563  16.045  11.498  0.1587  0.2188  0.0814
  354loPI    C2 5650   9.333  15.837  11.751  0.1580  0.1922  0.0588
  354loPI    C3 5651   9.650  16.038  11.888  0.0581  0.3182  0.1060
  354loPI   PO4 5652   9.568  15.873  11.263  0.1242 -0.1114 -0.3605
  354loPI   GL1 5653   9.643  15.987  10.768  0.0207  0.3417  0.0173
  354loPI   GL2 5654   9.569  15.714  10.511 -0.1618 -0.1089  0.0088
  354loPI   C1A 5655   9.686  16.273  10.383 -0.1619  0.3032  0.0023
  354loPI   C2A 5656   9.468  16.455   9.925 -0.0531  0.1756  0.1667
  354loPI   C3A 5657   9.506  16.483   9.450 -0.0181  0.0346 -0.0086
  354loPI   C4A 5658   9.439  16.716   9.091 -0.1339  0.1318 -0.1224
  354loPI   C5A 5659   9.434  16.582   8.733  0.0948  0.0676 -0.0846
  354loPI   C6A 5660   9.669  16.305   8.610 -0.2428  0.1315  0.2066
  354loPI   C1B 5661   9.723  15.875  10.144 -0.1242  0.1996  0.2379
  354loPI   C2B 5662   9.852  15.635   9.817  0.0722 -0.0898 -0.1708
  354loPI   C3B 5663   9.711  15.652   9.357 -0.1625  0.1070  0.0531
  354loPI   C4B 5664   9.762  15.757   8.998  0.0244  0.1831 -0.3670
  355loPI    C1 5665   4.828   4.332  11.300 -0.1259  0.0605  0.0984
  355loPI    C2 5666   5.068   4.307  11.619 -0.1450 -0.0010  0.1081
  355loPI    C3 5667   4.682   4.399  11.667 -0.1522 -0.0293  0.1044
  355loPI   PO4 5668   4.887   4.491  11.082  0.0805  0.1090 -0.0220
  355loPI   GL1 5669   5.008   4.461  10.534 -0.2803 -0.5800  0.0079
  355loPI   GL2 5670   5.073   4.166  10.620  0.2309 -0.2340 -0.0851
  355loPI   C1A 5671   4.934   4.413  10.141  0.4228  0.0937  0.2073
  355loPI   C2A 5672   5.051   4.471   9.736  0.2139  0.1997 -0.0070
  355loPI   C3A 5673   4.966   4.474   9.282 -0.0940  0.0504  0.0556
  355loPI   C4A 5674   5.109   4.441   8.917  0.0173 -0.0705 -0.2173
  355loPI   C5A 5675   5.116   4.649   8.459  0.0711  0.0108 -0.3364
  355loPI   C6A 5676   4.892   4.926   8.281  0.0384  0.0416  0.2515
  355loPI   C1B 5677   5.341   4.105  10.308 -0.0653  0.4609 -0.0825
  355loPI   C2B 5678   5.383   4.038   9.818 -0.0317 -0.1317  0.2480
  355loPI   C3B 5679   5.329   4.089   9.373 -0.0860 -0.2874  0.0652
  355loPI   C4B 5680   5.402   4.092   9.027 -0.0025  0.0147  0.0075
  356loPI    C1 5681  14.601   9.896  10.835  0.0599 -0.1703 -0.0339
  356loPI    C2 5682  14.519   9.594  11.084  0.0116  0.0872  0.2697
  356loPI    C3 5683  14.738   9.903  11.211 -0.2019  0.3286  0.0611
  356loPI   PO4 5684  14.649   9.801  10.618  0.0779  0.0232  0.1296
  356loPI   GL1 5685  14.414   9.675  10.340  0.3040  0.0418  0.2330
  356loPI   GL2 5686  14.661   9.777  10.115  0.1330  0.1410  0.0207
  356loPI   C1A 5687  14.263   9.563   9.943  0.1511  0.0337  0.0646
  356loPI   C2A 5688  14.159   9.582   9.549 -0.2698  0.2363  0.1288
  356loPI   C3A 5689  14.338   9.658   9.117 -0.0762 -0.0084 -0.0980
  356loPI   C4A 5690  14.302   9.608   8.681 -0.1997  0.2202 -0.1218
  356loPI   C5A 5691  14.269   9.473   8.277  0.2815 -0.1192  0.2697
  356loPI   C6A 5692  14.568   9.415   7.883 -0.1510  0.2095 -0.0864
  356loPI   C1B 5693  14.774   9.825   9.716  0.0799 -0.1566 -0.2157
  356loPI   C2B 5694  14.746   9.773   9.344 -0.1831 -0.0001  0.2024
  356loPI   C3B 5695  14.785   9.778   8.876 -0.1850 -0.0248  0.3451
  356loPI   C4B 5696  14.744   9.781   8.494  0.1791  0.2911  0.0053
  357loPI    C1 5697  12.208  11.369  10.934 -0.3282  0.2480  0.1484
  357loPI    C2 5698  11.922  11.093  10.978 -0.0444 -0.0718  0.0264
  357loPI    C3 5699  12.139  11.209  11.294  0.0619 -0.2403  0.0168
  357loPI   PO4 5700  12.199  11.394  10.670  0.1741 -0.0675  0.0883
  357loPI   GL1 5701  11.956  11.264  10.374 -0.1296  0.1508  0.0261
  357loPI   GL2 5702  11.683  11.031  10.476 -0.1982 -0.2515  0.0893
  357loPI   C1A 5703  12.176  11.331  10.002 -0.1248  0.2359  0.0003
  357loPI   C2A 5704  12.072  11.361   9.514 -0.1977 -0.2314  0.2025
  357loPI   C3A 5705  12.089  11.311   9.061 -0.1871 -0.2932  0.2438
  357loPI   C4A 5706  12.107  11.431   8.614 -0.1183  0.1624  0.1602
  357loPI   C5A 5707  12.179  11.036   8.256 -0.3949 -0.0613 -0.3282
  357loPI   C6A 5708  12.566  10.892   8.247  0.2103  0.0341 -0.0588
  357loPI   C1B 5709  11.633  11.128  10.068 -0.1259  0.1519  0.3060
  357loPI   C2B 5710  11.604  11.139   9.575  0.1041 -0.1603 -0.0443
  357loPI   C3B 5711  11.636  11.153   9.170 -0.1062  0.0810  0.1247
  357loPI   C4B 5712  11.583  11.120   8.689  0.0481  0.1107 -0.1203
  358loPI    C1 5713  12.029   0.682  11.277 -0.0010  0.2050 -0.2170
  358loPI    C2 5714  11.679   0.490  11.255  0.0834  0.0501 -0.2234
  358loPI    C3 5715  11.716   0.813  11.489 -0.0059 -0.0595 -0.0560
  358loPI   PO4 5716  12.154   0.631  10.970 -0.2667  0.1672 -0.0221
  358loPI   GL1 5717  12.332   0.733  10.575  0.0719  0.0543  0.0800
  358loPI   GL2 5718  12.032   0.658  10.483 -0.1227 -0.0386 -0.3387
  358loPI   C1A 5719  12.468   0.459  10.236 -0.3551  0.0705  0.0738
  358loPI   C2A 5720  12.384   0.476   9.834 -0.4025 -0.1903 -0.0500
  358loPI   C3A 5721  12.401   0.576   9.363  0.3510 -0.0451 -0.3101
  358loPI   C4A 5722  12.401   0.621   8.928  0.0490 -0.1290 -0.1087
  358loPI   C5A 5723  12.223   0.765   8.565  0.2258 -0.0894  0.1133
  358loPI   C6A 5724  11.847   1.036   8.333 -0.1031  0.0195  0.3274
  358loPI   C1B 5725  12.015   0.736  10.067  0.4236  0.0455  0.0538
  358loPI   C2B 5726  12.060   0.859   9.702  0.2350  0.0386 -0.2433
  358loPI   C3B 5727  11.988   0.813   9.354 -0.0927  0.0983  0.1125
  358loPI   C4B 5728  11.862   0.797   8.918 -0.1973 -0.0386  0.2519
  359loPI    C1 5729  15.719  17.413  11.727  0.0967 -0.0381 -0.0192
  359loPI    C2 5730  16.116  17.446  11.760  0.0891  0.2403 -0.1728
  359loPI    C3 5731  15.886  17.465  12.087  0.2061 -0.0176 -0.0724
  359loPI   PO4 5732  15.651  17.596  11.549  0.2615  0.1737 -0.0503
  359loPI   GL1 5733  15.449  17.578  11.178 -0.1896 -0.3297 -0.0711
  359loPI   GL2 5734  15.646  17.805  11.102  0.2369 -0.1403 -0.1251
  359loPI   C1A 5735  15.401  17.416  10.812 -0.1807 -0.0849 -0.0610
  359loPI   C2A 5736  15.407  17.439  10.368 -0.0187  0.1968 -0.2238
  359loPI   C3A 5737  15.469  17.460   9.888  0.2163  0.0970 -0.1526
  359loPI   C4A 5738  15.442  17.457   9.397  0.2016  0.0004 -0.0080
  359loPI   C5A 5739  15.179  17.582   8.934  0.1204  0.0224  0.0634
  359loPI   C6A 5740  15.005  17.934   8.870  0.2683  0.1200 -0.3363
  359loPI   C1B 5741  15.813  17.710  10.675  0.1459 -0.0226 -0.0453
  359loPI   C2B 5742  15.941  17.625  10.296 -0.0450 -0.0207  0.1312
  359loPI   C3B 5743  15.966  17.595   9.880  0.2306 -0.0735  0.0250
  359loPI   C4B 5744  15.912  17.626   9.483 -0.2431 -0.0480 -0.1260
  360loPI    C1 5745  14.426   0.819  11.329 -0.1828 -0.3008  0.1040
  360loPI    C2 5746  14.262   1.022  11.632  0.2039  0.0337  0.0982
  360loPI    C3 5747  14.504   0.713  11.707  0.0893 -0.0507  0.1220
  360loPI   PO4 5748  14.244   0.845  11.157 -0.0106 -0.1183  0.1610
  360loPI   GL1 5749  14.265   0.955  10.830  0.0239 -0.0211  0.3182
  360loPI   GL2 5750  14.564   1.011  10.740 -0.0614 -0.0992  0.1652
  360loPI   C1A 5751  14.105   0.722  10.334 -0.1003 -0.0605 -0.3307
  360loPI   C2A 5752  14.184   0.756   9.873 -0.0115 -0.0194 -0.0561
  360loPI   C3A 5753  14.281   0.737   9.480 -0.2173  0.2500 -0.1428
  360loPI   C4A 5754  14.176   0.739   9.038  0.4583  0.0088  0.1114
  360loPI   C5A 5755  13.902   0.432   8.758  0.1241  0.1139  0.2567
  360loPI   C6A 5756  13.840   0.449   8.303 -0.1901  0.0300  0.0851
  360loPI   C1B 5757  14.566   1.009  10.298  0.4336 -0.1752 -0.0600
  360loPI   C2B 5758  14.633   0.990   9.898 -0.0605 -0.0256 -0.0246
  360loPI   C3B 5759  14.718   0.933   9.489  0.0045 -0.0154  0.2631
  360loPI   C4B 5760  14.645   0.818   9.099 -0.1051  0.1045  0.0361
  361loPI    C1 5761  13.815  12.249  11.175 -0.1852  0.0983 -0.1070
  361loPI    C2 5762  13.560  12.129  11.458 -0.0502 -0.0752 -0.0569
  361loPI    C3 5763  13.893  12.326  11.559 -0.0764 -0.0047 -0.1076
  361loPI   PO4 5764  13.657  12.360  10.986 -0.1687 -0.3042 -0.0042
  361loPI   GL1 5765  13.716  12.199  10.587 -0.1128  0.4414  0.2858
  361loPI   GL2 5766  13.413  12.159  10.583  0.1068 -0.0339 -0.0268
  361loPI   C1A 5767  13.757  12.367  10.225 -0.4223 -0.0280 -0.0384
  361loPI   C2A 5768  13.768  12.433   9.905  0.2148  0.0627  0.0649
  361loPI   C3A 5769  13.779  12.407   9.481  0.3118 -0.2318 -0.0886
  361loPI   C4A 5770  13.681  12.331   9.050  0.0074 -0.0813  0.0212
  361loPI   C5A 5771  13.420  12.234   8.582 -0.0275  0.0082 -0.1020
  361loPI   C6A 5772  13.163  11.973   8.478  0.2874  0.1405 -0.0789
  361loPI   C1B 5773  13.208  12.225  10.219 -0.0747 -0.2679 -0.2281
  361loPI   C2B 5774  13.341  12.234   9.872  0.1404 -0.0745  0.0409
  361loPI   C3B 5775  13.248  12.228   9.405 -0.2037  0.1246  0.2534
  361loPI   C4B 5776  13.194  12.142   9.023 -0.1179 -0.0471  0.1993
  362loPI    C1 5777  12.781  11.106  10.830 -0.2289 -0.1538 -0.1157
  362loPI    C2 5778  12.627  11.018  11.189  0.1595  0.0658  0.1110
  362loPI    C3 5779  12.783  10.728  10.962  0.0536 -0.0516  0.1868
  362loPI   PO4 5780  12.751  11.347  10.760  0.1218 -0.1807 -0.0506
  362loPI   GL1 5781  12.778  11.592  10.458 -0.0310  0.2432 -0.0406
  362loPI   GL2 5782  13.078  11.660  10.390 -0.3212 -0.2737 -0.0533
  362loPI   C1A 5783  12.663  11.521  10.008  0.0823 -0.1195  0.0772
  362loPI   C2A 5784  12.611  11.540   9.654  0.0605 -0.0589  0.0225
  362loPI   C3A 5785  12.603  11.464   9.272  0.0109  0.0162  0.1536
  362loPI   C4A 5786  12.554  11.427   8.878  0.1851  0.0947  0.2434
  362loPI   C5A 5787  12.783  11.337   8.450 -0.2771  0.2884  0.1280
  362loPI   C6A 5788  13.224  11.054   8.382 -0.1670  0.0063  0.0851
  362loPI   C1B 5789  13.184  11.768  10.017 -0.0433  0.0254  0.0364
  362loPI   C2B 5790  13.212  11.765   9.649 -0.3216  0.1149  0.0328
  362loPI   C3B 5791  13.059  11.622   9.258  0.0804 -0.2317 -0.2692
  362loPI   C4B 5792  13.046  11.604   8.804  0.2006 -0.1328 -0.0650
  363loPI    C1 5793  16.198  13.996  11.371 -0.1498 -0.0468  0.1527
  363loPI    C2 5794  16.029  14.311  11.550 -0.2935 -0.1347  0.1729
  363loPI    C3 5795  15.832  13.963  11.529 -0.1102 -0.2415  0.2070
  363loPI   PO4 5796  16.302  14.091  11.096 -0.0173 -0.1167 -0.0339
  363loPI   GL1 5797  16.204  14.024  10.707 -0.1466  0.1139  0.1512
  363loPI   GL2 5798  15.889  14.054  10.619 -0.3070  0.1366 -0.1648
  363loPI   C1A 5799  16.301  13.864  10.315 -0.0131 -0.1663  0.0699
  363loPI   C2A 5800  16.330  13.902   9.900  0.4387  0.1430  0.0442
  363loPI   C3A 5801  16.141  13.866   9.533 -0.1016 -0.0978  0.1130
  363loPI   C4A 5802  16.104  13.807   9.051 -0.0051 -0.0663 -0.1072
  363loPI   C5A 5803  16.025  14.131   8.733  0.1826 -0.2243  0.3079
  363loPI   C6A 5804  16.082  14.496   8.440  0.0654 -0.0788  0.3192
  363loPI   C1B 5805  15.882  14.069  10.128  0.0928 -0.2767  0.1963
  363loPI   C2B 5806  15.813  14.136   9.702  0.0993 -0.3368 -0.0203
  363loPI   C3B 5807  15.795  14.208   9.198  0.1009 -0.1906  0.1362
  363loPI   C4B 5808  15.755  14.559   8.832  0.1423 -0.2173 -0.0769
  364loPI    C1 5809   6.713   2.306  11.540  0.1105  0.2017 -0.2362
  364loPI    C2 5810   7.013   2.319  11.803 -0.1322 -0.0422  0.0606
  364loPI    C3 5811   6.643   2.419  11.917 -0.2467 -0.1824 -0.1796
  364loPI   PO4 5812   6.788   2.435  11.353 -0.2168 -0.0336 -0.2163
  364loPI   GL1 5813   6.724   2.376  11.022  0.0740  0.3661  0.0233
  364loPI   GL2 5814   6.926   2.162  10.854  0.1275  0.0082 -0.0798
  364loPI   C1A 5815   6.481   2.541  10.551 -0.2490  0.0608  0.0916
  364loPI   C2A 5816   6.445   2.597  10.070 -0.0698  0.2357  0.0199
  364loPI   C3A 5817   6.418   2.558   9.663  0.2445  0.0133 -0.1858
  364loPI   C4A 5818   6.385   2.550   9.194 -0.3832  0.1478 -0.0857
  364loPI   C5A 5819   6.422   2.428   8.749 -0.0886 -0.0966  0.0356
  364loPI   C6A 5820   6.078   2.205   8.487  0.2378 -0.0412 -0.1970
  364loPI   C1B 5821   6.857   2.217  10.421 -0.5603 -0.0252 -0.0076
  364loPI   C2B 5822   6.826   2.241   9.975 -0.0804 -0.1780 -0.0091
  364loPI   C3B 5823   6.829   2.267   9.558 -0.1577  0.1919 -0.0212
  364loPI   C4B 5824   6.752   2.249   9.148  0.0404  0.1842 -0.1217
  365loPI    C1 5825  11.016   4.109  10.708  0.1494 -0.3682 -0.1913
  365loPI    C2 5826  10.774   3.822  10.571 -0.0891 -0.1602 -0.2128
  365loPI    C3 5827  10.931   3.793  10.937 -0.2866 -0.2146 -0.1307
  365loPI   PO4 5828  10.848   4.309  10.585 -0.3475 -0.2038  0.3173
  365loPI   GL1 5829  10.853   4.551  10.210  0.0059 -0.0321  0.1898
  365loPI   GL2 5830  11.126   4.593   9.980  0.0321  0.3649  0.0974
  365loPI   C1A 5831  10.694   4.387   9.797  0.1338  0.1668  0.1688
  365loPI   C2A 5832  10.558   4.548   9.396  0.2396  0.2607 -0.0450
  365loPI   C3A 5833  10.560   4.383   9.044 -0.1451 -0.0204  0.2000
  365loPI   C4A 5834  10.457   4.491   8.583  0.0723  0.0501  0.0309
  365loPI   C5A 5835  10.468   4.575   8.152 -0.2658  0.1476  0.0743
  365loPI   C6A 5836  10.129   4.841   7.972 -0.2576  0.5603 -0.1537
  365loPI   C1B 5837  11.074   4.615   9.580  0.2417 -0.0377  0.0519
  365loPI   C2B 5838  11.039   4.599   9.220  0.0334  0.0234 -0.1724
  365loPI   C3B 5839  11.021   4.643   8.739  0.0154  0.3571 -0.3891
  365loPI   C4B 5840  10.922   4.544   8.369  0.3239  0.2263  0.0735
  366loPI    C1 5841   2.569   8.104  10.615  0.0998  0.3390 -0.2429
  366loPI    C2 5842   2.868   7.965  10.841 -0.1392  0.1216 -0.0543
  366loPI    C3 5843   2.525   8.081  11.012 -0.4036 -0.2507 -0.3172
  366loPI   PO4 5844   2.646   8.291  10.509 -0.2277  0.1448 -0.1948
  366loPI   GL1 5845   2.557   8.445  10.137  0.1041  0.2476  0.1143
  366loPI   GL2 5846   2.263   8.475   9.925  0.2446 -0.1335  0.0027
  366loPI   C1A 5847   2.769   8.569   9.835  0.0354 -0.1572 -0.1013
  366loPI   C2A 5848   2.835   8.517   9.370  0.1775 -0.0897  0.0893
  366loPI   C3A 5849   2.823   8.592   8.929  0.2447 -0.1137  0.0192
  366loPI   C4A 5850   2.909   8.516   8.584  0.1997 -0.0622  0.0429
  366loPI   C5A 5851   2.983   8.559   8.149 -0.1290  0.1881  0.0072
  366loPI   C6A 5852   3.266   8.703   7.864 -0.0589  0.1880  0.1084
  366loPI   C1B 5853   2.376   8.358   9.627 -0.1143  0.1280  0.2236
  366loPI   C2B 5854   2.373   8.416   9.140  0.2020  0.0757 -0.1100
  366loPI   C3B 5855   2.345   8.376   8.753 -0.0105 -0.2236 -0.0570
  366loPI   C4B 5856   2.424   8.261   8.340  0.0398  0.1477  0.1534
  367loPI    C1 5857   1.170   4.398  10.867  0.1603 -0.1100 -0.2691
  367loPI    C2 5858   1.513   4.329  11.060 -0.0285  0.2899  0.2331
  367loPI    C3 5859   1.197   4.092  11.123  0.0815  0.0597 -0.0551
  367loPI   PO4 5860   1.204   4.312  10.586 -0.0698  0.0356  0.1477
  367loPI   GL1 5861   1.132   4.121  10.150 -0.0691 -0.2630 -0.1316
  367loPI   GL2 5862   1.197   3.822  10.382  0.1951  0.0055  0.1015
  367loPI   C1A 5863   1.130   4.038   9.758 -0.2647  0.0737  0.0701
  367loPI   C2A 5864   1.140   4.035   9.367 -0.1079  0.1433  0.1309
  367loPI   C3A 5865   1.236   4.046   8.844  0.2125 -0.1466  0.1662
  367loPI   C4A 5866   1.180   4.102   8.368  0.2211 -0.0915 -0.0246
  367loPI   C5A 5867   1.339   3.847   8.013 -0.0297 -0.3638 -0.0933
  367loPI   C6A 5868   1.240   3.728   7.630 -0.2218 -0.0563 -0.0830
  367loPI   C1B 5869   1.100   3.613  10.028 -0.0757  0.0294  0.0312
  367loPI   C2B 5870   1.134   3.552   9.611 -0.0589  0.0651 -0.0145
  367loPI   C3B 5871   1.122   3.546   9.173  0.1337 -0.1015 -0.3492
  367loPI   C4B 5872   1.217   3.499   8.789  0.1350  0.2230 -0.1102
  368loPI    C1 5873   0.440   9.113  10.542 -0.1024 -0.0403 -0.0862
  368loPI    C2 5874   0.227   9.020  10.869  0.2682 -0.1047  0.1426
  368loPI    C3 5875   0.409   8.732  10.660  0.1488 -0.0484 -0.0421
  368loPI   PO4 5876   0.238   9.376  10.409  0.1126  0.1605  0.1378
  368loPI   GL1 5877   0.124   9.366   9.973  0.0724 -0.4180  0.1496
  368loPI   GL2 5878   0.288   9.565   9.887  0.1386 -0.1818  0.0433
  368loPI   C1A 5879  -0.001   9.101   9.568  0.2996 -0.3510  0.3032
  368loPI   C2A 5880   0.131   9.146   9.210  0.1185 -0.1901  0.3629
  368loPI   C3A 5881   0.150   9.000   8.763 -0.0970  0.0121  0.2272
  368loPI   C4A 5882   0.219   8.755   8.325  0.1047  0.0797 -0.0095
  368loPI   C5A 5883   0.642   8.754   8.164  0.3910  0.2384  0.1869
  368loPI   C6A 5884   1.025   8.979   8.380 -0.0996 -0.3247 -0.2637
  368loPI   C1B 5885   0.201   9.585   9.505  0.1629  0.1643  0.1515
  368loPI   C2B 5886   0.149   9.607   9.021 -0.0190 -0.1030 -0.1522
  368loPI   C3B 5887   0.256   9.565   8.731 -0.0181 -0.0347 -0.0118
  368loPI   C4B 5888   0.280   9.243   8.357  0.0417  0.1792 -0.1064
  369loPI    C1 5889   3.654  10.118  11.306 -0.0710  0.5435 -0.2377
  369loPI    C2 5890   3.255  10.121  11.334 -0.0683  0.0617 -0.0447
  369loPI    C3 5891   3.478  10.179  11.660  0.0205  0.1816 -0.1257
  369loPI   PO4 5892   3.669  10.335  11.121  0.3115 -0.0123  0.2361
  369loPI   GL1 5893   3.662  10.356  10.653 -0.2640 -0.1927  0.3301
  369loPI   GL2 5894   3.895  10.101  10.473  0.0324  0.1755 -0.2049
  369loPI   C1A 5895   3.822  10.584  10.317 -0.0108 -0.0568 -0.0120
  369loPI   C2A 5896   3.764  10.673   9.931 -0.2307  0.2808  0.0392
  369loPI   C3A 5897   3.905  10.803   9.543  0.1911 -0.0296  0.0466
  369loPI   C4A 5898   3.832  10.773   9.113  0.1117  0.0014  0.2474
  369loPI   C5A 5899   3.828  10.738   8.636 -0.2515  0.1468 -0.0855
  369loPI   C6A 5900   3.974  10.413   8.449  0.0650  0.2317  0.0852
  369loPI   C1B 5901   3.708  10.141  10.072 -0.0541 -0.0322 -0.0090
  369loPI   C2B 5902   3.656  10.179   9.636  0.1128  0.0289 -0.2392
  369loPI   C3B 5903   3.681  10.218   9.199 -0.0738 -0.0770  0.0376
  369loPI   C4B 5904   3.724  10.053   8.777 -0.1451 -0.0462 -0.0407
  370loPI    C1 5905   6.681   0.195  11.236 -0.1374  0.2503  0.1412
  370loPI    C2 5906   6.500   0.244  11.589 -0.0905 -0.2061  0.2341
  370loPI    C3 5907   6.804  -0.014  11.554  0.0445 -0.0089 -0.0945
  370loPI   PO4 5908   6.735   0.471  11.122  0.0441 -0.0408 -0.1782
  370loPI   GL1 5909   6.730   0.470  10.774 -0.0818 -0.0880 -0.1170
  370loPI   GL2 5910   6.593   0.741  10.738 -0.2464  0.0048 -0.3172
  370loPI   C1A 5911   6.529   0.233  10.386 -0.0870  0.3298 -0.3037
  370loPI   C2A 5912   6.511   0.201   9.962 -0.0401 -0.1076 -0.0159
  370loPI   C3A 5913   6.526   0.184   9.479 -0.1230 -0.0034  0.0384
  370loPI   C4A 5914   6.449   0.228   9.084 -0.1909  0.1280  0.1016
  370loPI   C5A 5915   6.344  -0.076   8.735  0.0385  0.2701  0.2021
  370loPI   C6A 5916   6.510  -0.148   8.385  0.3113  0.3406  0.0076
  370loPI   C1B 5917   6.637   0.729  10.274 -0.1430 -0.0159  0.0671
  370loPI   C2B 5918   6.600   0.634   9.803 -0.2901  0.2334  0.0621
  370loPI   C3B 5919   6.506   0.772   9.409  0.3070  0.2753  0.1714
  370loPI   C4B 5920   6.517   0.733   9.008 -0.1783 -0.1702 -0.3659
  371loPI    C1 5921  14.463   2.896  11.306  0.0784 -0.0206  0.0646
  371loPI    C2 5922  14.299   2.732  11.632 -0.0127 -0.1312 -0.0362
  371loPI    C3 5923  14.109   3.027  11.440  0.1903  0.1543  0.1935
  371loPI   PO4 5924  14.563   2.703  11.094  0.0894  0.1567 -0.0743
  371loPI   GL1 5925  14.574   2.867  10.769  0.0439 -0.0400  0.0568
  371loPI   GL2 5926  14.692   3.222  10.599  0.2608 -0.1820  0.1813
  371loPI   C1A 5927  14.448   2.863  10.362 -0.0891  0.2455  0.0586
  371loPI   C2A 5928  14.371   2.827   9.913 -0.1146  0.0542  0.0084
  371loPI   C3A 5929  14.384   2.831   9.499 -0.1306 -0.3297  0.1062
  371loPI   C4A 5930  14.421   2.863   9.101 -0.1929  0.0366  0.0123
  371loPI   C5A 5931  14.590   2.737   8.682  0.0047 -0.0063 -0.1044
  371loPI   C6A 5932  14.757   2.919   8.300 -0.1249 -0.1282  0.1999
  371loPI   C1B 5933  14.609   3.392  10.151 -0.2277  0.1763  0.0242
  371loPI   C2B 5934  14.531   3.310   9.741 -0.1384 -0.1226  0.1430
  371loPI   C3B 5935  14.556   3.361   9.277 -0.1918 -0.2144 -0.0491
  371loPI   C4B 5936  14.614   3.351   8.892  0.2461  0.1253 -0.0176
  372loPI    C1 5937  16.578  17.046  11.963 -0.2349 -0.1046  0.0108
  372loPI    C2 5938  16.349  17.266  12.206 -0.0196 -0.0170  0.1366
  372loPI    C3 5939  16.682  17.094  12.346 -0.0398 -0.1946 -0.0299
  372loPI   PO4 5940  16.554  17.151  11.754  0.0126 -0.1203  0.5701
  372loPI   GL1 5941  16.418  17.055  11.409 -0.1790 -0.3204 -0.1248
  372loPI   GL2 5942  16.723  17.176  11.179  0.3690  0.0504  0.2863
  372loPI   C1A 5943  16.255  16.931  10.960  0.1465  0.1326  0.2921
  372loPI   C2A 5944  16.258  16.843  10.466 -0.2477 -0.2740  0.0333
  372loPI   C3A 5945  16.253  16.784   9.993 -0.0429  0.2364 -0.0560
  372loPI   C4A 5946  16.223  16.767   9.590  0.0562 -0.1094 -0.0738
  372loPI   C5A 5947  16.169  16.731   9.153 -0.1421  0.0951 -0.1924
  372loPI   C6A 5948  16.332  16.749   8.803  0.0740  0.0255  0.3099
  372loPI   C1B 5949  16.673  17.157  10.719 -0.1750  0.1299  0.0185
  372loPI   C2B 5950  16.713  16.975  10.283  0.0207 -0.0831  0.2104
  372loPI   C3B 5951  16.752  17.024   9.873  0.1901 -0.1595  0.0420
  372loPI   C4B 5952  16.752  17.001   9.408  0.3347 -0.0948 -0.1381
  373loPI    C1 5953   7.231   8.285  10.922 -0.3229  0.1363  0.0273
  373loPI    C2 5954   7.499   8.449  11.170 -0.1344  0.0400 -0.1106
  373loPI    C3 5955   7.418   8.058  11.192 -0.1874  0.0493 -0.1377
  373loPI   PO4 5956   7.385   8.394  10.679 -0.1300 -0.3156  0.2343
  373loPI   GL1 5957   7.230   8.518  10.315 -0.0052  0.1925  0.0531
  373loPI   GL2 5958   6.927   8.299  10.318 -0.2934 -0.0754  0.1498
  373loPI   C1A 5959   7.185   8.533   9.888  0.1086  0.0542  0.1509
  373loPI   C2A 5960   7.115   8.574   9.413 -0.0128  0.0119  0.2199
  373loPI   C3A 5961   7.043   8.550   8.944  0.2030 -0.1138 -0.0625
  373loPI   C4A 5962   6.926   8.505   8.576  0.0616 -0.0593  0.0099
  373loPI   C5A 5963   7.264   8.556   8.196  0.0536 -0.0014  0.2414
  373loPI   C6A 5964   7.432   8.910   7.962 -0.0909 -0.1219  0.1276
  373loPI   C1B 5965   7.085   8.094  10.042  0.2114 -0.0147  0.0125
  373loPI   C2B 5966   6.954   8.152   9.625 -0.0684  0.1407 -0.0745
  373loPI   C3B 5967   7.008   8.129   9.241  0.0866  0.1784  0.2502
  373loPI   C4B 5968   6.962   7.957   8.798 -0.2263  0.1298  0.2205
  374loPI    C1 5969   5.440   9.197  11.162 -0.0651 -0.0858  0.0615
  374loPI    C2 5970   5.232   8.868  11.254 -0.1966 -0.0600 -0.1369
  374loPI    C3 5971   5.378   9.101  11.545  0.1130 -0.4254  0.0095
  374loPI   PO4 5972   5.372   9.426  10.958 -0.0497 -0.0600 -0.1566
  374loPI   GL1 5973   5.438   9.391  10.646 -0.1220 -0.0461 -0.1073
  374loPI   GL2 5974   5.178   9.549  10.498 -0.2368  0.2511 -0.0546
  374loPI   C1A 5975   5.459   9.358  10.138  0.1745 -0.0218  0.1780
  374loPI   C2A 5976   5.448   9.364   9.682 -0.0104  0.2148 -0.3823
  374loPI   C3A 5977   5.417   9.345   9.227 -0.0551  0.0604  0.2320
  374loPI   C4A 5978   5.279   9.392   8.773  0.0658 -0.0005  0.0735
  374loPI   C5A 5979   5.213   9.628   8.414 -0.0561  0.0801  0.0470
  374loPI   C6A 5980   5.442   9.611   8.128 -0.0256  0.1817 -0.1102
  374loPI   C1B 5981   5.050   9.717  10.157 -0.1160  0.2138  0.1653
  374loPI   C2B 5982   5.001   9.711   9.705 -0.1036  0.2476 -0.0898
  374loPI   C3B 5983   5.005   9.642   9.279  0.1168 -0.0775  0.1668
  374loPI   C4B 5984   4.823   9.731   8.908  0.1435 -0.1493 -0.0222
  375loPI    C1 5985   6.211  16.442  11.132  0.0170 -0.2284 -0.0673
  375loPI    C2 5986   6.260  16.407  11.527 -0.1540  0.3096  0.0108
  375loPI    C3 5987   5.961  16.213  11.345 -0.0227 -0.0091  0.1265
  375loPI   PO4 5988   6.462  16.288  10.968 -0.1562  0.0798 -0.2750
  375loPI   GL1 5989   6.383  16.138  10.592 -0.0242 -0.0276 -0.0810
  375loPI   GL2 5990   6.210  16.324  10.398  0.2229 -0.1930  0.1845
  375loPI   C1A 5991   6.658  15.982  10.276  0.0707  0.1462 -0.1135
  375loPI   C2A 5992   6.608  16.052   9.865  0.0423  0.0550  0.2317
  375loPI   C3A 5993   6.695  16.152   9.460  0.0408  0.0985  0.3144
  375loPI   C4A 5994   6.717  16.132   9.047 -0.0113 -0.1731 -0.1074
  375loPI   C5A 5995   6.716  16.143   8.606  0.0765 -0.0274 -0.3012
  375loPI   C6A 5996   6.657  16.095   8.182 -0.0800 -0.2264 -0.1465
  375loPI   C1B 5997   6.225  16.281  10.059  0.2060  0.4049 -0.0902
  375loPI   C2B 5998   6.252  16.386   9.681 -0.3275 -0.0953 -0.1864
  375loPI   C3B 5999   6.321  16.438   9.282 -0.1750 -0.1737  0.0743
  375loPI   C4B 6000   6.260  16.412   8.810 -0.0983 -0.2234 -0.2379
  376loPI    C1 6001   8.727  17.037  11.380 -0.0140 -0.0624 -0.1299
  376loPI    C2 6002   8.993  16.855  11.617  0.1769  0.1396 -0.1856
  376loPI    C3 6003   8.647  16.674  11.529  0.2427 -0.0738 -0.0146
  376loPI   PO4 6004   8.910  17.150  11.185  0.0320 -0.0650 -0.3531
  376loPI   GL1 6005   8.892  17.058  10.707  0.2873  0.0741 -0.1789
  376loPI   GL2 6006   8.663  17.098  10.580  0.0769  0.0645  0.0325
  376loPI   C1A 6007   9.063  16.802  10.322 -0.0745  0.1718 -0.2907
  376loPI   C2A 6008   9.107  16.830   9.837 -0.1127  0.1085  0.0148
  376loPI   C3A 6009   9.125  16.911   9.440  0.0402 -0.5113 -0.0278
  376loPI   C4A 6010   9.020  16.953   9.059  0.0124  0.0841  0.0629
  376loPI   C5A 6011   9.143  17.019   8.603 -0.0345  0.0597 -0.2654
  376loPI   C6A 6012   9.264  17.011   8.228  0.0014 -0.0993  0.1266
  376loPI   C1B 6013   8.664  17.057  10.216  0.2098  0.1085  0.1057
  376loPI   C2B 6014   8.625  17.218   9.782 -0.1565 -0.0841  0.0768
  376loPI   C3B 6015   8.654  17.212   9.313  0.1651  0.1203  0.0434
  376loPI   C4B 6016   8.663  17.324   8.863  0.2821 -0.0202 -0.3001
  377loPI    C1 6017  11.773  12.493  11.177  0.0057 -0.2398 -0.0421
  377loPI    C2 6018  11.431  12.473  11.384  0.0475  0.3362  0.0990
  377loPI    C3 6019  11.772  12.343  11.548 -0.0633 -0.0435  0.0383
  377loPI   PO4 6020  11.719  12.324  10.889 -0.0140 -0.3816 -0.3033
  377loPI   GL1 6021  11.715  12.577  10.505 -0.0909 -0.0977  0.0874
  377loPI   GL2 6022  11.395  12.434  10.480  0.0977 -0.3009 -0.0790
  377loPI   C1A 6023  11.926  12.721  10.233 -0.0799 -0.0932 -0.0092
  377loPI   C2A 6024  11.998  12.700   9.874 -0.1566  0.0947 -0.0877
  377loPI   C3A 6025  11.877  12.732   9.454 -0.1562  0.2615  0.2495
  377loPI   C4A 6026  11.904  12.605   9.062  0.0440 -0.1549  0.1402
  377loPI   C5A 6027  11.850  12.568   8.636  0.1647 -0.1144 -0.1300
  377loPI   C6A 6028  12.045  12.533   8.344  0.0405 -0.1822 -0.1701
  377loPI   C1B 6029  11.465  12.543  10.015  0.1438 -0.2499  0.2543
  377loPI   C2B 6030  11.476  12.471   9.645  0.1417  0.3156  0.0470
  377loPI   C3B 6031  11.463  12.567   9.219 -0.3043  0.2404  0.0881
  377loPI   C4B 6032  11.421  12.432   8.896 -0.1760  0.0785  0.0454
  378loPI    C1 6033   0.742  10.768  10.888 -0.1555 -0.0390 -0.0911
  378loPI    C2 6034   0.412  10.578  11.012 -0.1038  0.0494  0.1871
  378loPI    C3 6035   0.607  10.824  11.261  0.2011 -0.0411  0.0419
  378loPI   PO4 6036   0.734  10.900  10.677 -0.1896 -0.1004  0.0474
  378loPI   GL1 6037   0.406  11.073  10.433  0.1837 -0.1127  0.1398
  378loPI   GL2 6038   0.059  11.126  10.445 -0.2433  0.0421 -0.1766
  378loPI   C1A 6039   0.374  11.256  10.053  0.0854 -0.0440 -0.0649
  378loPI   C2A 6040   0.501  11.239   9.715  0.0234  0.0426 -0.3349
  378loPI   C3A 6041   0.494  11.339   9.315  0.0158  0.1716 -0.1121
  378loPI   C4A 6042   0.482  11.222   8.895  0.0127  0.0352  0.4162
  378loPI   C5A 6043   0.465  11.154   8.463  0.1002  0.1390 -0.1555
  378loPI   C6A 6044   0.434  11.327   8.126 -0.2688  0.0319  0.2139
  378loPI   C1B 6045  -0.070  11.069   9.994 -0.0130 -0.0061 -0.0012
  378loPI   C2B 6046  -0.014  11.119   9.534 -0.1603  0.0408 -0.4379
  378loPI   C3B 6047  -0.025  11.006   9.132 -0.0837  0.0705 -0.2353
  378loPI   C4B 6048   0.044  11.008   8.725 -0.1774 -0.0592  0.0335
  379loPI    C1 6049   6.808   9.832  10.901 -0.1532  0.4094  0.2267
  379loPI    C2 6050   6.857   9.623  11.239 -0.1175  0.0080 -0.0203
  379loPI    C3 6051   7.159   9.840  11.092 -0.0563 -0.0113  0.0764
  379loPI   PO4 6052   6.722   9.664  10.733 -0.2358  0.1624  0.0298
  379loPI   GL1 6053   6.900  10.022  10.405 -0.1642 -0.2941  0.1414
  379loPI   GL2 6054   6.674  10.258  10.526 -0.0515  0.1268  0.2155
  379loPI   C1A 6055   6.924   9.932   9.892 -0.0424  0.1253  0.1614
  379loPI   C2A 6056   6.846   9.927   9.497 -0.2489 -0.0547  0.1705
  379loPI   C3A 6057   6.874   9.904   9.055 -0.0297  0.0900  0.0592
  379loPI   C4A 6058   6.680   9.776   8.623  0.0644 -0.1487  0.0218
  379loPI   C5A 6059   6.417  10.150   8.339 -0.1394 -0.2010  0.2003
  379loPI   C6A 6060   6.203  10.539   8.461  0.2590 -0.1688 -0.1668
  379loPI   C1B 6061   6.553  10.180  10.104 -0.1300  0.2536  0.1661
  379loPI   C2B 6062   6.499  10.232   9.738 -0.1966 -0.0245  0.0987
  379loPI   C3B 6063   6.431  10.243   9.270 -0.1522  0.0659 -0.0524
  379loPI   C4B 6064   6.487  10.238   8.786 -0.2657 -0.0354 -0.1479
  380loPI    C1 6065   2.837   0.194  11.513  0.1804 -0.2921 -0.1738
  380loPI    C2 6066   3.169   0.410  11.572 -0.1260  0.1627 -0.0603
  380loPI    C3 6067   3.055   0.140  11.844  0.1062  0.0578 -0.0643
  380loPI   PO4 6068   2.874   0.074  11.322  0.1016  0.0594  0.1629
  380loPI   GL1 6069   2.796   0.265  10.937  0.1813  0.2430 -0.0828
  380loPI   GL2 6070   3.179   0.422  10.994 -0.4803 -0.2953 -0.3105
  380loPI   C1A 6071   2.816   0.344  10.556  0.3090  0.0219  0.2388
  380loPI   C2A 6072   2.863   0.268  10.146  0.2473  0.0329  0.0557
  380loPI   C3A 6073   2.958   0.317   9.754 -0.0476  0.0215 -0.0182
  380loPI   C4A 6074   2.921   0.334   9.268  0.0294 -0.0585 -0.2433
  380loPI   C5A 6075   3.101   0.228   8.918  0.0311  0.1025  0.0748
  380loPI   C6A 6076   3.489   0.429   8.705 -0.3660  0.0705 -0.0108
  380loPI   C1B 6077   3.239   0.540  10.621 -0.0200  0.0272  0.2389
  380loPI   C2B 6078   3.291   0.468  10.183 -0.2096  0.3156  0.0565
  380loPI   C3B 6079   3.345   0.538   9.705  0.0759 -0.0334 -0.1486
  380loPI   C4B 6080   3.413   0.513   9.246  0.0035 -0.1088 -0.0390
  381loPI    C1 6081   3.458   8.139  10.719 -0.1851 -0.0165 -0.1455
  381loPI    C2 6082   3.282   8.051  11.067 -0.1040 -0.1534 -0.1385
  381loPI    C3 6083   3.680   8.029  11.033 -0.0783  0.2405 -0.1286
  381loPI   PO4 6084   3.331   8.074  10.563  0.0702  0.1185 -0.3139
  381loPI   GL1 6085   3.526   8.019  10.223  0.0501 -0.2068 -0.2619
  381loPI   GL2 6086   3.591   7.873  10.097  0.4538 -0.1053 -0.0223
  381loPI   C1A 6087   3.762   8.229   9.789  0.1376 -0.0176 -0.0639
  381loPI   C2A 6088   3.838   8.234   9.385 -0.0734 -0.0660 -0.1315
  381loPI   C3A 6089   3.677   8.318   9.049 -0.1531 -0.1994 -0.1026
  381loPI   C4A 6090   3.734   8.326   8.623  0.0959  0.0799  0.0495
  381loPI   C5A 6091   3.907   8.352   8.167 -0.0350 -0.1624 -0.2218
  381loPI   C6A 6092   4.297   8.482   7.775  0.2496 -0.2466 -0.1173
  381loPI   C1B 6093   3.590   7.727   9.674  0.3607  0.0462  0.1127
  381loPI   C2B 6094   3.673   7.790   9.246  0.3079  0.1412 -0.0952
  381loPI   C3B 6095   3.667   7.863   8.813  0.0933  0.2417  0.0449
  381loPI   C4B 6096   3.626   7.947   8.346 -0.2617 -0.0652 -0.1142
  382loPI    C1 6097   5.204   0.657  11.550 -0.0630 -0.0615 -0.0316
  382loPI    C2 6098   5.572   0.511  11.608 -0.0150 -0.0078 -0.1961
  382loPI    C3 6099   5.416   0.768  11.871 -0.0186 -0.1929 -0.0151
  382loPI   PO4 6100   5.247   0.692  11.256 -0.2177  0.0678 -0.0296
  382loPI   GL1 6101   5.008   0.937  10.849  0.2202 -0.0211  0.0063
  382loPI   GL2 6102   4.725   1.114  10.918 -0.0468  0.1519  0.0574
  382loPI   C1A 6103   5.125   0.703  10.467 -0.1772  0.2272  0.1757
  382loPI   C2A 6104   5.200   0.722  10.035  0.0779 -0.3362  0.2893
  382loPI   C3A 6105   5.214   0.650   9.632  0.1805  0.0859  0.2048
  382loPI   C4A 6106   5.291   0.674   9.211  0.1387  0.1647  0.0356
  382loPI   C5A 6107   5.351   0.624   8.842 -0.0324  0.2364 -0.0310
  382loPI   C6A 6108   5.608   0.517   8.517 -0.4503 -0.2735 -0.3168
  382loPI   C1B 6109   4.712   1.054  10.447  0.3214  0.0179 -0.2972
  382loPI   C2B 6110   4.739   1.034  10.021  0.0425 -0.1797 -0.0446
  382loPI   C3B 6111   4.777   0.986   9.681  0.2265  0.3396 -0.1160
  382loPI   C4B 6112   4.857   1.016   9.173  0.1492 -0.2247  0.0570
  383loPI    C1 6113   7.856  10.218  10.735  0.1359  0.0654  0.0625
  383loPI    C2 6114   7.897  10.072  11.105  0.0454  0.1309  0.0986
  383loPI    C3 6115   7.543  10.212  10.984  0.0817  0.1346 -0.0037
  383loPI   PO4 6116   8.123  10.016  10.652  0.1645  0.1453 -0.0176
  383loPI   GL1 6117   8.307   9.830  10.357 -0.2793 -0.1643 -0.0497
  383loPI   GL2 6118   8.293   9.504  10.231  0.1829  0.1902 -0.2026
  383loPI   C1A 6119   8.359   9.932   9.965  0.0701 -0.1745  0.1915
  383loPI   C2A 6120   8.312   9.854   9.552 -0.3118 -0.1395 -0.2577
  383loPI   C3A 6121   8.289   9.879   9.113 -0.0125 -0.0854 -0.1436
  383loPI   C4A 6122   8.173   9.947   8.781 -0.0728 -0.0717  0.0214
  383loPI   C5A 6123   7.938  10.007   8.385 -0.0739  0.1261  0.0824
  383loPI   C6A 6124   7.490  10.074   8.237 -0.3216 -0.1051  0.1293
  383loPI   C1B 6125   8.286   9.451   9.787 -0.0746 -0.1374 -0.0460
  383loPI   C2B 6126   8.273   9.404   9.360  0.0059  0.0938  0.0772
  383loPI   C3B 6127   8.240   9.389   8.910  0.3013 -0.0254 -0.2160
  383loPI   C4B 6128   8.116   9.501   8.565  0.1580 -0.1561  0.2036
  384loPI    C1 6129  12.035   4.137  11.000  0.0287 -0.1696  0.0653
  384loPI    C2 6130  12.263   4.273  11.299  0.0262  0.0768 -0.0426
  384loPI    C3 6131  11.878   4.382  11.276 -0.0217 -0.0885 -0.0346
  384loPI   PO4 6132  12.170   4.169  10.742 -0.2957 -0.2053  0.1082
  384loPI   GL1 6133  12.239   4.056  10.293 -0.0313 -0.2029 -0.0860
  384loPI   GL2 6134  12.068   4.313  10.246 -0.4414 -0.1005  0.1265
  384loPI   C1A 6135  12.384   3.977   9.852 -0.4416 -0.1045  0.1427
  384loPI   C2A 6136  12.339   4.070   9.355  0.0108 -0.0075 -0.0486
  384loPI   C3A 6137  12.320   4.125   8.889  0.2112  0.1836  0.1123
  384loPI   C4A 6138  12.308   4.215   8.420  0.0659  0.0862  0.2581
  384loPI   C5A 6139  12.414   4.252   7.957  0.0869  0.2718 -0.3215
  384loPI   C6A 6140  12.640   4.331   7.547 -0.1954  0.0275 -0.0985
  384loPI   C1B 6141  11.947   4.360   9.703  0.1031 -0.2000  0.1066
  384loPI   C2B 6142  11.980   4.443   9.281  0.2041 -0.1698 -0.1726
  384loPI   C3B 6143  11.926   4.475   8.927 -0.1883  0.1008  0.0430
  384loPI   C4B 6144  11.848   4.552   8.451  0.1090 -0.4468 -0.3252
  385loPI    C1 6145  12.081  17.610  11.529 -0.0121 -0.0875 -0.0101
  385loPI    C2 6146  12.019  18.000  11.589 -0.2382 -0.1278  0.0284
  385loPI    C3 6147  11.959  17.740  11.887 -0.1481 -0.1988 -0.0150
  385loPI   PO4 6148  11.952  17.579  11.314 -0.0309 -0.1883 -0.2566
  385loPI   GL1 6149  11.946  17.858  10.934  0.0456 -0.2812 -0.1424
  385loPI   GL2 6150  11.834  17.583  10.737  0.2035  0.0045 -0.2027
  385loPI   C1A 6151  11.927  17.890  10.409  0.1651 -0.1354 -0.0499
  385loPI   C2A 6152  11.950  17.886   9.966  0.2581  0.2593 -0.2722
  385loPI   C3A 6153  11.995  17.977   9.586 -0.0112 -0.0854 -0.0129
  385loPI   C4A 6154  12.091  17.849   9.069 -0.0023 -0.2369 -0.0319
  385loPI   C5A 6155  12.304  17.547   8.856  0.0476  0.0315  0.1044
  385loPI   C6A 6156  12.241  17.161   8.708 -0.0468 -0.2008  0.1666
  385loPI   C1B 6157  11.832  17.420  10.294  0.0158  0.0807  0.1387
  385loPI   C2B 6158  11.875  17.366   9.923  0.1194 -0.0918 -0.1329
  385loPI   C3B 6159  11.948  17.423   9.558 -0.0634  0.1542  0.1090
  385loPI   C4B 6160  11.940  17.302   9.138  0.5512  0.0591 -0.0032
  386loPI    C1 6161   1.690   9.462  10.680 -0.2034 -0.2118 -0.1087
  386loPI    C2 6162   1.958   9.250  10.887 -0.0228  0.0817 -0.0362
  386loPI    C3 6163   1.639   9.405  11.072  0.0431  0.1898 -0.0116
  386loPI   PO4 6164   1.774   9.614  10.545 -0.1285 -0.3409  0.1302
  386loPI   GL1 6165   1.559   9.759  10.171 -0.1905  0.0357 -0.5180
  386loPI   GL2 6166   1.253   9.894  10.066  0.0717 -0.1908  0.3373
  386loPI   C1A 6167   1.581   9.555   9.761 -0.1036  0.2040 -0.4051
  386loPI   C2A 6168   1.650   9.635   9.397 -0.0638  0.0288  0.2346
  386loPI   C3A 6169   1.747   9.583   9.018  0.2460  0.0598 -0.3501
  386loPI   C4A 6170   1.821   9.560   8.664  0.1059  0.0980 -0.0357
  386loPI   C5A 6171   1.621   9.362   8.260  0.1588 -0.2611 -0.2278
  386loPI   C6A 6172   1.315   9.263   7.989  0.1587  0.1865  0.2216
  386loPI   C1B 6173   1.244   9.911   9.653 -0.3310  0.0206  0.0424
  386loPI   C2B 6174   1.242   9.961   9.244 -0.1947 -0.0748 -0.0332
  386loPI   C3B 6175   1.399   9.949   8.878 -0.3847 -0.1670 -0.0668
  386loPI   C4B 6176   1.476  10.061   8.423  0.2829 -0.1476 -0.1182
  387loPI    C1 6177   7.307   4.705  11.155  0.2513 -0.0098 -0.2236
  387loPI    C2 6178   7.288   4.336  11.307  0.1367  0.1068  0.0527
  387loPI    C3 6179   7.564   4.593  11.440  0.0044  0.2256  0.0999
  387loPI   PO4 6180   7.342   4.704  10.925  0.1044 -0.0898 -0.1252
  387loPI   GL1 6181   7.087   4.789  10.611  0.2370 -0.0667 -0.0038
  387loPI   GL2 6182   6.940   5.051  10.533  0.2211 -0.4180  0.0427
  387loPI   C1A 6183   7.297   4.800  10.247  0.3632  0.1103 -0.0529
  387loPI   C2A 6184   7.259   4.818   9.849 -0.2200  0.1400 -0.0007
  387loPI   C3A 6185   7.365   4.772   9.417 -0.2101  0.0218  0.0251
  387loPI   C4A 6186   7.289   4.903   9.034  0.0018  0.0490 -0.0954
  387loPI   C5A 6187   7.304   4.781   8.615 -0.1438 -0.3471 -0.1346
  387loPI   C6A 6188   7.417   4.698   8.191 -0.0177 -0.4617  0.1242
  387loPI   C1B 6189   6.798   5.166  10.091  0.1013 -0.0240  0.2690
  387loPI   C2B 6190   6.934   5.209   9.644 -0.2386  0.0612 -0.1077
  387loPI   C3B 6191   6.886   5.178   9.241  0.0112  0.0266 -0.2006
  387loPI   C4B 6192   6.973   5.104   8.727  0.2716 -0.2217 -0.0617
  388loPI    C1 6193   4.086   1.756  11.369  0.3124  0.2087  0.2879
  388loPI    C2 6194   3.888   1.712  11.714 -0.1323 -0.0883  0.0054
  388loPI    C3 6195   4.106   1.410  11.567  0.0865  0.0499  0.0418
  388loPI   PO4 6196   4.304   1.998  11.367  0.0439  0.0460  0.0274
  388loPI   GL1 6197   4.576   2.120  11.117 -0.2640  0.3115 -0.3429
  388loPI   GL2 6198   4.527   1.804  10.967  0.0610 -0.0708 -0.1696
  388loPI   C1A 6199   4.629   2.259  10.746  0.0125 -0.1267 -0.0110
  388loPI   C2A 6200   4.741   2.401  10.392 -0.1628  0.0808  0.1289
  388loPI   C3A 6201   4.703   2.359   9.935 -0.2590 -0.0905  0.0281
  388loPI   C4A 6202   4.626   2.365   9.508  0.2973 -0.2961  0.1086
  388loPI   C5A 6203   4.507   2.430   9.049 -0.1067 -0.0848  0.1591
  388loPI   C6A 6204   4.749   2.106   8.695  0.2300  0.0455 -0.3311
  388loPI   C1B 6205   4.506   1.893  10.460 -0.3168 -0.0165 -0.1133
  388loPI   C2B 6206   4.445   1.777   9.980 -0.0295 -0.2822  0.1763
  388loPI   C3B 6207   4.540   1.841   9.523  0.2770 -0.0545  0.0773
  388loPI   C4B 6208   4.499   1.806   9.048 -0.0175  0.1125 -0.1107
  389loPI    C1 6209  12.367   6.418  10.737 -0.0512 -0.1410  0.1620
  389loPI    C2 6210  12.725   6.250  10.796 -0.0503 -0.2349 -0.0972
  389loPI    C3 6211  12.625   6.582  10.995  0.0255 -0.4265  0.2707
  389loPI   PO4 6212  12.326   6.435  10.521 -0.0221 -0.1168 -0.0600
  389loPI   GL1 6213  12.233   6.446  10.163 -0.1632 -0.0622  0.0495
  389loPI   GL2 6214  11.945   6.246  10.180  0.1755  0.0846  0.0528
  389loPI   C1A 6215  12.386   6.468   9.735 -0.0060 -0.3038  0.1581
  389loPI   C2A 6216  12.471   6.516   9.359 -0.1623 -0.2128 -0.2067
  389loPI   C3A 6217  12.432   6.522   8.962  0.1765  0.0817  0.0093
  389loPI   C4A 6218  12.323   6.690   8.604  0.0560  0.4472 -0.0760
  389loPI   C5A 6219  12.221   6.523   8.174 -0.0897 -0.0644  0.0350
  389loPI   C6A 6220  11.815   6.587   8.007 -0.2465  0.1393 -0.0222
  389loPI   C1B 6221  11.896   6.319   9.701 -0.1610 -0.1604 -0.2813
  389loPI   C2B 6222  11.857   6.241   9.210 -0.2618  0.0828  0.1954
  389loPI   C3B 6223  11.904   6.475   8.818 -0.1100  0.0544 -0.0079
  389loPI   C4B 6224  11.763   6.407   8.430 -0.1307  0.0828  0.0797
  390loPI    C1 6225  14.948  14.151  11.342 -0.0230  0.0498  0.0400
  390loPI    C2 6226  15.061  13.909  11.044 -0.3002 -0.0363  0.0022
  390loPI    C3 6227  14.852  13.762  11.352 -0.0752  0.0660  0.2067
  390loPI   PO4 6228  14.862  14.335  11.223 -0.3675 -0.3275 -0.0143
  390loPI   GL1 6229  14.779  14.252  10.808  0.3567  0.0485 -0.0256
  390loPI   GL2 6230  15.064  14.139  10.589  0.1918 -0.0775  0.0773
  390loPI   C1A 6231  14.574  14.522  10.443  0.2183 -0.1075 -0.1757
  390loPI   C2A 6232  14.475  14.549  10.075 -0.1224  0.2451  0.1307
  390loPI   C3A 6233  14.515  14.687   9.757  0.0569  0.0328 -0.0494
  390loPI   C4A 6234  14.566  14.603   9.346  0.0764 -0.3265  0.1998
  390loPI   C5A 6235  14.593  14.554   8.914 -0.1134 -0.0407  0.1425
  390loPI   C6A 6236  14.662  14.855   8.579  0.0381  0.3651  0.1260
  390loPI   C1B 6237  14.957  14.256  10.196 -0.0610  0.6724  0.1754
  390loPI   C2B 6238  14.884  14.372   9.719  0.1783  0.1201 -0.1631
  390loPI   C3B 6239  14.932  14.301   9.237  0.1210 -0.3194 -0.3026
  390loPI   C4B 6240  14.975  14.191   8.882  0.0381  0.1482 -0.2315
  391loPI    C1 6241  14.800   1.125  11.571  0.0923 -0.2888 -0.1603
  391loPI    C2 6242  15.060   0.987  11.842  0.0870  0.0314  0.0135
  391loPI    C3 6243  14.693   1.098  11.956  0.0886  0.1796 -0.1220
  391loPI   PO4 6244  14.886   0.962  11.362  0.0956 -0.0732 -0.1254
  391loPI   GL1 6245  15.045   1.054  10.971 -0.0435  0.2812 -0.0506
  391loPI   GL2 6246  14.938   0.721  10.910 -0.1026 -0.3007  0.1107
  391loPI   C1A 6247  15.010   1.153  10.560  0.2783  0.1949  0.0788
  391loPI   C2A 6248  15.089   1.238  10.193  0.0308  0.3086  0.2592
  391loPI   C3A 6249  15.128   1.209   9.782 -0.2459  0.1241  0.2131
  391loPI   C4A 6250  15.200   1.177   9.348 -0.1756  0.1286 -0.0320
  391loPI   C5A 6251  15.112   0.944   8.950 -0.1879  0.6389  0.2132
  391loPI   C6A 6252  14.901   0.687   8.594 -0.0884  0.0194 -0.2194
  391loPI   C1B 6253  15.060   0.634  10.530 -0.1656 -0.0537  0.2411
  391loPI   C2B 6254  15.015   0.642  10.049 -0.1766  0.1506  0.0367
  391loPI   C3B 6255  15.111   0.699   9.629 -0.1166 -0.0139  0.2424
  391loPI   C4B 6256  15.124   0.573   9.253 -0.1049  0.0120 -0.1433
  392loPI    C1 6257  16.085   9.835  10.495  0.1727  0.1304  0.1371
  392loPI    C2 6258  16.340   9.549  10.612 -0.1287 -0.1606  0.0975
  392loPI    C3 6259  16.037   9.657  10.850 -0.1348 -0.0160  0.0254
  392loPI   PO4 6260  16.019   9.721  10.211 -0.0515  0.2288  0.1727
  392loPI   GL1 6261  16.139   9.846   9.836 -0.0674 -0.0312 -0.0918
  392loPI   GL2 6262  16.142  10.170   9.686  0.0008 -0.1782  0.0682
  392loPI   C1A 6263  16.102   9.841   9.381 -0.2258  0.0969  0.1758
  392loPI   C2A 6264  16.143   9.900   8.930 -0.0005  0.0177 -0.0801
  392loPI   C3A 6265  16.286   9.801   8.563 -0.0999  0.2265 -0.1091
  392loPI   C4A 6266  16.194   9.967   8.156 -0.2805 -0.1617 -0.0601
  392loPI   C5A 6267  16.123  10.349   7.952  0.1666 -0.0488  0.2704
  392loPI   C6A 6268  15.845  10.527   7.814 -0.0035  0.0378  0.1237
  392loPI   C1B 6269  16.149  10.432   9.341 -0.1296 -0.0495 -0.2426
  392loPI   C2B 6270  16.205  10.389   8.962  0.0068 -0.0381 -0.1478
  392loPI   C3B 6271  16.180  10.376   8.515 -0.1772  0.0701  0.1587
  392loPI   C4B 6272  16.522  10.477   8.296  0.0435  0.1884  0.0726
  393loPI    C1 6273  16.970  10.667  10.726 -0.2876  0.1227 -0.1856
  393loPI    C2 6274  17.111  10.961  10.957  0.0006 -0.0603 -0.1229
  393loPI    C3 6275  16.797  10.745  11.078 -0.0884  0.0920 -0.0793
  393loPI   PO4 6276  17.189  10.561  10.631 -0.1851 -0.1459 -0.0929
  393loPI   GL1 6277  17.372  10.702  10.262  0.0056 -0.0569 -0.3147
  393loPI   GL2 6278  17.079  10.721  10.127 -0.1224 -0.2659 -0.2508
  393loPI   C1A 6279  17.561  10.471   9.928 -0.0142  0.1171 -0.0339
  393loPI   C2A 6280  17.571  10.391   9.475  0.0247  0.0543 -0.1831
  393loPI   C3A 6281  17.478  10.471   9.094  0.3807 -0.0969 -0.1650
  393loPI   C4A 6282  17.662  10.362   8.737 -0.0589 -0.1465  0.2372
  393loPI   C5A 6283  17.576  10.584   8.418  0.2777 -0.2785  0.0637
  393loPI   C6A 6284  17.723  10.982   8.231  0.0399 -0.0469  0.0836
  393loPI   C1B 6285  17.260  10.833   9.731  0.0817  0.2050  0.3127
  393loPI   C2B 6286  17.171  10.868   9.279 -0.0137  0.1169 -0.0492
  393loPI   C3B 6287  17.257  10.783   8.763  0.0343  0.0975 -0.2485
  393loPI   C4B 6288  17.087  10.639   8.381 -0.0749 -0.1441 -0.1198
  394loPI    C1 6289   0.035   6.802  11.003 -0.1291 -0.1177 -0.4668
  394loPI    C2 6290   0.112   7.193  10.968 -0.0534 -0.1075 -0.2097
  394loPI    C3 6291  -0.257   7.069  11.061 -0.1035 -0.1040 -0.4000
  394loPI   PO4 6292   0.219   6.734  10.777  0.0368  0.0078  0.1468
  394loPI   GL1 6293   0.208   6.842  10.333  0.2786  0.2920  0.0841
  394loPI   GL2 6294   0.209   6.539  10.133  0.0969  0.0388  0.1137
  394loPI   C1A 6295   0.237   6.967   9.841 -0.1440  0.1277  0.2133
  394loPI   C2A 6296   0.333   7.053   9.414 -0.1364 -0.0154 -0.1138
  394loPI   C3A 6297   0.353   7.107   9.000  0.0652 -0.1916 -0.0546
  394loPI   C4A 6298   0.385   7.293   8.600  0.2727  0.5148  0.0721
  394loPI   C5A 6299   0.494   7.126   8.111 -0.2500  0.0065  0.0778
  394loPI   C6A 6300   0.720   6.880   7.823  0.4490 -0.0603  0.2328
  394loPI   C1B 6301   0.183   6.481   9.709  0.2708  0.0554  0.0754
  394loPI   C2B 6302   0.226   6.582   9.238 -0.1457 -0.0008  0.1801
  394loPI   C3B 6303   0.279   6.675   8.789 -0.0351  0.1937 -0.0211
  394loPI   C4B 6304   0.235   6.552   8.421 -0.3124 -0.1490 -0.2387
  395loPI    C1 6305  13.862   9.265  10.947  0.0361  0.1911  0.0105
  395loPI    C2 6306  14.231   9.157  11.056 -0.0043  0.0456  0.0048
  395loPI    C3 6307  14.058   9.476  11.224  0.0208 -0.0440  0.2038
  395loPI   PO4 6308  13.847   9.250  10.689 -0.5467 -0.2347 -0.3516
  395loPI   GL1 6309  14.005   9.270  10.328  0.0297  0.1288  0.2338
  395loPI   GL2 6310  14.186   9.057  10.219  0.0629 -0.0666 -0.0163
  395loPI   C1A 6311  13.825   9.410   9.946 -0.2217 -0.0672  0.1141
  395loPI   C2A 6312  13.659   9.579   9.565  0.1175  0.3052 -0.0564
  395loPI   C3A 6313  13.823   9.479   9.063 -0.2475 -0.1188 -0.1040
  395loPI   C4A 6314  13.805   9.489   8.612 -0.0265 -0.1751 -0.0160
  395loPI   C5A 6315  13.801   9.352   8.313 -0.0401  0.2504  0.0406
  395loPI   C6A 6316  13.846   8.886   8.075 -0.1242 -0.1140  0.0913
  395loPI   C1B 6317  14.127   9.085   9.789  0.1214  0.0573 -0.2626
  395loPI   C2B 6318  14.091   9.129   9.296 -0.0185 -0.1048 -0.3567
  395loPI   C3B 6319  14.170   9.137   8.838  0.0911 -0.1383 -0.2397
  395loPI   C4B 6320  14.280   9.009   8.409  0.1865 -0.0311  0.1719
  396loPI    C1 6321   6.304  17.461  11.657  0.1598  0.0039 -0.0625
  396loPI    C2 6322   6.294  17.085  11.792  0.0470 -0.0933 -0.3341
  396loPI    C3 6323   6.088  17.371  11.981  0.3002 -0.1240 -0.0033
  396loPI   PO4 6324   6.345  17.325  11.329 -0.2522  0.0631  0.1062
  396loPI   GL1 6325   6.161  17.042  11.067  0.2728 -0.0496  0.0631
  396loPI   GL2 6326   6.474  17.136  10.884  0.1480 -0.2158 -0.0155
  396loPI   C1A 6327   5.983  17.133  10.669 -0.1121 -0.1854  0.0731
  396loPI   C2A 6328   5.903  17.123  10.298 -0.0264 -0.0729  0.1495
  396loPI   C3A 6329   5.842  17.178   9.894 -0.0296  0.1646  0.0139
  396loPI   C4A 6330   5.966  17.222   9.458 -0.0447  0.2202  0.4483
  396loPI   C5A 6331   5.874  17.152   8.879  0.1549 -0.0789 -0.1944
  396loPI   C6A 6332   6.291  17.065   8.598  0.0907  0.4702 -0.0947
  396loPI   C1B 6333   6.462  17.245  10.450  0.0920 -0.1218 -0.2180
  396loPI   C2B 6334   6.452  17.302  10.028  0.0909 -0.0002 -0.2676
  396loPI   C3B 6335   6.387  17.373   9.648  0.0357 -0.3433 -0.4804
  396loPI   C4B 6336   6.425  17.422   9.218  0.0853  0.0009  0.1153
  397loPI    C1 6337   7.826  13.658  11.174 -0.0527 -0.1126 -0.0605
  397loPI    C2 6338   7.739  13.343  11.404 -0.2442  0.0273  0.0627
  397loPI    C3 6339   7.736  13.711  11.561  0.2084  0.0735 -0.0224
  397loPI   PO4 6340   7.715  13.638  10.981  0.0356 -0.0731 -0.2190
  397loPI   GL1 6341   7.815  13.464  10.611 -0.1279 -0.0820 -0.1150
  397loPI   GL2 6342   7.561  13.499  10.517  0.0805  0.1282  0.2427
  397loPI   C1A 6343   7.894  13.134  10.282 -0.0161  0.0613  0.0256
  397loPI   C2A 6344   7.855  13.104   9.880 -0.1760 -0.2766 -0.2214
  397loPI   C3A 6345   7.892  13.063   9.557 -0.0351 -0.0923 -0.1619
  397loPI   C4A 6346   7.862  13.221   9.129  0.0859 -0.1123 -0.0580
  397loPI   C5A 6347   8.002  13.278   8.759  0.1642 -0.0269  0.1499
  397loPI   C6A 6348   8.234  13.619   8.409  0.1253 -0.2984 -0.1039
  397loPI   C1B 6349   7.499  13.406  10.093 -0.4515  0.0121  0.1035
  397loPI   C2B 6350   7.466  13.449   9.625 -0.2274  0.1154  0.0439
  397loPI   C3B 6351   7.448  13.490   9.242 -0.0913 -0.1485 -0.2133
  397loPI   C4B 6352   7.513  13.432   8.786  0.0552 -0.0305 -0.1087
  398loPI    C1 6353   8.720   7.455  10.929 -0.0629 -0.2212  0.0099
  398loPI    C2 6354   8.473   7.180  11.083  0.0090 -0.1499  0.2567
  398loPI    C3 6355   8.754   7.348  11.313 -0.3305  0.4701  0.2427
  398loPI   PO4 6356   8.758   7.463  10.732  0.2038  0.1030  0.4176
  398loPI   GL1 6357   8.531   7.461  10.414  0.3373  0.0634  0.1072
  398loPI   GL2 6358   8.502   7.775  10.437 -0.1391  0.0564 -0.0154
  398loPI   C1A 6359   8.363   7.648   9.979 -0.1191 -0.0847 -0.0995
  398loPI   C2A 6360   8.368   7.633   9.557  0.1533  0.0089  0.1693
  398loPI   C3A 6361   8.288   7.571   9.154  0.1131 -0.1455  0.1296
  398loPI   C4A 6362   8.222   7.579   8.735 -0.0086  0.0612 -0.2520
  398loPI   C5A 6363   8.414   7.609   8.418 -0.0096 -0.2304  0.1107
  398loPI   C6A 6364   8.849   7.490   8.224 -0.0668  0.0913  0.1766
  398loPI   C1B 6365   8.858   7.777  10.058 -0.1091 -0.1372  0.0192
  398loPI   C2B 6366   8.829   7.686   9.663 -0.3204 -0.0542 -0.2629
  398loPI   C3B 6367   8.805   7.732   9.211  0.1986 -0.1852  0.2129
  398loPI   C4B 6368   8.805   7.661   8.742 -0.1041  0.0988 -0.0259
  399loPI    C1 6369   5.557   7.938  11.136  0.1991 -0.0920 -0.0864
  399loPI    C2 6370   5.660   7.567  11.243  0.1779 -0.0089  0.2330
  399loPI    C3 6371   5.598   7.845  11.523  0.1884  0.2357 -0.0040
  399loPI   PO4 6372   5.790   8.021  10.934  0.2574 -0.0976  0.0294
  399loPI   GL1 6373   5.895   8.058  10.450 -0.0971  0.0968 -0.0078
  399loPI   GL2 6374   5.638   8.026  10.295  0.0031 -0.1078  0.0783
  399loPI   C1A 6375   6.041   8.148  10.050  0.0569  0.0054  0.3885
  399loPI   C2A 6376   6.181   8.297   9.636 -0.4070 -0.2855 -0.0953
  399loPI   C3A 6377   6.070   8.260   9.251 -0.1389 -0.1528 -0.0052
  399loPI   C4A 6378   6.044   8.171   8.846 -0.0043  0.0432 -0.1360
  399loPI   C5A 6379   6.041   7.975   8.353  0.3554 -0.0772 -0.1270
  399loPI   C6A 6380   6.019   7.807   7.919  0.1955 -0.2312  0.1365
  399loPI   C1B 6381   5.572   7.919   9.878  0.1047 -0.1092 -0.0954
  399loPI   C2B 6382   5.708   8.092   9.551  0.0946  0.2166  0.1943
  399loPI   C3B 6383   5.564   8.075   9.023 -0.1357  0.0583 -0.1747
  399loPI   C4B 6384   5.483   8.138   8.563 -0.1330  0.0106  0.1252
  400loPI    C1 6385  13.064   2.024  11.280  0.1371  0.0278  0.0489
  400loPI    C2 6386  12.958   1.892  11.642  0.0568  0.0995  0.0516
  400loPI    C3 6387  13.003   2.284  11.577  0.2043  0.0777  0.0191
  400loPI   PO4 6388  13.040   1.870  11.147  0.1144  0.2070 -0.1133
  400loPI   GL1 6389  13.033   1.724  10.707  0.1643 -0.2376  0.1842
  400loPI   GL2 6390  12.920   1.923  10.590 -0.1971 -0.1564 -0.2106
  400loPI   C1A 6391  13.321   1.443  10.442 -0.0348  0.3452 -0.0802
  400loPI   C2A 6392  13.397   1.364  10.054  0.3455  0.0411  0.0490
  400loPI   C3A 6393  13.502   1.300   9.596  0.1521 -0.3973  0.2291
  400loPI   C4A 6394  13.436   1.464   9.207 -0.3523  0.0269  0.1371
  400loPI   C5A 6395  13.378   1.413   8.864  0.1239  0.2078  0.0443
  400loPI   C6A 6396  13.233   1.760   8.582  0.1390 -0.3664  0.1364
  400loPI   C1B 6397  12.973   1.749  10.199  0.0290  0.1850  0.0671
  400loPI   C2B 6398  12.969   1.607   9.917  0.0232 -0.1066  0.1116
  400loPI   C3B 6399  13.126   1.665   9.495  0.3468 -0.0325  0.2053
  400loPI   C4B 6400  13.036   1.724   9.079  0.1321 -0.0016  0.1163
  401loPI    C1 6401   7.961   4.006  10.821 -0.2250  0.0999 -0.2900
  401loPI    C2 6402   7.728   4.013  11.146  0.1108  0.1233 -0.0445
  401loPI    C3 6403   7.960   3.695  11.073  0.0507  0.1262 -0.2526
  401loPI   PO4 6404   7.884   4.080  10.677 -0.0906  0.0550  0.2995
  401loPI   GL1 6405   7.912   4.076  10.240  0.2448  0.2437  0.3815
  401loPI   GL2 6406   7.551   3.967  10.324  0.0883  0.2491  0.0373
  401loPI   C1A 6407   8.079   4.091   9.853 -0.2166 -0.1051 -0.0386
  401loPI   C2A 6408   8.014   4.089   9.354 -0.0711 -0.0098 -0.0727
  401loPI   C3A 6409   8.153   4.176   8.978  0.2188 -0.0072  0.1091
  401loPI   C4A 6410   8.247   4.005   8.519  0.2886  0.2093  0.2958
  401loPI   C5A 6411   8.040   3.737   8.287 -0.2583 -0.3596  0.2276
  401loPI   C6A 6412   7.591   3.787   8.169  0.1528 -0.0246 -0.0213
  401loPI   C1B 6413   7.552   3.895   9.895  0.0930  0.1620 -0.1252
  401loPI   C2B 6414   7.514   3.967   9.495 -0.0598 -0.0836  0.0830
  401loPI   C3B 6415   7.607   3.952   8.951 -0.2817  0.1752  0.1398
  401loPI   C4B 6416   7.701   4.064   8.567  0.0792  0.1884  0.3383
  402loPI    C1 6417  16.277  13.026  11.353 -0.3432 -0.3370 -0.2407
  402loPI    C2 6418  15.900  13.049  11.485 -0.2821 -0.1736 -0.0895
  402loPI    C3 6419  16.183  12.885  11.715 -0.1509  0.2234  0.0389
  402loPI   PO4 6420  16.281  13.106  11.074 -0.1620 -0.1096  0.2395
  402loPI   GL1 6421  16.210  13.109  10.575 -0.2263  0.4560  0.0464
  402loPI   GL2 6422  16.305  13.348  10.369 -0.2821 -0.0306 -0.1293
  402loPI   C1A 6423  16.541  12.984  10.193 -0.1328  0.0918 -0.1916
  402loPI   C2A 6424  16.527  13.044   9.718  0.1940  0.0872 -0.0373
  402loPI   C3A 6425  16.550  12.994   9.342  0.1225  0.3222  0.0886
  402loPI   C4A 6426  16.467  12.952   8.932  0.1141 -0.0390 -0.2955
  402loPI   C5A 6427  16.393  12.964   8.498  0.0939 -0.0323 -0.1542
  402loPI   C6A 6428  16.478  12.746   8.030 -0.2815 -0.0384 -0.2722
  402loPI   C1B 6429  16.266  13.390   9.923 -0.0789  0.1353 -0.0702
  402loPI   C2B 6430  16.190  13.337   9.471  0.1342  0.3163 -0.2009
  402loPI   C3B 6431  16.062  13.320   9.038  0.0672  0.2947  0.0202
  402loPI   C4B 6432  15.997  13.131   8.651  0.1471  0.0913  0.1646
  403loPI    C1 6433  11.274  13.471  11.593 -0.0881 -0.0663 -0.1578
  403loPI    C2 6434  10.906  13.317  11.621 -0.0449 -0.1481 -0.0302
  403loPI    C3 6435  11.087  13.462  11.946  0.0023 -0.0292 -0.1089
  403loPI   PO4 6436  11.287  13.596  11.380  0.0972 -0.0487  0.0974
  403loPI   GL1 6437  11.308  13.672  10.880 -0.0560 -0.2511 -0.2813
  403loPI   GL2 6438  11.098  13.577  10.635  0.2500  0.2588  0.0214
  403loPI   C1A 6439  11.617  13.525  10.571 -0.4046  0.0227 -0.3544
  403loPI   C2A 6440  11.686  13.575  10.192  0.0161 -0.1034  0.0504
  403loPI   C3A 6441  11.593  13.487   9.896  0.0590 -0.0323  0.0606
  403loPI   C4A 6442  11.596  13.522   9.422 -0.2024 -0.1038 -0.1177
  403loPI   C5A 6443  11.601  13.474   9.108 -0.0076 -0.0882  0.2939
  403loPI   C6A 6444  11.611  13.719   8.767 -0.0712 -0.0681 -0.1694
  403loPI   C1B 6445  11.233  13.856  10.358 -0.0776 -0.1099  0.0215
  403loPI   C2B 6446  11.278  13.828  10.021  0.2183  0.1125 -0.0415
  403loPI   C3B 6447  11.264  13.861   9.637  0.2701  0.0850 -0.0297
  403loPI   C4B 6448  11.224  13.847   9.166 -0.0566  0.2695 -0.0111
  404loPI    C1 6449  12.736  12.501  11.199 -0.1671  0.0548 -0.1634
  404loPI    C2 6450  12.677  12.105  11.200 -0.0175  0.0322 -0.0759
  404loPI    C3 6451  12.604  12.319  11.529 -0.0910  0.0764 -0.1207
  404loPI   PO4 6452  12.631  12.663  11.096 -0.1516 -0.0600 -0.1845
  404loPI   GL1 6453  12.503  12.947  10.660  0.2640  0.2095  0.2131
  404loPI   GL2 6454  12.821  12.981  10.698 -0.2051  0.3292 -0.2756
  404loPI   C1A 6455  12.346  12.928  10.310 -0.1682  0.0777  0.2853
  404loPI   C2A 6456  12.437  12.919   9.855 -0.0663 -0.2678 -0.0346
  404loPI   C3A 6457  12.420  12.920   9.431  0.0514  0.5871 -0.0107
  404loPI   C4A 6458  12.446  12.823   8.979 -0.0991  0.0505 -0.1918
  404loPI   C5A 6459  12.456  12.761   8.542 -0.0204 -0.3702  0.1012
  404loPI   C6A 6460  12.437  12.712   8.067 -0.3481 -0.1804 -0.2600
  404loPI   C1B 6461  12.856  13.090  10.184  0.1507 -0.1756  0.0068
  404loPI   C2B 6462  12.882  13.042   9.778  0.0683  0.1104 -0.3106
  404loPI   C3B 6463  12.887  13.017   9.349 -0.0686 -0.2094 -0.0854
  404loPI   C4B 6464  12.938  13.016   8.965  0.0477 -0.0996 -0.0846
  405loPI    C1 6465  13.456   4.726  10.882  0.2517  0.0792 -0.1972
  405loPI    C2 6466  13.787   4.671  11.100  0.1475  0.1383 -0.0214
  405loPI    C3 6467  13.448   4.786  11.277  0.0446  0.1266 -0.2074
  405loPI   PO4 6468  13.502   4.625  10.674  0.3177  0.0849 -0.2256
  405loPI   GL1 6469  13.433   4.510  10.296  0.1146 -0.1408 -0.0532
  405loPI   GL2 6470  13.803   4.516  10.157  0.1966 -0.1249  0.0439
  405loPI   C1A 6471  13.409   4.386   9.882 -0.1569 -0.0649  0.2255
  405loPI   C2A 6472  13.297   4.410   9.448 -0.2408 -0.2067 -0.1655
  405loPI   C3A 6473  13.378   4.392   9.048 -0.0917 -0.2123  0.0942
  405loPI   C4A 6474  13.306   4.287   8.582 -0.1733 -0.1527  0.1999
  405loPI   C5A 6475  13.301   4.501   8.247  0.2092 -0.0580  0.2219
  405loPI   C6A 6476  12.854   4.553   8.049  0.1148  0.1827  0.2283
  405loPI   C1B 6477  13.861   4.612   9.755  0.0001  0.0038 -0.0774
  405loPI   C2B 6478  13.848   4.600   9.422  0.2608  0.0509  0.0748
  405loPI   C3B 6479  13.910   4.595   8.988 -0.0148  0.2215  0.1697
  405loPI   C4B 6480  13.790   4.560   8.522 -0.2474  0.1379 -0.0004
  406loPI    C1 6481   3.518  17.573  11.828 -0.0712 -0.3499  0.0529
  406loPI    C2 6482   3.510  17.827  12.138  0.2320  0.1394 -0.3252
  406loPI    C3 6483   3.708  17.481  12.167 -0.0577  0.0051  0.1464
  406loPI   PO4 6484   3.537  17.705  11.602  0.2226 -0.2074  0.0358
  406loPI   GL1 6485   3.356  17.663  11.200 -0.0693 -0.0815 -0.0957
  406loPI   GL2 6486   3.493  17.436  11.037  0.1509 -0.0014  0.1430
  406loPI   C1A 6487   3.563  17.856  10.810  0.1771 -0.1244  0.0759
  406loPI   C2A 6488   3.627  17.808  10.389  0.2882  0.0323  0.2600
  406loPI   C3A 6489   3.714  17.810   9.934  0.3150 -0.1486 -0.1888
  406loPI   C4A 6490   3.739  17.812   9.559 -0.0716 -0.2333  0.0730
  406loPI   C5A 6491   3.872  17.936   9.128 -0.0661  0.0156  0.2608
  406loPI   C6A 6492   3.964  17.904   8.622 -0.1975 -0.1375  0.1461
  406loPI   C1B 6493   3.497  17.338  10.623 -0.2823 -0.1245 -0.1206
  406loPI   C2B 6494   3.642  17.243  10.129  0.2997  0.0295 -0.0496
  406loPI   C3B 6495   3.756  17.258   9.814  0.1827 -0.1988  0.0743
  406loPI   C4B 6496   3.650  17.315   9.481  0.1354 -0.1602 -0.1689
  407loPI    C1 6497   5.311  10.862  11.264 -0.3113  0.0032  0.0397
  407loPI    C2 6498   5.133  11.079  11.549 -0.2248  0.0479  0.0601
  407loPI    C3 6499   5.486  10.905  11.621 -0.1361  0.1744 -0.0650
  407loPI   PO4 6500   5.354  10.963  11.056  0.1114  0.0799 -0.1534
  407loPI   GL1 6501   5.469  11.009  10.614 -0.0938 -0.1461  0.0094
  407loPI   GL2 6502   5.746  10.926  10.439 -0.3277  0.0352  0.0049
  407loPI   C1A 6503   5.367  11.208  10.190 -0.0195  0.1476  0.0419
  407loPI   C2A 6504   5.297  11.187   9.736 -0.2125  0.0294  0.0614
  407loPI   C3A 6505   5.388  11.182   9.310 -0.2924  0.1728 -0.4527
  407loPI   C4A 6506   5.365  11.114   8.899  0.0451 -0.1426  0.0580
  407loPI   C5A 6507   5.172  11.191   8.506 -0.0996 -0.1434 -0.1980
  407loPI   C6A 6508   4.798  10.919   8.281  0.0032 -0.0898  0.3950
  407loPI   C1B 6509   5.824  10.886   9.998  0.2638  0.1722 -0.2575
  407loPI   C2B 6510   5.705  10.847   9.653 -0.0770 -0.2167  0.3245
  407loPI   C3B 6511   5.697  10.819   9.160 -0.1605  0.1023  0.1766
  407loPI   C4B 6512   5.821  10.887   8.734 -0.0709 -0.1160 -0.1038
  408loPI    C1 6513   9.288  12.729  11.157 -0.0231  0.2503 -0.0977
  408loPI    C2 6514   9.077  13.038  11.299  0.2799  0.3459  0.1560
  408loPI    C3 6515   9.262  12.789  11.552 -0.0455 -0.1095 -0.0410
  408loPI   PO4 6516   9.378  12.905  10.953 -0.0347 -0.0386 -0.1627
  408loPI   GL1 6517   9.462  12.795  10.589  0.3952 -0.0582  0.1576
  408loPI   GL2 6518   9.729  12.856  10.575 -0.5086 -0.1579  0.0425
  408loPI   C1A 6519   9.238  13.007  10.256 -0.2367 -0.0695 -0.0177
  408loPI   C2A 6520   9.323  13.108   9.789  0.0579 -0.1575 -0.0294
  408loPI   C3A 6521   9.184  13.057   9.318 -0.1624 -0.3234  0.1105
  408loPI   C4A 6522   9.234  13.148   8.944  0.0948 -0.1043  0.1327
  408loPI   C5A 6523   9.020  13.120   8.646  0.0549  0.0535  0.0922
  408loPI   C6A 6524   8.744  12.862   8.557 -0.2519  0.0305  0.1244
  408loPI   C1B 6525   9.709  12.881  10.162 -0.4304 -0.0346  0.0531
  408loPI   C2B 6526   9.778  12.859   9.796 -0.0002  0.0518  0.0645
  408loPI   C3B 6527   9.733  12.783   9.365 -0.2702 -0.1473  0.2399
  408loPI   C4B 6528   9.644  12.885   8.946 -0.0921  0.0350  0.0145
  409loPI    C1 6529   6.784   8.131  10.896  0.2810  0.1223  0.0527
  409loPI    C2 6530   6.924   7.864  11.159  0.0754  0.0570  0.0979
  409loPI    C3 6531   6.586   8.063  11.237  0.1163  0.1786 -0.0306
  409loPI   PO4 6532   6.680   7.991  10.656 -0.0201 -0.1287  0.1096
  409loPI   GL1 6533   6.440   8.291  10.353 -0.1681 -0.0275 -0.1726
  409loPI   GL2 6534   6.427   7.983  10.233 -0.1593 -0.2464  0.1391
  409loPI   C1A 6535   6.660   8.451   9.906  0.1354 -0.1420  0.0314
  409loPI   C2A 6536   6.626   8.459   9.356 -0.1673  0.1696  0.0540
  409loPI   C3A 6537   6.489   8.390   8.897  0.1310  0.0318  0.2478
  409loPI   C4A 6538   6.425   8.340   8.558 -0.2856 -0.2122  0.0596
  409loPI   C5A 6539   6.144   8.547   8.373  0.0199  0.1888  0.0140
  409loPI   C6A 6540   5.995   8.884   8.168  0.0581 -0.0100 -0.0880
  409loPI   C1B 6541   6.569   7.917   9.886  0.4643 -0.2104  0.0504
  409loPI   C2B 6542   6.535   7.953   9.441 -0.2180 -0.3832  0.4984
  409loPI   C3B 6543   6.411   7.799   9.058  0.1247 -0.2502 -0.0915
  409loPI   C4B 6544   6.482   7.785   8.581  0.0256 -0.0071  0.2202
  410loPI    C1 6545   1.376   3.175  11.236 -0.1820  0.3523 -0.1511
  410loPI    C2 6546   1.615   3.342  10.961  0.0832  0.2193 -0.0061
  410loPI    C3 6547   1.741   3.302  11.339 -0.0204 -0.1967 -0.0103
  410loPI   PO4 6548   1.112   3.266  11.165 -0.1911 -0.1924 -0.2813
  410loPI   GL1 6549   1.055   3.360  10.715 -0.1386 -0.1857  0.0209
  410loPI   GL2 6550   0.871   3.074  10.697 -0.0083  0.1925  0.2724
  410loPI   C1A 6551   1.185   3.221  10.328  0.0430 -0.0746  0.0148
  410loPI   C2A 6552   1.163   3.141   9.846  0.2188  0.1439 -0.3453
  410loPI   C3A 6553   1.011   3.037   9.424  0.0807 -0.1204 -0.2324
  410loPI   C4A 6554   0.957   2.964   8.993  0.1919  0.1117 -0.3796
  410loPI   C5A 6555   0.838   3.158   8.631 -0.2657 -0.1646  0.0330
  410loPI   C6A 6556   0.493   3.300   8.455  0.3349  0.0324  0.1248
  410loPI   C1B 6557   0.810   2.946  10.207  0.2086 -0.0229  0.1336
  410loPI   C2B 6558   0.875   2.666   9.887 -0.0235  0.0410  0.0940
  410loPI   C3B 6559   0.907   2.440   9.563  0.2021 -0.0300  0.0375
  410loPI   C4B 6560   0.977   2.447   9.101 -0.1723 -0.1764 -0.2420
  411loPI    C1 6561   9.762   5.420  10.659 -0.0546  0.0270 -0.2003
  411loPI    C2 6562  10.020   5.455  10.963 -0.0746 -0.0146 -0.1785
  411loPI    C3 6563   9.706   5.701  10.938 -0.0135  0.0591 -0.2242
  411loPI   PO4 6564   9.993   5.291  10.430 -0.1036 -0.0222  0.3419
  411loPI   GL1 6565  10.131   5.303  10.005 -0.0796 -0.0107 -0.0124
  411loPI   GL2 6566   9.845   5.130   9.977 -0.0818 -0.0015  0.0608
  411loPI   C1A 6567  10.256   5.312   9.642 -0.1077  0.3198 -0.2057
  411loPI   C2A 6568  10.287   5.317   9.238 -0.0299 -0.0271  0.0765
  411loPI   C3A 6569  10.156   5.365   8.781 -0.1619 -0.3217  0.0480
  411loPI   C4A 6570  10.102   5.460   8.402 -0.0599 -0.0558 -0.1825
  411loPI   C5A 6571   9.947   5.398   8.015 -0.0070  0.1861  0.0057
  411loPI   C6A 6572   9.542   5.297   7.825 -0.0158  0.0374 -0.0764
  411loPI   C1B 6573   9.808   5.139   9.537  0.1624 -0.0397  0.2366
  411loPI   C2B 6574   9.820   5.156   9.062  0.2389  0.0125 -0.3251
  411loPI   C3B 6575   9.722   5.246   8.563  0.1628  0.0112 -0.0265
  411loPI   C4B 6576   9.732   4.998   8.239 -0.0960 -0.3520  0.1435
  412loPI    C1 6577   5.720   6.254  11.428 -0.1075  0.1109  0.1172
  412loPI    C2 6578   5.342   6.238  11.557 -0.0450  0.0103  0.2913
  412loPI    C3 6579   5.545   6.582  11.576 -0.2444  0.1595 -0.1470
  412loPI   PO4 6580   5.695   6.124  11.179  0.1476  0.1434  0.0617
  412loPI   GL1 6581   5.651   6.080  10.744  0.0542 -0.2506 -0.0365
  412loPI   GL2 6582   5.781   5.788  10.845 -0.1501  0.0300  0.1270
  412loPI   C1A 6583   5.685   6.096  10.289  0.1143  0.2050  0.1120
  412loPI   C2A 6584   5.615   6.109   9.909  0.2227 -0.1420 -0.2411
  412loPI   C3A 6585   5.725   6.123   9.523 -0.2180 -0.0677  0.0816
  412loPI   C4A 6586   5.818   6.102   9.036  0.1527 -0.2075 -0.1946
  412loPI   C5A 6587   5.728   6.225   8.624  0.2189  0.0202 -0.0889
  412loPI   C6A 6588   5.970   6.569   8.465 -0.1242  0.2388 -0.1354
  412loPI   C1B 6589   5.622   5.595  10.459 -0.1595 -0.0577  0.1015
  412loPI   C2B 6590   5.614   5.577   9.964 -0.0687 -0.4779 -0.1580
  412loPI   C3B 6591   5.614   5.594   9.564  0.0678  0.2439  0.1363
  412loPI   C4B 6592   5.642   5.615   9.204  0.2984  0.1261  0.1365
  413loPI    C1 6593   3.367  16.031  11.806 -0.1525 -0.0959 -0.2236
  413loPI    C2 6594   3.263  16.382  11.965  0.0379  0.0147 -0.3392
  413loPI    C3 6595   2.994  16.087  11.939 -0.0969  0.1191 -0.1551
  413loPI   PO4 6596   3.463  16.106  11.551  0.1129  0.2962  0.0956
  413loPI   GL1 6597   3.374  16.335  11.168 -0.2149 -0.0398 -0.2835
  413loPI   GL2 6598   3.284  16.197  10.960 -0.0812  0.2995 -0.0791
  413loPI   C1A 6599   3.489  16.676  10.920  0.0788 -0.1329  0.1002
  413loPI   C2A 6600   3.565  16.742  10.455 -0.2395 -0.1468 -0.1658
  413loPI   C3A 6601   3.530  16.747  10.111  0.0867  0.0224 -0.1229
  413loPI   C4A 6602   3.550  16.812   9.629  0.0797  0.0459  0.2112
  413loPI   C5A 6603   3.639  16.831   9.136 -0.0590  0.1024  0.1945
  413loPI   C6A 6604   3.894  16.762   8.837  0.1982 -0.0078  0.1235
  413loPI   C1B 6605   3.112  16.500  10.628 -0.3068  0.0121 -0.2021
  413loPI   C2B 6606   3.098  16.591  10.217  0.0478 -0.3379 -0.1790
  413loPI   C3B 6607   3.089  16.608   9.705 -0.2103  0.3524 -0.1869
  413loPI   C4B 6608   3.101  16.654   9.331  0.0700  0.1395  0.2178
  414loPI    C1 6609   7.935   8.784  11.308  0.0089  0.0216 -0.1648
  414loPI    C2 6610   8.230   8.520  11.250  0.1063  0.0667  0.1094
  414loPI    C3 6611   7.940   8.441  11.514  0.1328  0.2297  0.1887
  414loPI   PO4 6612   8.039   8.916  10.998  0.0311  0.3785  0.2062
  414loPI   GL1 6613   8.137   9.018  10.575  0.0920 -0.2651  0.1660
  414loPI   GL2 6614   8.159   8.749  10.481  0.2254 -0.2347  0.0402
  414loPI   C1A 6615   8.107   8.951  10.059  0.1574 -0.2181  0.1165
  414loPI   C2A 6616   8.121   8.874   9.617 -0.0876  0.0245 -0.0158
  414loPI   C3A 6617   8.112   8.959   9.213 -0.0142 -0.2069  0.0647
  414loPI   C4A 6618   8.171   8.927   8.759 -0.1784  0.1397 -0.0918
  414loPI   C5A 6619   8.128   8.589   8.474  0.0315 -0.0335 -0.1388
  414loPI   C6A 6620   7.778   8.389   8.196 -0.0044 -0.0016 -0.0204
  414loPI   C1B 6621   8.128   8.433  10.096 -0.0147  0.2275  0.4246
  414loPI   C2B 6622   8.011   8.402   9.777 -0.3941 -0.0738  0.0356
  414loPI   C3B 6623   7.961   8.411   9.375  0.0131 -0.0293 -0.2599
  414loPI   C4B 6624   8.068   8.421   8.934  0.3387 -0.1044 -0.4160
  415loPI    C1 6625  14.028   1.308  11.313 -0.0171  0.2868 -0.0594
  415loPI    C2 6626  13.641   1.323  11.412 -0.0268 -0.2951  0.0248
  415loPI    C3 6627  13.922   1.379  11.692 -0.0529 -0.4474  0.0824
  415loPI   PO4 6628  14.072   1.500  11.142  0.1698 -0.0404 -0.0880
  415loPI   GL1 6629  14.228   1.554  10.759  0.2796 -0.1068  0.2472
  415loPI   GL2 6630  14.280   1.855  10.560  0.1292 -0.0308 -0.0258
  415loPI   C1A 6631  14.159   1.349  10.466  0.1517  0.1210  0.0667
  415loPI   C2A 6632  14.148   1.257  10.030  0.1308  0.2290 -0.3646
  415loPI   C3A 6633  14.266   1.265   9.657 -0.2161 -0.0005 -0.0344
  415loPI   C4A 6634  14.302   1.203   9.137 -0.4333  0.0964  0.1677
  415loPI   C5A 6635  14.066   1.115   8.769 -0.1604 -0.1746  0.0234
  415loPI   C6A 6636  13.587   0.950   8.653  0.0726 -0.0856  0.2582
  415loPI   C1B 6637  14.338   1.757  10.045 -0.2610  0.0407  0.0025
  415loPI   C2B 6638  14.322   1.752   9.512 -0.0136  0.0960 -0.0319
  415loPI   C3B 6639  14.435   1.754   9.021 -0.1088  0.4683 -0.0007
  415loPI   C4B 6640  14.446   1.596   8.614 -0.2800 -0.0693  0.1243
  416loPI    C1 6641   4.933   9.822  11.165  0.1537 -0.0273 -0.0606
  416loPI    C2 6642   5.065   9.477  11.318  0.2770  0.0781  0.0747
  416loPI    C3 6643   5.242   9.820  11.419  0.2795  0.1631 -0.2091
  416loPI   PO4 6644   4.964   9.770  10.917  0.1015 -0.3534 -0.0956
  416loPI   GL1 6645   4.694   9.833  10.575  0.2138  0.0924 -0.1899
  416loPI   GL2 6646   4.462  10.069  10.608  0.0699  0.1542 -0.1642
  416loPI   C1A 6647   4.645   9.941  10.154  0.1535 -0.1972 -0.0125
  416loPI   C2A 6648   4.579  10.058   9.756 -0.1879 -0.1120  0.0014
  416loPI   C3A 6649   4.563  10.085   9.246 -0.1372  0.1182 -0.2142
  416loPI   C4A 6650   4.597  10.153   8.744  0.0435  0.1453  0.0050
  416loPI   C5A 6651   4.282  10.051   8.421  0.1700 -0.3145  0.1281
  416loPI   C6A 6652   4.154   9.707   8.283 -0.1392  0.0501  0.0236
  416loPI   C1B 6653   4.295  10.309  10.253  0.0623  0.2103  0.2251
  416loPI   C2B 6654   4.190  10.446   9.843 -0.0524 -0.0700 -0.1743
  416loPI   C3B 6655   4.153  10.375   9.319  0.0868  0.0430 -0.1409
  416loPI   C4B 6656   4.136  10.323   8.868  0.1176  0.3486 -0.0035
  417loPI    C1 6657   4.196  11.481  11.223 -0.0779  0.0173 -0.0231
  417loPI    C2 6658   3.960  11.224  11.029  0.0839  0.1322 -0.3812
  417loPI    C3 6659   3.812  11.445  11.328 -0.0765 -0.3119 -0.1224
  417loPI   PO4 6660   4.338  11.562  11.013 -0.2080 -0.0946 -0.0683
  417loPI   GL1 6661   4.473  11.472  10.598  0.3614  0.0079  0.1426
  417loPI   GL2 6662   4.244  11.611  10.491 -0.0232 -0.3193 -0.0522
  417loPI   C1A 6663   4.480  11.278  10.196 -0.2389  0.0327  0.2033
  417loPI   C2A 6664   4.464  11.360   9.787 -0.0446 -0.2246  0.2125
  417loPI   C3A 6665   4.429  11.406   9.424  0.0583 -0.0809 -0.2682
  417loPI   C4A 6666   4.475  11.302   9.008  0.1468  0.2292 -0.1336
  417loPI   C5A 6667   4.433  11.254   8.494  0.0673  0.0012 -0.3377
  417loPI   C6A 6668   4.378  11.532   8.228 -0.1764 -0.0507  0.0038
  417loPI   C1B 6669   4.045  11.633  10.105 -0.1253  0.0942  0.0239
  417loPI   C2B 6670   4.009  11.767   9.618  0.0596 -0.0678  0.1778
  417loPI   C3B 6671   4.111  11.727   9.206  0.0565 -0.1957 -0.1533
  417loPI   C4B 6672   4.119  11.684   8.801 -0.2726  0.1351  0.1610
  418loPI    C1 6673  13.061   4.426  10.801 -0.0489 -0.2643  0.0414
  418loPI    C2 6674  12.700   4.414  10.973 -0.1030  0.0117 -0.0478
  418loPI    C3 6675  12.934   4.736  11.020  0.0288 -0.0612 -0.1961
  418loPI   PO4 6676  13.008   4.412  10.549 -0.3320 -0.0199  0.2436
  418loPI   GL1 6677  12.989   4.269  10.172  0.0742  0.1576 -0.0699
  418loPI   GL2 6678  12.708   4.310  10.114  0.0099  0.0250  0.1464
  418loPI   C1A 6679  12.951   4.237   9.705  0.4896  0.1708 -0.0792
  418loPI   C2A 6680  12.842   4.248   9.288  0.2440  0.0259  0.0425
  418loPI   C3A 6681  12.843   4.261   8.830  0.0506  0.0953 -0.0682
  418loPI   C4A 6682  12.843   4.192   8.405 -0.0377 -0.1229 -0.2578
  418loPI   C5A 6683  13.039   4.076   8.060 -0.1665  0.0551  0.4881
  418loPI   C6A 6684  13.334   3.850   7.909 -0.1134  0.0361 -0.2780
  418loPI   C1B 6685  12.474   4.493   9.731  0.2666  0.0309 -0.1565
  418loPI   C2B 6686  12.500   4.557   9.158 -0.1770 -0.0281 -0.0598
  418loPI   C3B 6687  12.430   4.590   8.730 -0.0751  0.1333 -0.2720
  418loPI   C4B 6688  12.469   4.746   8.323  0.3474  0.2956  0.2138
  419loPI    C1 6689  12.154  14.694  11.357  0.1064 -0.1008  0.0690
  419loPI    C2 6690  11.829  14.784  11.571 -0.0883  0.1043 -0.3031
  419loPI    C3 6691  12.071  14.490  11.691 -0.4287 -0.0767 -0.0402
  419loPI   PO4 6692  12.063  14.752  11.111 -0.0851  0.0814 -0.0266
  419loPI   GL1 6693  12.137  14.646  10.738  0.1317  0.0617  0.0660
  419loPI   GL2 6694  11.894  14.438  10.777  0.0595  0.2686 -0.3500
  419loPI   C1A 6695  12.316  14.703  10.242  0.0611  0.3675  0.0969
  419loPI   C2A 6696  12.318  14.752   9.910  0.1242 -0.3433 -0.0044
  419loPI   C3A 6697  12.377  14.729   9.449  0.2697  0.3616 -0.0642
  419loPI   C4A 6698  12.274  14.770   9.142  0.2944  0.3208 -0.1680
  419loPI   C5A 6699  12.289  14.452   8.811 -0.4075  0.2178 -0.2585
  419loPI   C6A 6700  12.329  14.536   8.402  0.1941 -0.0045  0.1682
  419loPI   C1B 6701  11.841  14.533  10.328  0.0904  0.2886 -0.0606
  419loPI   C2B 6702  11.843  14.505   9.915 -0.0109 -0.0062  0.1062
  419loPI   C3B 6703  11.752  14.482   9.494  0.1242  0.2103 -0.1413
  419loPI   C4B 6704  11.750  14.625   9.206 -0.2755  0.3491 -0.1138
  420loPI    C1 6705  13.216   9.873  10.933 -0.0771 -0.0680 -0.0381
  420loPI    C2 6706  13.403  10.101  11.204 -0.2022  0.1562 -0.1378
  420loPI    C3 6707  13.174   9.796  11.324 -0.0212  0.0707 -0.0041
  420loPI   PO4 6708  13.306   9.910  10.739  0.1688 -0.6017  0.1173
  420loPI   GL1 6709  13.309  10.225  10.428  0.1179  0.2520 -0.2044
  420loPI   GL2 6710  13.504  10.357  10.223 -0.2352  0.0880 -0.0440
  420loPI   C1A 6711  13.032  10.097  10.013  0.0425  0.2515 -0.3005
  420loPI   C2A 6712  12.931  10.158   9.536 -0.2009  0.0016  0.3838
  420loPI   C3A 6713  12.897  10.081   8.974  0.0609 -0.3450 -0.0683
  420loPI   C4A 6714  12.899  10.180   8.498  0.1970 -0.0159  0.0601
  420loPI   C5A 6715  12.610  10.274   8.164  0.2802 -0.1575  0.0756
  420loPI   C6A 6716  12.250  10.160   8.202  0.2511 -0.0074 -0.1791
  420loPI   C1B 6717  13.432  10.348   9.807 -0.0536 -0.2993  0.2397
  420loPI   C2B 6718  13.404  10.323   9.357  0.0134  0.1127 -0.1767
  420loPI   C3B 6719  13.361  10.319   8.951  0.0912  0.2102 -0.0674
  420loPI   C4B 6720  13.402  10.241   8.526 -0.2422  0.1798 -0.0241
  421loPI    C1 6721  15.540   7.988  10.602 -0.0720 -0.1574 -0.2495
  421loPI    C2 6722  15.717   7.745  10.865  0.0947  0.0830 -0.1363
  421loPI    C3 6723  15.387   7.946  10.969 -0.0110 -0.0496 -0.2115
  421loPI   PO4 6724  15.524   7.793  10.378 -0.1399  0.0004 -0.1305
  421loPI   GL1 6725  15.717   7.753  10.068 -0.0032 -0.0126  0.2063
  421loPI   GL2 6726  16.054   7.519  10.008  0.0395  0.1719  0.2243
  421loPI   C1A 6727  15.667   7.758   9.595 -0.1505 -0.2907  0.0382
  421loPI   C2A 6728  15.747   7.721   9.218  0.0075  0.0078 -0.2251
  421loPI   C3A 6729  15.763   7.668   8.779 -0.1520  0.1098  0.1481
  421loPI   C4A 6730  15.725   7.718   8.330 -0.0209  0.0982 -0.0918
  421loPI   C5A 6731  15.505   7.702   7.977  0.2087 -0.2243  0.1116
  421loPI   C6A 6732  15.529   7.407   7.665  0.0222  0.2659  0.1553
  421loPI   C1B 6733  16.063   7.424   9.524  0.3592 -0.0429 -0.1253
  421loPI   C2B 6734  16.184   7.445   9.089  0.2548 -0.3199  0.1804
  421loPI   C3B 6735  16.278   7.453   8.619 -0.0561  0.0173  0.0927
  421loPI   C4B 6736  16.303   7.492   8.187  0.1802 -0.1500  0.3518
  422loPI    C1 6737  12.126   1.147  11.072  0.0709  0.0669  0.0328
  422loPI    C2 6738  12.140   1.517  11.223 -0.0098  0.0490  0.0849
  422loPI    C3 6739  12.407   1.242  11.340  0.0304  0.0816  0.0701
  422loPI   PO4 6740  12.112   1.146  10.727  0.2087  0.0128  0.0144
  422loPI   GL1 6741  12.079   1.155  10.254 -0.0542  0.1188 -0.1853
  422loPI   GL2 6742  12.127   1.394  10.289  0.1117 -0.1857 -0.0997
  422loPI   C1A 6743  11.683   1.084   9.981  0.1641  0.0594  0.0829
  422loPI   C2A 6744  11.650   1.102   9.616  0.0188  0.1603 -0.0697
  422loPI   C3A 6745  11.631   1.176   9.177  0.0949 -0.3924 -0.3919
  422loPI   C4A 6746  11.597   1.299   8.770  0.0330  0.1838 -0.0147
  422loPI   C5A 6747  11.634   1.446   8.400  0.1782 -0.1915  0.1585
  422loPI   C6A 6748  11.502   1.257   7.972  0.1738  0.0204  0.2868
  422loPI   C1B 6749  12.101   1.324   9.787  0.1050 -0.0737  0.3116
  422loPI   C2B 6750  12.101   1.373   9.369 -0.0299  0.3332  0.0913
  422loPI   C3B 6751  12.152   1.218   8.942  0.3131 -0.1731 -0.3672
  422loPI   C4B 6752  12.317   1.262   8.482 -0.0857  0.1862  0.0547
  423loPI    C1 6753  12.023   5.196  11.140  0.0282 -0.0071  0.2279
  423loPI    C2 6754  12.178   5.561  11.090  0.1034 -0.0851 -0.1353
  423loPI    C3 6755  12.243   5.361  11.430  0.2059  0.1685 -0.0030
  423loPI   PO4 6756  12.059   5.021  10.831 -0.0383 -0.0281 -0.2114
  423loPI   GL1 6757  12.085   4.978  10.417  0.2214 -0.0514 -0.2629
  423loPI   GL2 6758  11.972   5.140  10.331 -0.2065  0.0606  0.1620
  423loPI   C1A 6759  12.120   4.773  10.017  0.1197 -0.0521 -0.4378
  423loPI   C2A 6760  12.114   4.799   9.571  0.1425 -0.3924 -0.2899
  423loPI   C3A 6761  12.108   4.915   9.106 -0.0695  0.1644 -0.0248
  423loPI   C4A 6762  12.100   4.975   8.718 -0.0234 -0.1070  0.2179
  423loPI   C5A 6763  12.068   5.001   8.342  0.1724  0.0898  0.1123
  423loPI   C6A 6764  11.991   4.792   8.009  0.1473  0.1366  0.2956
  423loPI   C1B 6765  11.762   5.252   9.954 -0.0093  0.0337 -0.0699
  423loPI   C2B 6766  11.665   5.270   9.530 -0.3662 -0.7817 -0.1446
  423loPI   C3B 6767  11.700   5.243   9.011  0.1033 -0.0853  0.2234
  423loPI   C4B 6768  11.616   5.226   8.661  0.0422  0.0712  0.0187
  424loPI    C1 6769  17.012   6.097  11.011 -0.0307  0.0901  0.0120
  424loPI    C2 6770  16.821   5.746  11.023  0.2679 -0.0793 -0.0844
  424loPI    C3 6771  16.613   6.086  10.995 -0.0304 -0.2379  0.1458
  424loPI   PO4 6772  17.264   6.069  10.713 -0.0861  0.0933  0.1845
  424loPI   GL1 6773  17.244   5.991  10.283  0.1990 -0.0064 -0.0216
  424loPI   GL2 6774  17.351   6.305  10.233  0.0513  0.0670  0.1771
  424loPI   C1A 6775  17.271   5.876   9.975  0.0653 -0.0953  0.0346
  424loPI   C2A 6776  17.332   5.873   9.536  0.0871  0.0114  0.0712
  424loPI   C3A 6777  17.359   5.898   9.009  0.1332  0.0316  0.1897
  424loPI   C4A 6778  17.236   5.911   8.582  0.1098 -0.1090  0.2149
  424loPI   C5A 6779  17.064   5.766   8.214  0.2970  0.2472 -0.0052
  424loPI   C6A 6780  17.026   5.442   7.855 -0.3677 -0.0013 -0.0683
  424loPI   C1B 6781  17.371   6.348   9.799 -0.0096  0.0156  0.0080
  424loPI   C2B 6782  17.456   6.385   9.389  0.0489  0.1049 -0.0143
  424loPI   C3B 6783  17.505   6.472   8.988 -0.1174 -0.0477 -0.1017
  424loPI   C4B 6784  17.414   6.440   8.592 -0.1220  0.0583  0.2185
  425loPI    C1 6785   2.621   1.072  11.586  0.0588  0.0345 -0.0397
  425loPI    C2 6786   2.983   1.062  11.757  0.0234 -0.2184  0.0252
  425loPI    C3 6787   2.671   1.212  11.958  0.0712 -0.0938  0.0075
  425loPI   PO4 6788   2.625   1.124  11.368  0.1075 -0.1622 -0.0959
  425loPI   GL1 6789   2.720   1.109  10.972  0.0104 -0.1081  0.2600
  425loPI   GL2 6790   3.003   0.961  10.892 -0.0654 -0.1121  0.0688
  425loPI   C1A 6791   2.473   1.160  10.611 -0.0461  0.0799  0.2069
  425loPI   C2A 6792   2.497   1.086  10.197 -0.3689  0.0115  0.1453
  425loPI   C3A 6793   2.496   1.091   9.805 -0.0070 -0.2499  0.0157
  425loPI   C4A 6794   2.578   1.084   9.332  0.0818 -0.1412 -0.1583
  425loPI   C5A 6795   2.882   0.769   8.957  0.0813  0.0653 -0.2124
  425loPI   C6A 6796   3.292   0.918   8.846 -0.0958 -0.0083 -0.0257
  425loPI   C1B 6797   2.896   0.928  10.457 -0.1360 -0.3561 -0.0233
  425loPI   C2B 6798   2.904   0.750  10.181  0.2030 -0.0319 -0.0341
  425loPI   C3B 6799   2.987   0.830   9.859 -0.1483  0.1388  0.1729
  425loPI   C4B 6800   2.993   0.761   9.438  0.1832 -0.0672 -0.0361
  426loPI    C1 6801   0.044   9.843  10.554  0.4459 -0.1805 -0.1543
  426loPI    C2 6802   0.060  10.237  10.487 -0.0246 -0.1273  0.0044
  426loPI    C3 6803   0.299  10.071  10.761 -0.0078  0.0907  0.1245
  426loPI   PO4 6804  -0.011   9.801  10.245  0.0024 -0.1029 -0.1324
  426loPI   GL1 6805  -0.162   9.829   9.818 -0.1434  0.2068  0.0275
  426loPI   GL2 6806  -0.327   9.484   9.677  0.1400 -0.0959 -0.0944
  426loPI   C1A 6807  -0.184   9.913   9.397 -0.0233  0.1085  0.0832
  426loPI   C2A 6808  -0.211   9.972   8.964  0.1459  0.0027 -0.1907
  426loPI   C3A 6809  -0.103   9.949   8.493 -0.0570 -0.0421 -0.4106
  426loPI   C4A 6810   0.111  10.206   8.190  0.2417 -0.0235  0.1483
  426loPI   C5A 6811   0.495  10.288   8.010 -0.1016  0.1605  0.1983
  426loPI   C6A 6812   0.852  10.101   8.136 -0.1521  0.0693 -0.0188
  426loPI   C1B 6813  -0.273   9.452   9.223  0.1527 -0.1239 -0.1559
  426loPI   C2B 6814  -0.210   9.366   8.750 -0.2404  0.2206  0.1403
  426loPI   C3B 6815  -0.193   9.173   8.322  0.1010  0.1103  0.1425
  426loPI   C4B 6816   0.062   8.970   7.949  0.1499  0.2035 -0.1425
  427loPI    C1 6817   9.412   9.038  11.054 -0.0589 -0.0085 -0.0212
  427loPI    C2 6818   9.770   9.128  11.206 -0.0109 -0.0893 -0.0855
  427loPI    C3 6819   9.494   8.954  11.436 -0.0346  0.0395 -0.0157
  427loPI   PO4 6820   9.493   9.025  10.788  0.1372 -0.1195  0.3567
  427loPI   GL1 6821   9.442   9.368  10.364 -0.1280  0.1509 -0.0521
  427loPI   GL2 6822   9.739   9.286  10.333 -0.0170 -0.0493 -0.1911
  427loPI   C1A 6823   9.169   9.256  10.058  0.1167  0.1945  0.2089
  427loPI   C2A 6824   9.192   9.284   9.666 -0.3071  0.1954  0.2144
  427loPI   C3A 6825   9.090   9.150   9.259  0.3858 -0.0727 -0.1499
  427loPI   C4A 6826   9.133   9.276   8.839 -0.0315 -0.0578 -0.1874
  427loPI   C5A 6827   8.979   9.365   8.483  0.0703 -0.1719 -0.1694
  427loPI   C6A 6828   9.003   9.403   8.124  0.2218 -0.0849 -0.0026
  427loPI   C1B 6829   9.687   9.213   9.890  0.1295  0.1192 -0.0929
  427loPI   C2B 6830   9.593   9.491   9.474  0.2185 -0.0520 -0.0495
  427loPI   C3B 6831   9.602   9.395   9.043  0.1334  0.1156 -0.1509
  427loPI   C4B 6832   9.540   9.511   8.587 -0.0584 -0.0560  0.3713
  428loPI    C1 6833  11.649  15.534  11.552  0.1046  0.2083 -0.0809
  428loPI    C2 6834  11.949  15.563  11.815  0.0828  0.0319 -0.0354
  428loPI    C3 6835  11.713  15.240  11.816 -0.0409  0.1213 -0.1416
  428loPI   PO4 6836  11.794  15.628  11.282  0.1547  0.0860  0.2780
  428loPI   GL1 6837  12.143  15.556  10.953 -0.3552 -0.2315  0.1114
  428loPI   GL2 6838  12.095  15.198  10.927 -0.1249  0.0845  0.0839
  428loPI   C1A 6839  12.015  15.569  10.459  0.1048 -0.1379  0.0843
  428loPI   C2A 6840  11.968  15.580  10.034  0.0504 -0.1220 -0.1742
  428loPI   C3A 6841  11.980  15.619   9.606  0.2320 -0.1831  0.1311
  428loPI   C4A 6842  12.012  15.600   9.099  0.0293 -0.0153  0.0535
  428loPI   C5A 6843  11.969  15.662   8.744  0.2281  0.2332  0.0492
  428loPI   C6A 6844  12.112  15.362   8.534  0.1386 -0.1466 -0.1622
  428loPI   C1B 6845  11.990  15.045  10.437  0.3083 -0.0590 -0.0991
  428loPI   C2B 6846  11.894  14.977  10.058  0.0950 -0.2725  0.0149
  428loPI   C3B 6847  11.925  14.972   9.602  0.0595 -0.1961 -0.2412
  428loPI   C4B 6848  11.835  15.120   9.132 -0.0532 -0.0395  0.2535
  429loPI    C1 6849  16.109   5.222  11.093  0.0017  0.3044  0.1045
  429loPI    C2 6850  15.913   5.404  11.390 -0.1265  0.0557  0.1747
  429loPI    C3 6851  16.250   5.203  11.467 -0.1976 -0.0683  0.1657
  429loPI   PO4 6852  15.921   5.114  10.969 -0.0139  0.2077  0.1370
  429loPI   GL1 6853  15.891   5.023  10.585 -0.0022 -0.0630 -0.2710
  429loPI   GL2 6854  15.879   5.418  10.525  0.1666 -0.2917 -0.1248
  429loPI   C1A 6855  15.688   4.792  10.205  0.0662 -0.0696  0.3189
  429loPI   C2A 6856  15.759   4.681   9.794 -0.1722  0.0176  0.0817
  429loPI   C3A 6857  15.704   4.659   9.404  0.2085  0.2118 -0.1577
  429loPI   C4A 6858  15.771   4.857   8.974 -0.2051 -0.0368  0.0211
  429loPI   C5A 6859  15.680   4.768   8.551  0.0334 -0.1968 -0.4458
  429loPI   C6A 6860  15.648   4.618   8.127  0.1494  0.0730 -0.1690
  429loPI   C1B 6861  15.843   5.268  10.106  0.0800 -0.1488  0.3588
  429loPI   C2B 6862  15.811   5.189   9.634  0.3484  0.2327 -0.0732
  429loPI   C3B 6863  15.842   5.293   9.187  0.3657  0.1149 -0.3061
  429loPI   C4B 6864  15.836   5.324   8.711  0.1555 -0.0818  0.1404
  430loPI    C1 6865   1.826  17.342  11.579 -0.0760 -0.0971  0.0543
  430loPI    C2 6866   1.533  17.588  11.697 -0.0639 -0.1673  0.2347
  430loPI    C3 6867   1.789  17.438  11.966  0.1004 -0.1555  0.0868
  430loPI   PO4 6868   1.891  17.438  11.378 -0.0231  0.1897  0.2507
  430loPI   GL1 6869   2.008  17.367  10.995  0.1294  0.0232  0.1663
  430loPI   GL2 6870   1.782  17.116  10.954 -0.0634  0.3195  0.0762
  430loPI   C1A 6871   2.239  17.339  10.634 -0.0573  0.2499  0.2365
  430loPI   C2A 6872   2.230  17.364  10.168  0.1586 -0.1580 -0.0174
  430loPI   C3A 6873   2.359  17.214   9.805 -0.0205  0.1709 -0.0893
  430loPI   C4A 6874   2.338  17.284   9.313 -0.3307 -0.4111  0.1508
  430loPI   C5A 6875   2.555  17.128   9.049 -0.2005 -0.0418  0.1088
  430loPI   C6A 6876   2.830  16.834   8.914  0.0162 -0.0979 -0.2998
  430loPI   C1B 6877   1.797  17.148  10.529  0.0797 -0.2785 -0.2209
  430loPI   C2B 6878   1.765  17.186  10.107  0.0468  0.0524  0.0736
  430loPI   C3B 6879   1.769  17.037   9.741 -0.1004  0.1238 -0.2496
  430loPI   C4B 6880   1.784  17.160   9.273 -0.3101  0.0375  0.0945
  431loPI    C1 6881   2.644  15.376  11.468 -0.0195 -0.3150  0.1628
  431loPI    C2 6882   2.715  15.752  11.583  0.0954 -0.2179 -0.2127
  431loPI    C3 6883   2.771  15.451  11.840 -0.0174  0.0202  0.0972
  431loPI   PO4 6884   2.700  15.435  11.244 -0.0449  0.1339  0.2165
  431loPI   GL1 6885   2.519  15.175  10.881 -0.0423  0.1074 -0.1266
  431loPI   GL2 6886   2.274  15.398  10.901 -0.1956 -0.0438 -0.0798
  431loPI   C1A 6887   2.729  15.093  10.468 -0.0144  0.0397 -0.3871
  431loPI   C2A 6888   2.800  15.100  10.124 -0.1292 -0.1314 -0.3517
  431loPI   C3A 6889   2.767  15.084   9.693  0.1343  0.0783 -0.0633
  431loPI   C4A 6890   2.891  15.103   9.333 -0.0328  0.0018 -0.1403
  431loPI   C5A 6891   3.012  15.119   8.884  0.2396  0.1349  0.1650
  431loPI   C6A 6892   2.716  15.308   8.587 -0.1500  0.0103 -0.1187
  431loPI   C1B 6893   2.378  15.399  10.429  0.0540  0.0005  0.2637
  431loPI   C2B 6894   2.426  15.430   9.968  0.1498  0.0424 -0.2108
  431loPI   C3B 6895   2.401  15.413   9.512  0.1224  0.1309  0.1205
  431loPI   C4B 6896   2.549  15.349   9.072 -0.0543  0.0073 -0.3006
  432loPI    C1 6897   3.056   1.844  11.416  0.1536  0.0475 -0.1494
  432loPI    C2 6898   2.765   1.639  11.234  0.0691  0.2195 -0.2104
  432loPI    C3 6899   2.880   1.538  11.604 -0.0353  0.1212 -0.2043
  432loPI   PO4 6900   3.253   1.863  11.155 -0.3031  0.2031  0.0852
  432loPI   GL1 6901   3.312   2.060  10.704 -0.2968 -0.1161  0.0589
  432loPI   GL2 6902   3.591   2.105  10.685 -0.1995 -0.3838 -0.1545
  432loPI   C1A 6903   3.154   1.832  10.429 -0.1553 -0.2498 -0.0142
  432loPI   C2A 6904   3.164   1.815   9.947 -0.0672  0.1028  0.0861
  432loPI   C3A 6905   3.086   1.888   9.505  0.1394  0.0936 -0.0933
  432loPI   C4A 6906   2.989   1.781   9.046  0.1643 -0.0106 -0.3875
  432loPI   C5A 6907   2.752   1.514   8.758  0.1908  0.0286 -0.1105
  432loPI   C6A 6908   2.486   1.073   8.804 -0.1669  0.1026  0.0382
  432loPI   C1B 6909   3.655   1.998  10.281  0.0017  0.0752 -0.0023
  432loPI   C2B 6910   3.690   1.996   9.799  0.0667 -0.1764 -0.1791
  432loPI   C3B 6911   3.582   1.995   9.395  0.0882  0.2783 -0.0692
  432loPI   C4B 6912   3.469   2.040   8.904 -0.1324 -0.0065 -0.1848
  433loPI    C1 6913  11.421   5.132  10.865 -0.1694  0.1884 -0.1260
  433loPI    C2 6914  11.181   4.936  11.118  0.0823 -0.2368 -0.2053
  433loPI    C3 6915  11.438   5.209  11.257  0.1618 -0.4090 -0.0095
  433loPI   PO4 6916  11.550   4.970  10.682 -0.2301 -0.0394 -0.2774
  433loPI   GL1 6917  11.630   4.795  10.166  0.1866  0.1597 -0.1769
  433loPI   GL2 6918  11.615   4.457  10.088  0.1459  0.2299 -0.0658
  433loPI   C1A 6919  11.608   4.766   9.712 -0.0674  0.3387 -0.2038
  433loPI   C2A 6920  11.588   4.762   9.272  0.3735 -0.1657 -0.1005
  433loPI   C3A 6921  11.538   4.740   8.821 -0.0865 -0.1145 -0.0040
  433loPI   C4A 6922  11.387   4.796   8.365 -0.1501  0.0668  0.0483
  433loPI   C5A 6923  11.465   4.749   7.974  0.2019  0.1954 -0.2551
  433loPI   C6A 6924  11.241   4.874   7.614 -0.1347 -0.1493  0.0672
  433loPI   C1B 6925  11.418   4.275   9.733  0.2084  0.3618 -0.0526
  433loPI   C2B 6926  11.522   4.285   9.318 -0.0254 -0.2720 -0.0021
  433loPI   C3B 6927  11.392   4.291   8.979 -0.0436 -0.0321 -0.1158
  433loPI   C4B 6928  11.423   4.349   8.524 -0.0291 -0.0411 -0.1009
  434loPI    C1 6929  16.206   1.973  11.795  0.4136  0.0102 -0.1428
  434loPI    C2 6930  16.497   1.847  12.039  0.2133 -0.2286 -0.0231
  434loPI    C3 6931  16.115   1.830  12.157  0.1565  0.2130 -0.1246
  434loPI   PO4 6932  16.211   1.775  11.530 -0.1472 -0.2473 -0.2824
  434loPI   GL1 6933  16.070   1.672  11.066 -0.0521 -0.0458 -0.3351
  434loPI   GL2 6934  16.343   1.991  11.065 -0.0971  0.0023  0.1927
  434loPI   C1A 6935  15.940   1.488  10.692  0.0149 -0.0414  0.2525
  434loPI   C2A 6936  16.008   1.419  10.316  0.3214  0.3129 -0.1755
  434loPI   C3A 6937  16.048   1.574   9.855 -0.0007 -0.1325 -0.3301
  434loPI   C4A 6938  16.152   1.464   9.401  0.0899  0.1706 -0.1981
  434loPI   C5A 6939  16.194   1.541   8.972 -0.1042 -0.3401 -0.0728
  434loPI   C6A 6940  16.285   1.800   8.703  0.1181  0.0189  0.0771
  434loPI   C1B 6941  16.081   1.995  10.605  0.1799  0.0573 -0.1002
  434loPI   C2B 6942  16.087   2.035  10.095  0.0689 -0.1384 -0.2205
  434loPI   C3B 6943  16.140   2.037   9.658  0.1382  0.0405 -0.0325
  434loPI   C4B 6944  16.250   2.014   9.241 -0.0780  0.1126 -0.2018
  435loPI    C1 6945  11.082  11.983  11.224  0.0931 -0.0329 -0.0784
  435loPI    C2 6946  11.225  11.660  11.412  0.1777  0.1016  0.0922
  435loPI    C3 6947  11.236  12.017  11.592 -0.0658  0.1728 -0.0289
  435loPI   PO4 6948  11.154  12.094  10.988  0.1918  0.1508 -0.5542
  435loPI   GL1 6949  11.138  12.020  10.641  0.1035 -0.0756 -0.1636
  435loPI   GL2 6950  11.504  11.926  10.637  0.0458 -0.2802 -0.0396
  435loPI   C1A 6951  10.945  12.317  10.269 -0.1952 -0.2459 -0.0705
  435loPI   C2A 6952  10.983  12.340   9.886  0.1758 -0.0322  0.0210
  435loPI   C3A 6953  10.971  12.371   9.413 -0.3838 -0.1254 -0.1842
  435loPI   C4A 6954  10.943  12.335   8.964  0.0265  0.1497 -0.2153
  435loPI   C5A 6955  11.011  12.156   8.594  0.0960 -0.0115  0.2213
  435loPI   C6A 6956  11.255  11.822   8.313 -0.1413 -0.1388 -0.2217
  435loPI   C1B 6957  11.351  12.022  10.144 -0.1466 -0.0982  0.0125
  435loPI   C2B 6958  11.412  11.978   9.685 -0.3082 -0.1511  0.2195
  435loPI   C3B 6959  11.355  12.033   9.235  0.1252  0.0243  0.0699
  435loPI   C4B 6960  11.389  11.940   8.805  0.1480  0.1632 -0.2581
  436loPI    C1 6961   6.357   4.435  11.150 -0.2350 -0.0370 -0.0073
  436loPI    C2 6962   6.236   4.138  11.389 -0.5373  0.0536 -0.0431
  436loPI    C3 6963   6.130   4.515  11.470  0.0049  0.1822  0.1118
  436loPI   PO4 6964   6.217   4.401  10.917 -0.0214 -0.2170 -0.1406
  436loPI   GL1 6965   6.274   4.508  10.484  0.0215 -0.0163 -0.1673
  436loPI   GL2 6966   6.479   4.279  10.521 -0.0063 -0.2801  0.0392
  436loPI   C1A 6967   6.299   4.458  10.083 -0.0651  0.1859 -0.1272
  436loPI   C2A 6968   6.263   4.450   9.645  0.0457 -0.2438  0.2616
  436loPI   C3A 6969   6.320   4.483   9.196 -0.0060  0.1006 -0.0043
  436loPI   C4A 6970   6.239   4.579   8.750 -0.3259 -0.0175  0.2400
  436loPI   C5A 6971   6.457   4.734   8.445 -0.1634  0.0846  0.2192
  436loPI   C6A 6972   6.857   4.633   8.392  0.2307 -0.0296  0.1217
  436loPI   C1B 6973   6.670   4.064  10.094 -0.1885 -0.0415 -0.0514
  436loPI   C2B 6974   6.659   4.042   9.593 -0.0241  0.0616  0.2207
  436loPI   C3B 6975   6.662   4.143   9.118 -0.0087 -0.1108 -0.1197
  436loPI   C4B 6976   6.854   4.226   8.663  0.0674 -0.1514 -0.0157
  437loPI    C1 6977   8.449  12.377  11.583 -0.3400 -0.1457  0.1739
  437loPI    C2 6978   8.065  12.488  11.571 -0.2309  0.2201 -0.1054
  437loPI    C3 6979   8.325  12.691  11.797 -0.1265  0.2217 -0.2257
  437loPI   PO4 6980   8.547  12.263  11.259 -0.5485 -0.1277 -0.1303
  437loPI   GL1 6981   8.596  12.211  10.847 -0.1230 -0.1356  0.1212
  437loPI   GL2 6982   8.393  11.883  10.794 -0.1635  0.0489 -0.2009
  437loPI   C1A 6983   8.617  12.345  10.445  0.0174 -0.0556  0.0658
  437loPI   C2A 6984   8.704  12.447  10.060 -0.1186  0.1431  0.0949
  437loPI   C3A 6985   8.736  12.438   9.590 -0.2092  0.2589 -0.2587
  437loPI   C4A 6986   8.660  12.506   9.197  0.1942  0.0764 -0.2769
  437loPI   C5A 6987   8.522  12.401   8.796 -0.1448 -0.0461 -0.1529
  437loPI   C6A 6988   8.244  12.155   8.545  0.1271 -0.2646  0.0719
  437loPI   C1B 6989   8.510  11.845  10.366 -0.0888  0.1382 -0.0993
  437loPI   C2B 6990   8.598  11.941   9.941  0.2199  0.0375  0.0534
  437loPI   C3B 6991   8.607  11.928   9.494  0.0992  0.1874 -0.3220
  437loPI   C4B 6992   8.537  11.996   9.071  0.0656  0.0053  0.1381
  438loPI    C1 6993   2.728  17.062  11.604 -0.1708  0.1225 -0.1178
  438loPI    C2 6994   2.691  17.428  11.760 -0.0332  0.0366  0.1215
  438loPI    C3 6995   2.712  17.109  12.001  0.0808 -0.1078 -0.0771
  438loPI   PO4 6996   2.776  17.116  11.316  0.0944  0.1387  0.0498
  438loPI   GL1 6997   3.006  17.376  10.964  0.0786 -0.2498 -0.1072
  438loPI   GL2 6998   2.713  17.411  10.829 -0.0149  0.0831 -0.1798
  438loPI   C1A 6999   3.136  17.614  10.605  0.1780  0.1671 -0.4142
  438loPI   C2A 7000   3.231  17.584  10.167 -0.1791  0.0625  0.1824
  438loPI   C3A 7001   3.268  17.582   9.776  0.1657  0.0737  0.0685
  438loPI   C4A 7002   3.269  17.686   9.380  0.0956  0.0346  0.0685
  438loPI   C5A 7003   3.462  17.634   9.087 -0.1316 -0.0914 -0.1687
  438loPI   C6A 7004   3.776  17.314   8.914  0.2548  0.1391 -0.1016
  438loPI   C1B 7005   2.701  17.487  10.394  0.0773  0.1358  0.1224
  438loPI   C2B 7006   2.793  17.400  10.008 -0.0231  0.0761  0.0747
  438loPI   C3B 7007   2.799  17.431   9.553 -0.0265 -0.1580  0.1000
  438loPI   C4B 7008   2.817  17.546   9.162 -0.0511  0.1646  0.1703
  439loPI    C1 7009   5.893  10.276  11.119  0.0396 -0.1217 -0.1347
  439loPI    C2 7010   5.710  10.095  11.425 -0.2905 -0.0961 -0.3131
  439loPI    C3 7011   5.706  10.494  11.397 -0.2144 -0.0958 -0.3228
  439loPI   PO4 7012   5.867  10.162  10.930 -0.0581  0.0529 -0.1316
  439loPI   GL1 7013   5.660  10.205  10.589 -0.0743 -0.2736  0.0150
  439loPI   GL2 7014   5.715  10.375  10.367 -0.3267 -0.0571 -0.0114
  439loPI   C1A 7015   5.541   9.833  10.259  0.0918 -0.1288 -0.0264
  439loPI   C2A 7016   5.505   9.815   9.837  0.2826  0.2859  0.0772
  439loPI   C3A 7017   5.447   9.875   9.411 -0.0923 -0.0513  0.0554
  439loPI   C4A 7018   5.387   9.810   9.019  0.0309 -0.0356  0.2028
  439loPI   C5A 7019   5.343  10.037   8.663 -0.2466  0.6101 -0.0249
  439loPI   C6A 7020   5.433  10.146   8.300  0.0922 -0.0460  0.1421
  439loPI   C1B 7021   5.719  10.382   9.916  0.1872  0.0322  0.0045
  439loPI   C2B 7022   5.614  10.319   9.448  0.0655 -0.0882 -0.0607
  439loPI   C3B 7023   5.578  10.348   9.056 -0.2519  0.1880 -0.0368
  439loPI   C4B 7024   5.534  10.483   8.639  0.0999  0.0569 -0.0542
  440loPI    C1 7025  16.348   5.626  10.844 -0.1477 -0.1950  0.1044
  440loPI    C2 7026  15.971   5.732  10.926 -0.0816  0.1190  0.0175
  440loPI    C3 7027  16.253   5.764  11.207 -0.0892  0.0283  0.0360
  440loPI   PO4 7028  16.359   5.556  10.693  0.0240 -0.0749 -0.0417
  440loPI   GL1 7029  16.249   5.574  10.253 -0.0174  0.0913 -0.0149
  440loPI   GL2 7030  16.363   5.310  10.262 -0.2523 -0.0416 -0.1917
  440loPI   C1A 7031  16.220   5.455   9.792  0.1038 -0.1313 -0.1003
  440loPI   C2A 7032  16.291   5.444   9.369  0.0525 -0.0848 -0.2441
  440loPI   C3A 7033  16.390   5.488   8.913  0.2015  0.0924  0.1440
  440loPI   C4A 7034  16.306   5.342   8.479  0.1930 -0.1220 -0.2165
  440loPI   C5A 7035  16.252   5.688   8.264  0.0274  0.0916  0.0506
  440loPI   C6A 7036  16.524   5.779   8.024 -0.0890 -0.0166  0.0009
  440loPI   C1B 7037  16.632   5.177   9.926  0.0329 -0.0210  0.1758
  440loPI   C2B 7038  16.711   5.063   9.483 -0.0845  0.1252  0.0821
  440loPI   C3B 7039  16.766   5.087   9.115 -0.0880 -0.2153  0.4362
  440loPI   C4B 7040  16.724   5.207   8.705 -0.3850  0.0539 -0.0767
  441loPI    C1 7041  11.560  17.252  11.415  0.1241  0.1984  0.0895
  441loPI    C2 7042  11.189  17.401  11.410  0.0210 -0.0577 -0.1880
  441loPI    C3 7043  11.467  17.565  11.646 -0.3130  0.0243  0.1588
  441loPI   PO4 7044  11.612  17.310  11.106 -0.1047  0.0845 -0.0822
  441loPI   GL1 7045  11.527  17.122  10.666  0.1329 -0.3872  0.1643
  441loPI   GL2 7046  11.397  16.867  10.607 -0.1100  0.0481 -0.1818
  441loPI   C1A 7047  11.771  16.927  10.280 -0.0720  0.1611  0.0755
  441loPI   C2A 7048  11.771  16.816   9.874  0.0697  0.1236 -0.1863
  441loPI   C3A 7049  11.773  16.872   9.430 -0.1835  0.0773  0.2899
  441loPI   C4A 7050  11.809  16.866   9.030  0.0604  0.1381 -0.2429
  441loPI   C5A 7051  11.811  17.123   8.575  0.0010  0.0273  0.0002
  441loPI   C6A 7052  11.794  17.586   8.634 -0.0037  0.1894 -0.0315
  441loPI   C1B 7053  11.353  16.735  10.149  0.3316  0.1021  0.2793
  441loPI   C2B 7054  11.271  16.730   9.683 -0.1968  0.1299 -0.3208
  441loPI   C3B 7055  11.322  16.747   9.183 -0.0646 -0.0484  0.2217
  441loPI   C4B 7056  11.313  16.777   8.772  0.1140  0.0334  0.1413
  442loPI    C1 7057  16.375  10.277  10.429 -0.0070  0.1233 -0.1453
  442loPI    C2 7058  16.656  10.556  10.371  0.0224  0.0588 -0.3190
  442loPI    C3 7059  16.491  10.511  10.733  0.2555  0.0779 -0.2080
  442loPI   PO4 7060  16.296  10.229  10.183 -0.0678  0.0092  0.0049
  442loPI   GL1 7061  16.287  10.572   9.977 -0.3687 -0.0115  0.1754
  442loPI   GL2 7062  15.978  10.670  10.003 -0.3312 -0.0376 -0.3199
  442loPI   C1A 7063  16.226  10.898   9.553 -0.1422  0.1905 -0.1842
  442loPI   C2A 7064  16.254  10.890   9.077 -0.2285  0.1832 -0.1835
  442loPI   C3A 7065  16.269  10.873   8.552  0.1606 -0.2216  0.0050
  442loPI   C4A 7066  16.212  10.899   8.169 -0.0160  0.0768 -0.0160
  442loPI   C5A 7067  16.371  10.751   7.722 -0.1073  0.2561  0.0777
  442loPI   C6A 7068  16.530  10.480   7.520 -0.0287  0.3854 -0.0024
  442loPI   C1B 7069  15.764  10.689   9.653 -0.2426  0.0769  0.0298
  442loPI   C2B 7070  15.801  10.786   9.220 -0.1506  0.1534  0.3681
  442loPI   C3B 7071  15.838  10.688   8.757 -0.3167  0.2362  0.2155
  442loPI   C4B 7072  15.831  10.720   8.313 -0.1611  0.0952  0.2344
  443loPI    C1 7073   4.230   6.342  11.068 -0.0474 -0.1056  0.0102
  443loPI    C2 7074   3.857   6.394  11.203 -0.0436 -0.0082 -0.0161
  443loPI    C3 7075   4.135   6.673  11.272  0.0174 -0.0676 -0.0212
  443loPI   PO4 7076   4.263   6.299  10.772  0.1305  0.2198  0.1006
  443loPI   GL1 7077   4.350   6.049  10.462  0.1295  0.0217  0.0975
  443loPI   GL2 7078   4.044   6.069  10.376  0.1765  0.0008 -0.3471
  443loPI   C1A 7079   4.639   5.822  10.277  0.2025 -0.0548  0.2870
  443loPI   C2A 7080   4.780   5.734   9.886  0.0393 -0.3167 -0.0405
  443loPI   C3A 7081   4.749   5.774   9.464 -0.2240 -0.0152  0.0771
  443loPI   C4A 7082   4.640   5.803   9.006 -0.2394  0.1554  0.2499
  443loPI   C5A 7083   4.669   5.822   8.552 -0.3089  0.3425  0.0999
  443loPI   C6A 7084   4.899   5.897   8.154  0.0775 -0.1378  0.0210
  443loPI   C1B 7085   4.324   6.107   9.971 -0.2245 -0.0819  0.0427
  443loPI   C2B 7086   4.374   6.089   9.499  0.2110  0.0940  0.1250
  443loPI   C3B 7087   4.376   6.155   9.087  0.2259 -0.1266  0.0430
  443loPI   C4B 7088   4.382   6.180   8.619  0.2296  0.1809  0.2005
  444loPI    C1 7089  14.105   7.830  11.036 -0.1049 -0.0513 -0.1428
  444loPI    C2 7090  14.210   7.499  11.235  0.1089  0.0839 -0.0257
  444loPI    C3 7091  14.151   7.841  11.433 -0.1290  0.1139 -0.1438
  444loPI   PO4 7092  14.073   7.722  10.719 -0.2408  0.0973  0.2604
  444loPI   GL1 7093  14.035   7.458  10.386 -0.0376 -0.1890  0.0615
  444loPI   GL2 7094  13.811   7.498  10.205  0.2783 -0.0382  0.0311
  444loPI   C1A 7095  14.257   7.263  10.103  0.2129 -0.0899  0.1763
  444loPI   C2A 7096  14.294   7.188   9.595 -0.1095  0.2768 -0.2623
  444loPI   C3A 7097  14.220   7.242   9.029  0.0944  0.0255 -0.1571
  444loPI   C4A 7098  14.281   7.202   8.696  0.0627 -0.2557  0.1200
  444loPI   C5A 7099  14.348   7.299   8.344 -0.1444  0.2543  0.0914
  444loPI   C6A 7100  14.312   7.738   8.279 -0.1174  0.2125  0.0427
  444loPI   C1B 7101  13.792   7.487   9.832  0.1202  0.0624 -0.1402
  444loPI   C2B 7102  13.876   7.445   9.467 -0.0520 -0.0733 -0.2542
  444loPI   C3B 7103  13.847   7.557   9.063 -0.1186  0.0552  0.3203
  444loPI   C4B 7104  13.935   7.553   8.688  0.1642  0.1544  0.3781
  445loPI    C1 7105  10.873  16.172  11.576 -0.1192  0.1290  0.0468
  445loPI    C2 7106  10.629  16.485  11.629 -0.0949  0.1473  0.0509
  445loPI    C3 7107  10.559  16.141  11.822 -0.0187  0.2071  0.1866
  445loPI   PO4 7108  10.979  16.210  11.368  0.2308  0.0525  0.1647
  445loPI   GL1 7109  10.957  16.152  10.989  0.1220  0.3286  0.0666
  445loPI   GL2 7110  10.872  15.823  10.865  0.1577 -0.0504 -0.0043
  445loPI   C1A 7111  11.218  16.173  10.598  0.0418  0.2873  0.0731
  445loPI   C2A 7112  11.188  16.177  10.251  0.2313 -0.2602  0.4812
  445loPI   C3A 7113  11.234  16.263   9.832  0.1082  0.2895  0.0864
  445loPI   C4A 7114  11.216  16.187   9.401 -0.1194  0.2575  0.1996
  445loPI   C5A 7115  11.210  16.256   8.995  0.0822  0.1276 -0.1835
  445loPI   C6A 7116  11.187  16.253   8.550 -0.0842 -0.1018 -0.1643
  445loPI   C1B 7117  10.760  15.980  10.425  0.2676 -0.2088  0.1853
  445loPI   C2B 7118  10.767  15.995  10.019 -0.0652 -0.2088 -0.1795
  445loPI   C3B 7119  10.781  16.050   9.565 -0.0890  0.1889  0.0269
  445loPI   C4B 7120  10.779  16.126   9.112 -0.0128  0.3294  0.0447
  446loPI    C1 7121   3.617  15.161  11.246  0.0349 -0.3702 -0.0280
  446loPI    C2 7122   3.362  14.910  11.423 -0.3739  0.2783  0.3443
  446loPI    C3 7123   3.614  15.128  11.644  0.0933  0.0880  0.0161
  446loPI   PO4 7124   3.389  15.279  10.999 -0.2725  0.1005 -0.0557
  446loPI   GL1 7125   3.094  15.314  10.700 -0.0410  0.2650 -0.1404
  446loPI   GL2 7126   2.847  15.500  10.747  0.1131 -0.0734 -0.0809
  446loPI   C1A 7127   3.290  15.269  10.362  0.1586 -0.0938  0.0105
  446loPI   C2A 7128   3.275  15.251   9.979  0.0257 -0.0816  0.2458
  446loPI   C3A 7129   3.310  15.213   9.582  0.0582  0.0245 -0.0565
  446loPI   C4A 7130   3.392  15.306   9.170 -0.2370 -0.0262  0.1791
  446loPI   C5A 7131   3.462  15.280   8.760  0.1462  0.0995 -0.3320
  446loPI   C6A 7132   3.387  15.578   8.472 -0.1398  0.2754 -0.2974
  446loPI   C1B 7133   2.856  15.579  10.327 -0.2137 -0.0847  0.3159
  446loPI   C2B 7134   2.881  15.708   9.900 -0.1018 -0.1209 -0.0038
  446loPI   C3B 7135   3.012  15.590   9.457 -0.2633  0.1120  0.1631
  446loPI   C4B 7136   3.036  15.599   9.004 -0.1493  0.0956 -0.0243
  447loPI    C1 7137   4.219  15.717  11.170 -0.2199  0.0615  0.0561
  447loPI    C2 7138   4.376  15.393  11.343 -0.0933  0.1128  0.0380
  447loPI    C3 7139   3.991  15.483  11.399 -0.0514  0.1348  0.3029
  447loPI   PO4 7140   4.253  15.802  10.983  0.3940 -0.1196  0.1162
  447loPI   GL1 7141   4.378  15.762  10.632  0.2171 -0.3040 -0.3849
  447loPI   GL2 7142   4.209  15.540  10.492  0.0245  0.0239 -0.3022
  447loPI   C1A 7143   4.435  16.087  10.367 -0.1091  0.0479 -0.0867
  447loPI   C2A 7144   4.355  16.120   9.966 -0.0153 -0.0705 -0.1254
  447loPI   C3A 7145   4.441  16.172   9.560 -0.0313 -0.2072 -0.1362
  447loPI   C4A 7146   4.482  16.127   9.067 -0.0415 -0.1200 -0.2340
  447loPI   C5A 7147   4.461  15.963   8.655 -0.0460 -0.2815  0.0750
  447loPI   C6A 7148   4.439  15.590   8.533  0.0387  0.1611 -0.0646
  447loPI   C1B 7149   4.211  15.605  10.151 -0.0794 -0.2309  0.3013
  447loPI   C2B 7150   4.170  15.711   9.754 -0.0685  0.2436 -0.4195
  447loPI   C3B 7151   4.394  15.727   9.410 -0.1467 -0.0718 -0.0038
  447loPI   C4B 7152   4.321  15.630   9.061  0.0935  0.0734  0.0614
  448loPI    C1 7153   0.947   8.397  10.652  0.0986  0.1768  0.0246
  448loPI    C2 7154   0.725   8.509  10.965  0.1967  0.0514  0.1401
  448loPI    C3 7155   1.023   8.247  11.015  0.1168 -0.0856 -0.0854
  448loPI   PO4 7156   0.837   8.365  10.450  0.2184  0.0358 -0.3188
  448loPI   GL1 7157   0.853   8.267  10.002  0.1794  0.2854  0.0654
  448loPI   GL2 7158   0.560   8.318  10.051  0.1763 -0.0780  0.1390
  448loPI   C1A 7159   0.990   8.220   9.472  0.0360 -0.0566  0.1430
  448loPI   C2A 7160   0.966   8.373   9.118  0.1830 -0.0708 -0.1263
  448loPI   C3A 7161   0.947   8.413   8.724  0.0758  0.1413 -0.0010
  448loPI   C4A 7162   0.975   8.466   8.379 -0.1525  0.1095 -0.1983
  448loPI   C5A 7163   0.929   8.353   7.978  0.1611  0.0129 -0.0410
  448loPI   C6A 7164   1.137   8.501   7.530  0.0434  0.0900  0.0567
  448loPI   C1B 7165   0.532   8.124   9.617  0.0935  0.0549 -0.1608
  448loPI   C2B 7166   0.555   8.122   9.146  0.3713 -0.1454 -0.4659
  448loPI   C3B 7167   0.454   8.202   8.812  0.0237 -0.1623  0.1682
  448loPI   C4B 7168   0.497   8.337   8.387  0.2695  0.0880 -0.1792
  449loPI    C1 7169   0.900   9.408  10.911  0.0373 -0.2867  0.1012
  449loPI    C2 7170   0.632   9.147  11.054 -0.1710  0.0602  0.3610
  449loPI    C3 7171   0.707   9.486  11.253  0.1372  0.1758  0.0588
  449loPI   PO4 7172   0.797   9.434  10.665 -0.2514  0.2173  0.4622
  449loPI   GL1 7173   0.897   9.261  10.271 -0.2291 -0.0068 -0.0982
  449loPI   GL2 7174   0.629   9.292  10.120  0.0775  0.0306  0.1623
  449loPI   C1A 7175   1.089   9.449   9.869 -0.2531  0.1918 -0.1242
  449loPI   C2A 7176   1.153   9.459   9.424  0.1612 -0.0821  0.0596
  449loPI   C3A 7177   1.074   9.484   9.019  0.1100 -0.3710 -0.2981
  449loPI   C4A 7178   1.203   9.494   8.548  0.0966  0.1154  0.0478
  449loPI   C5A 7179   1.131   9.676   8.150  0.1718 -0.2450 -0.0530
  449loPI   C6A 7180   1.149   9.910   7.743  0.1806 -0.2161 -0.0492
  449loPI   C1B 7181   0.589   9.335   9.622 -0.0240 -0.0356  0.3542
  449loPI   C2B 7182   0.605   9.266   9.188 -0.0394 -0.1272  0.2060
  449loPI   C3B 7183   0.654   9.209   8.724  0.0408 -0.2205  0.2664
  449loPI   C4B 7184   0.758   9.381   8.227 -0.3113 -0.0491 -0.1114
  450loPI    C1 7185   3.476   5.681  10.558  0.1018  0.0702 -0.0148
  450loPI    C2 7186   3.273   5.623  10.898 -0.0130  0.2477 -0.0518
  450loPI    C3 7187   3.389   5.310  10.678 -0.0719  0.1379  0.0723
  450loPI   PO4 7188   3.685   5.752  10.624 -0.1945 -0.0855 -0.2735
  450loPI   GL1 7189   4.031   5.540  10.425 -0.0856 -0.1058 -0.1090
  450loPI   GL2 7190   3.792   5.298  10.309 -0.2734 -0.1374  0.0738
  450loPI   C1A 7191   4.249   5.592  10.112  0.1611 -0.1983  0.0247
  450loPI   C2A 7192   4.292   5.640   9.777 -0.0054 -0.1866 -0.1031
  450loPI   C3A 7193   4.261   5.592   9.373  0.0331  0.3677 -0.0802
  450loPI   C4A 7194   4.232   5.536   8.940  0.0214 -0.0263 -0.2948
  450loPI   C5A 7195   4.183   5.706   8.545  0.0472  0.2885 -0.3600
  450loPI   C6A 7196   3.758   5.788   8.276 -0.1251 -0.1251 -0.0683
  450loPI   C1B 7197   3.837   5.360   9.816  0.0813 -0.1764  0.0281
  450loPI   C2B 7198   3.721   5.400   9.418  0.0268  0.0384 -0.3242
  450loPI   C3B 7199   3.737   5.382   8.973  0.3973  0.0295 -0.1359
  450loPI   C4B 7200   3.693   5.324   8.592  0.0884 -0.2188 -0.4226
  451loPI    C1 7201   7.159   6.994  10.958 -0.1269 -0.1395  0.0592
  451loPI    C2 7202   7.487   6.813  10.816 -0.0313  0.1367 -0.0808
  451loPI    C3 7203   7.229   6.610  11.045  0.2692 -0.0668  0.0847
  451loPI   PO4 7204   7.171   7.157  10.803  0.0789 -0.0462  0.1697
  451loPI   GL1 7205   7.189   7.394  10.456  0.0273  0.1381  0.1804
  451loPI   GL2 7206   7.372   7.134  10.258 -0.0204 -0.0661  0.3268
  451loPI   C1A 7207   7.054   7.533  10.029  0.0674 -0.1646 -0.0483
  451loPI   C2A 7208   7.019   7.639   9.602  0.1727  0.1159  0.1721
  451loPI   C3A 7209   7.024   7.615   9.134 -0.2283 -0.0815 -0.0370
  451loPI   C4A 7210   6.811   7.416   8.791 -0.4734 -0.3355 -0.1007
  451loPI   C5A 7211   6.876   7.407   8.337 -0.2040 -0.0274 -0.3892
  451loPI   C6A 7212   6.786   7.683   8.043 -0.0968  0.5090  0.0903
  451loPI   C1B 7213   7.401   7.273   9.820 -0.1821  0.3154 -0.0011
  451loPI   C2B 7214   7.402   7.202   9.380  0.0610 -0.1986  0.0144
  451loPI   C3B 7215   7.343   7.205   8.999 -0.2187  0.0435  0.0603
  451loPI   C4B 7216   7.160   7.067   8.605  0.0774  0.1102  0.2680
  452loPI    C1 7217   3.201  13.544  11.595  0.1188 -0.0266  0.1779
  452loPI    C2 7218   3.041  13.179  11.557  0.1052 -0.0319  0.2834
  452loPI    C3 7219   3.372  13.230  11.775  0.3048 -0.0372 -0.0140
  452loPI   PO4 7220   3.192  13.631  11.321 -0.1236 -0.1263 -0.0384
  452loPI   GL1 7221   3.127  13.697  10.977  0.3112  0.2148  0.2902
  452loPI   GL2 7222   3.044  13.895  10.697 -0.0031 -0.1108 -0.2257
  452loPI   C1A 7223   3.292  13.361  10.704 -0.0514 -0.2505  0.2123
  452loPI   C2A 7224   3.478  13.339  10.373  0.0786 -0.0749  0.1836
  452loPI   C3A 7225   3.330  13.319   9.945 -0.1229 -0.0429  0.0057
  452loPI   C4A 7226   3.412  13.376   9.614  0.0485 -0.3036  0.0304
  452loPI   C5A 7227   3.342  13.456   9.200  0.0744 -0.1298 -0.3769
  452loPI   C6A 7228   3.415  13.479   8.791 -0.0809  0.0569  0.1498
  452loPI   C1B 7229   2.971  13.811  10.267  0.1895  0.0944 -0.0266
  452loPI   C2B 7230   2.958  13.713   9.898 -0.0082 -0.0526  0.2795
  452loPI   C3B 7231   3.058  13.751   9.489 -0.0573  0.1721  0.0458
  452loPI   C4B 7232   3.016  13.802   8.983 -0.0421  0.2469  0.1643
  453loPI    C1 7233  12.664   7.938  11.114  0.0726 -0.0107  0.1406
  453loPI    C2 7234  12.646   7.634  11.373 -0.1863 -0.0647  0.0615
  453loPI    C3 7235  12.354   7.907  11.364 -0.0150  0.1208  0.0499
  453loPI   PO4 7236  12.674   7.854  10.901  0.0678 -0.0625 -0.1644
  453loPI   GL1 7237  12.527   7.650  10.515 -0.0485  0.2061  0.2516
  453loPI   GL2 7238  12.223   7.515  10.491 -0.1514 -0.2272  0.0033
  453loPI   C1A 7239  12.556   7.484  10.040  0.1782 -0.1498 -0.0577
  453loPI   C2A 7240  12.508   7.420   9.537  0.3556  0.1468 -0.0094
  453loPI   C3A 7241  12.536   7.542   9.145 -0.0552 -0.1956 -0.0229
  453loPI   C4A 7242  12.579   7.552   8.779  0.2553 -0.0833 -0.0724
  453loPI   C5A 7243  12.487   7.653   8.448 -0.4391  0.0123  0.3181
  453loPI   C6A 7244  12.200   7.950   8.444  0.2265 -0.1855  0.0157
  453loPI   C1B 7245  12.130   7.771  10.168  0.2074  0.0284  0.1680
  453loPI   C2B 7246  12.065   7.824   9.731 -0.1334  0.2304 -0.2534
  453loPI   C3B 7247  12.158   7.747   9.359 -0.0875  0.0833  0.1793
  453loPI   C4B 7248  12.167   7.899   8.972 -0.0049  0.3069 -0.0794
  454loPI    C1 7249   3.901   8.554  10.966  0.1130 -0.1157 -0.1272
  454loPI    C2 7250   3.508   8.533  11.034  0.1228  0.1972  0.0461
  454loPI    C3 7251   3.763   8.537  11.341  0.2644 -0.0183 -0.0662
  454loPI   PO4 7252   3.838   8.463  10.672 -0.1432  0.1789  0.3961
  454loPI   GL1 7253   4.012   8.785  10.347 -0.0425 -0.3255 -0.0833
  454loPI   GL2 7254   3.846   9.003  10.243  0.0629 -0.2819  0.0949
  454loPI   C1A 7255   4.190   8.552  10.064  0.1387 -0.1225  0.0212
  454loPI   C2A 7256   4.261   8.436   9.719 -0.1657  0.0941  0.1280
  454loPI   C3A 7257   4.233   8.479   9.282  0.1371  0.1051 -0.0908
  454loPI   C4A 7258   4.246   8.491   8.924  0.3658  0.0768 -0.2763
  454loPI   C5A 7259   4.264   8.477   8.529 -0.0802  0.0362 -0.1091
  454loPI   C6A 7260   4.424   8.234   8.207 -0.0149  0.1323  0.0164
  454loPI   C1B 7261   3.846   9.227   9.860 -0.2973 -0.0357 -0.0049
  454loPI   C2B 7262   3.985   9.313   9.416  0.2763  0.1280 -0.0928
  454loPI   C3B 7263   3.972   9.281   8.987  0.2238 -0.0037  0.0711
  454loPI   C4B 7264   4.014   9.160   8.511 -0.3780 -0.1840  0.1130
  455loPI    C1 7265   7.007   6.218  10.918 -0.1372  0.1914  0.1700
  455loPI    C2 7266   6.616   6.298  10.888 -0.1593  0.1184  0.2564
  455loPI    C3 7267   6.738   5.929  10.982 -0.0636  0.0905  0.0315
  455loPI   PO4 7268   7.100   6.267  10.747 -0.5358 -0.0688 -0.0900
  455loPI   GL1 7269   7.255   6.645  10.434 -0.1655  0.1156  0.0512
  455loPI   GL2 7270   6.957   6.527  10.284  0.1195  0.0255  0.0245
  455loPI   C1A 7271   7.390   6.664  10.014 -0.0915  0.1681 -0.1289
  455loPI   C2A 7272   7.310   6.569   9.525  0.0515 -0.1185  0.3471
  455loPI   C3A 7273   7.218   6.757   9.135  0.0884  0.2710  0.1866
  455loPI   C4A 7274   7.177   6.626   8.792 -0.1122  0.0614  0.0990
  455loPI   C5A 7275   7.055   6.496   8.457  0.2960  0.1651  0.0536
  455loPI   C6A 7276   6.890   6.519   8.041 -0.0320 -0.1105  0.2047
  455loPI   C1B 7277   6.834   6.484   9.889 -0.0588 -0.1411  0.1568
  455loPI   C2B 7278   6.758   6.553   9.508 -0.0933  0.0075  0.1535
  455loPI   C3B 7279   6.697   6.465   9.059  0.0810 -0.0341 -0.0238
  455loPI   C4B 7280   6.626   6.464   8.698 -0.0307 -0.0418 -0.1478
  456loPI    C1 7281   9.725   3.605  10.906  0.1790 -0.1431  0.1398
  456loPI    C2 7282   9.791   3.376  11.228  0.2261 -0.0433  0.2019
  456loPI    C3 7283   9.867   3.768  11.243  0.0342 -0.0024  0.1338
  456loPI   PO4 7284   9.625   3.455  10.656  0.2240 -0.2794 -0.0270
  456loPI   GL1 7285   9.674   3.255  10.351 -0.2301 -0.0001  0.1346
  456loPI   GL2 7286   9.859   3.546  10.215 -0.0981  0.0377  0.0133
  456loPI   C1A 7287   9.758   3.209   9.899  0.0432  0.0016 -0.0463
  456loPI   C2A 7288   9.685   3.190   9.532 -0.0283  0.1467  0.0080
  456loPI   C3A 7289   9.765   3.266   9.111 -0.1095  0.0527  0.2112
  456loPI   C4A 7290   9.799   3.253   8.785 -0.2526 -0.0971  0.0762
  456loPI   C5A 7291   9.620   3.445   8.448 -0.0610 -0.0462  0.0108
  456loPI   C6A 7292   9.551   3.698   8.050  0.0816  0.0583 -0.2315
  456loPI   C1B 7293  10.108   3.566   9.886  0.1861  0.6085  0.1457
  456loPI   C2B 7294   9.984   3.535   9.514 -0.1793 -0.0330  0.1034
  456loPI   C3B 7295  10.191   3.486   9.143 -0.0595  0.1321  0.2292
  456loPI   C4B 7296  10.271   3.453   8.689 -0.0742  0.1047 -0.1478
  457loPI    C1 7297   8.276   5.635  10.607 -0.1606 -0.0544  0.0563
  457loPI    C2 7298   8.402   5.337  10.841  0.1701 -0.0517 -0.1121
  457loPI    C3 7299   8.310   5.692  11.001 -0.0541 -0.1871  0.0668
  457loPI   PO4 7300   8.386   5.500  10.367  0.2942  0.2534 -0.1174
  457loPI   GL1 7301   8.654   5.446  10.107  0.1423  0.0886 -0.0264
  457loPI   GL2 7302   8.941   5.410  10.153  0.0606  0.3180  0.1401
  457loPI   C1A 7303   8.393   5.526   9.699 -0.2401 -0.0008  0.1138
  457loPI   C2A 7304   8.459   5.575   9.239 -0.1398  0.0305 -0.1787
  457loPI   C3A 7305   8.446   5.586   8.825 -0.1490  0.0182 -0.1059
  457loPI   C4A 7306   8.466   5.606   8.401  0.1566 -0.0811  0.1889
  457loPI   C5A 7307   8.670   5.958   8.287  0.0634  0.0226 -0.0940
  457loPI   C6A 7308   8.924   6.341   8.248 -0.3390 -0.2545  0.0642
  457loPI   C1B 7309   8.828   5.270   9.721 -0.1215 -0.2928 -0.1631
  457loPI   C2B 7310   8.780   5.217   9.331  0.0411  0.0442 -0.1865
  457loPI   C3B 7311   8.859   5.209   8.900  0.2465 -0.1174 -0.1718
  457loPI   C4B 7312   8.810   5.235   8.541  0.0008 -0.1672  0.0166
  458loPI    C1 7313   5.894   6.642  11.140 -0.1179 -0.0624  0.0806
  458loPI    C2 7314   5.965   7.035  11.120  0.0295 -0.0883  0.0853
  458loPI    C3 7315   5.969   6.849  11.474  0.0390 -0.1083  0.0747
  458loPI   PO4 7316   5.721   6.624  10.937 -0.0446  0.0493  0.0162
  458loPI   GL1 7317   5.426   6.564  10.604  0.0768 -0.1053 -0.0540
  458loPI   GL2 7318   5.466   6.827  10.470 -0.0611 -0.1663  0.1663
  458loPI   C1A 7319   5.305   6.453  10.184  0.0046 -0.0027  0.0182
  458loPI   C2A 7320   5.302   6.502   9.750 -0.0408  0.1198  0.2987
  458loPI   C3A 7321   5.293   6.468   9.329 -0.0165 -0.0335 -0.2503
  458loPI   C4A 7322   5.273   6.513   8.818  0.0966 -0.1083 -0.1799
  458loPI   C5A 7323   5.454   6.657   8.439 -0.0076 -0.2081 -0.1294
  458loPI   C6A 7324   5.500   6.397   8.142  0.1203  0.2402  0.0049
  458loPI   C1B 7325   5.477   6.953  10.050 -0.2863 -0.2419  0.0333
  458loPI   C2B 7326   5.480   6.949   9.565  0.0706 -0.0133 -0.2585
  458loPI   C3B 7327   5.410   6.884   9.163  0.1851  0.1342 -0.1811
  458loPI   C4B 7328   5.346   7.023   8.800 -0.0374  0.4288 -0.0813
  459loPI    C1 7329  14.947   9.420  10.630  0.1547 -0.0169  0.0096
  459loPI    C2 7330  15.183   9.245  10.902  0.0745 -0.0617  0.0508
  459loPI    C3 7331  15.022   9.603  10.978  0.1082 -0.0426  0.0331
  459loPI   PO4 7332  14.969   9.298  10.438  0.2085 -0.3619  0.1701
  459loPI   GL1 7333  14.684   9.004  10.253  0.0739 -0.0615  0.2243
  459loPI   GL2 7334  14.613   9.264  10.053 -0.0266 -0.0704 -0.2061
  459loPI   C1A 7335  14.491   8.751   9.911 -0.1051 -0.0563  0.1541
  459loPI   C2A 7336  14.435   8.785   9.413 -0.2889 -0.1437 -0.1352
  459loPI   C3A 7337  14.531   8.828   8.979  0.1868 -0.0193  0.2527
  459loPI   C4A 7338  14.725   8.707   8.607  0.2111  0.1356  0.0081
  459loPI   C5A 7339  14.806   8.773   8.219 -0.2033 -0.1436 -0.1625
  459loPI   C6A 7340  15.127   8.463   8.041  0.0771 -0.2187 -0.1852
  459loPI   C1B 7341  14.581   9.281   9.705 -0.0308 -0.2838  0.0245
  459loPI   C2B 7342  14.592   9.234   9.226  0.0626 -0.2324 -0.0235
  459loPI   C3B 7343  14.784   9.256   8.824  0.0839 -0.1565 -0.1035
  459loPI   C4B 7344  14.749   9.286   8.451  0.0567  0.1859  0.2590
  460loPI    C1 7345   1.473   5.847  10.785 -0.1316  0.1904  0.0870
  460loPI    C2 7346   1.451   5.510  10.999 -0.0402 -0.0014 -0.1992
  460loPI    C3 7347   1.305   5.851  11.147 -0.0878 -0.1548  0.1149
  460loPI   PO4 7348   1.351   5.815  10.550 -0.0081 -0.4204 -0.0473
  460loPI   GL1 7349   1.212   6.039  10.252  0.1307  0.2143 -0.0119
  460loPI   GL2 7350   1.358   6.318  10.313  0.1380 -0.0818 -0.0369
  460loPI   C1A 7351   0.989   5.837   9.864 -0.1050 -0.2200 -0.0713
  460loPI   C2A 7352   1.013   5.836   9.339  0.0486  0.0383  0.1162
  460loPI   C3A 7353   1.022   5.925   9.023  0.1855 -0.0509 -0.2306
  460loPI   C4A 7354   1.074   6.024   8.529  0.1302 -0.1417 -0.0191
  460loPI   C5A 7355   0.804   6.112   8.122  0.1048  0.1734 -0.3110
  460loPI   C6A 7356   0.489   6.394   8.031  0.1150  0.1498 -0.1839
  460loPI   C1B 7357   1.526   6.128   9.891 -0.0395  0.1220 -0.1024
  460loPI   C2B 7358   1.493   6.096   9.498 -0.0635 -0.0219  0.2987
  460loPI   C3B 7359   1.500   6.095   9.104  0.0825 -0.2781 -0.0731
  460loPI   C4B 7360   1.541   6.170   8.675 -0.0135  0.1397 -0.1088
  461loPI    C1 7361   3.704  12.253  11.171  0.0125 -0.0430  0.1021
  461loPI    C2 7362   3.801  11.950  11.413 -0.1575 -0.1106  0.0867
  461loPI    C3 7363   3.572  12.248  11.548 -0.0247 -0.0090  0.0896
  461loPI   PO4 7364   3.966  12.232  11.068 -0.0392 -0.3271  0.0370
  461loPI   GL1 7365   4.006  12.101  10.589  0.0269  0.0096 -0.1232
  461loPI   GL2 7366   4.093  12.493  10.602  0.0533  0.1852 -0.0047
  461loPI   C1A 7367   4.115  12.144  10.143  0.1955 -0.1826 -0.0594
  461loPI   C2A 7368   4.155  12.274   9.658 -0.0412 -0.1977 -0.2369
  461loPI   C3A 7369   4.171  12.238   9.263 -0.1940  0.2458  0.1215
  461loPI   C4A 7370   4.299  12.158   8.959  0.2142 -0.0248 -0.1223
  461loPI   C5A 7371   4.259  12.491   8.586 -0.0441 -0.0657 -0.1062
  461loPI   C6A 7372   4.171  12.844   8.380  0.0606 -0.0100  0.2834
  461loPI   C1B 7373   4.345  12.712  10.280  0.0314  0.1256 -0.3393
  461loPI   C2B 7374   4.210  12.769   9.923  0.0902 -0.1304 -0.0523
  461loPI   C3B 7375   4.279  12.723   9.510  0.0295  0.1224  0.3381
  461loPI   C4B 7376   4.314  12.668   9.109  0.0069 -0.0610 -0.2971
  462loPI    C1 7377  13.504  11.594  11.151 -0.1795  0.1824 -0.1640
  462loPI    C2 7378  13.778  11.430  10.909  0.0003  0.1116  0.0834
  462loPI    C3 7379  13.522  11.197  11.109 -0.0064  0.1571  0.1279
  462loPI   PO4 7380  13.461  11.858  10.957  0.0175  0.2434  0.1937
  462loPI   GL1 7381  13.601  11.721  10.494  0.2050  0.0151 -0.0747
  462loPI   GL2 7382  13.522  11.440  10.322 -0.2431 -0.0127  0.0236
  462loPI   C1A 7383  13.682  11.863  10.071 -0.2443 -0.2202 -0.0554
  462loPI   C2A 7384  13.725  11.992   9.715 -0.0508  0.0982 -0.0232
  462loPI   C3A 7385  13.615  11.863   9.250 -0.0528  0.0207 -0.0942
  462loPI   C4A 7386  13.633  11.876   8.819 -0.1207 -0.1153 -0.2147
  462loPI   C5A 7387  13.598  11.630   8.418 -0.1571 -0.3297  0.1656
  462loPI   C6A 7388  13.591  11.205   8.113  0.2423  0.0066 -0.1732
  462loPI   C1B 7389  13.601  11.440   9.935  0.0267  0.2087  0.1567
  462loPI   C2B 7390  13.620  11.403   9.575  0.4671  0.1321 -0.1615
  462loPI   C3B 7391  13.520  11.349   9.157  0.0503  0.0065 -0.2863
  462loPI   C4B 7392  13.525  11.308   8.744 -0.0683 -0.0382  0.0047
  463loPI    C1 7393   6.288  12.046  11.293 -0.0210  0.2873 -0.0246
  463loPI    C2 7394   6.495  12.187  11.605  0.0535  0.0543  0.0333
  463loPI    C3 7395   6.097  12.154  11.627  0.0414  0.1982  0.0404
  463loPI   PO4 7396   6.320  12.270  11.110 -0.0297 -0.2206 -0.0508
  463loPI   GL1 7397   6.263  12.264  10.732  0.1792  0.0326 -0.0276
  463loPI   GL2 7398   6.470  12.487  10.478 -0.0539 -0.0001  0.0312
  463loPI   C1A 7399   6.350  12.075  10.264 -0.0318 -0.1395 -0.1523
  463loPI   C2A 7400   6.372  11.963   9.806 -0.1215  0.2724  0.0807
  463loPI   C3A 7401   6.362  12.051   9.419 -0.0075  0.0594  0.0419
  463loPI   C4A 7402   6.423  12.085   8.964  0.0794  0.1464  0.0042
  463loPI   C5A 7403   6.352  12.197   8.603 -0.1784  0.3369 -0.0423
  463loPI   C6A 7404   6.509  12.242   8.214 -0.1224 -0.1193 -0.1719
  463loPI   C1B 7405   6.371  12.543  10.116  0.1715  0.0393  0.0352
  463loPI   C2B 7406   6.509  12.459   9.626  0.0536  0.2600 -0.1290
  463loPI   C3B 7407   6.491  12.668   9.210 -0.0292  0.0948 -0.2694
  463loPI   C4B 7408   6.450  12.676   8.755 -0.1446  0.1017  0.0289
  464loPI    C1 7409   3.771   2.577  11.456  0.0553 -0.1568 -0.1618
  464loPI    C2 7410   3.444   2.354  11.401 -0.0670  0.0152 -0.1419
  464loPI    C3 7411   3.579   2.422  11.771 -0.0594  0.0166 -0.1450
  464loPI   PO4 7412   3.917   2.519  11.252 -0.0974  0.0769 -0.2428
  464loPI   GL1 7413   3.696   2.520  10.938  0.3521  0.1106  0.1576
  464loPI   GL2 7414   3.855   2.744  10.766  0.0512 -0.1986  0.3936
  464loPI   C1A 7415   3.546   2.509  10.461 -0.0633  0.0146 -0.1871
  464loPI   C2A 7416   3.507   2.443  10.035 -0.1429  0.0244 -0.1283
  464loPI   C3A 7417   3.792   2.548   9.640  0.3814  0.1724  0.0218
  464loPI   C4A 7418   3.765   2.402   9.136  0.0736  0.2925  0.0232
  464loPI   C5A 7419   4.061   2.241   8.896  0.1583 -0.1337 -0.2372
  464loPI   C6A 7420   4.228   2.048   8.604  0.1739  0.0225 -0.0946
  464loPI   C1B 7421   3.844   2.957  10.423 -0.1570  0.1098 -0.2081
  464loPI   C2B 7422   3.803   2.857  10.047 -0.1937  0.0420  0.1565
  464loPI   C3B 7423   3.898   3.007   9.657  0.2570 -0.1008 -0.1679
  464loPI   C4B 7424   3.827   3.046   9.209 -0.0445 -0.3207  0.0108
  465loPI    C1 7425   9.969  10.086  11.309 -0.0571 -0.0617  0.1960
  465loPI    C2 7426  10.274   9.846  11.409 -0.0802 -0.1483  0.0622
  465loPI    C3 7427  10.183  10.161  11.639  0.2083 -0.0310  0.0201
  465loPI   PO4 7428  10.034  10.145  11.100  0.0622 -0.3676  0.0117
  465loPI   GL1 7429  10.032  10.178  10.723  0.1995 -0.0379 -0.2501
  465loPI   GL2 7430  10.102  10.350  10.647  0.0435 -0.1577 -0.0002
  465loPI   C1A 7431   9.757  10.335  10.325 -0.1089 -0.0956  0.1276
  465loPI   C2A 7432   9.743  10.478   9.971 -0.4543  0.0538 -0.1234
  465loPI   C3A 7433   9.717  10.469   9.599  0.0533 -0.2507  0.0388
  465loPI   C4A 7434   9.563  10.484   9.109  0.0586 -0.1773 -0.1318
  465loPI   C5A 7435   9.712  10.450   8.688 -0.1539 -0.0114 -0.0713
  465loPI   C6A 7436  10.043  10.280   8.423  0.1242 -0.2864 -0.0993
  465loPI   C1B 7437  10.223  10.582  10.294  0.0167  0.1577  0.1983
  465loPI   C2B 7438  10.248  10.584   9.855  0.1217  0.1496  0.0394
  465loPI   C3B 7439  10.203  10.564   9.462 -0.0952  0.0854  0.0815
  465loPI   C4B 7440  10.148  10.605   8.958  0.1811 -0.3014  0.0908
  466loPI    C1 7441   0.837  12.980  11.378  0.0900 -0.0091  0.3117
  466loPI    C2 7442   1.216  13.033  11.494  0.0426  0.2922  0.3374
  466loPI    C3 7443   0.968  12.811  11.716  0.2846 -0.1727  0.1571
  466loPI   PO4 7444   0.890  12.930  11.120 -0.0103  0.1353  0.0095
  466loPI   GL1 7445   0.936  12.851  10.743 -0.0637  0.0459  0.0659
  466loPI   GL2 7446   0.661  12.821  10.525 -0.1255  0.0343 -0.3653
  466loPI   C1A 7447   1.136  12.917  10.404 -0.1485 -0.3352  0.2065
  466loPI   C2A 7448   1.121  12.994   9.993  0.0537  0.0355 -0.0777
  466loPI   C3A 7449   1.157  13.047   9.633 -0.0407 -0.2147 -0.1776
  466loPI   C4A 7450   1.164  13.024   9.210  0.4268  0.0708  0.0031
  466loPI   C5A 7451   1.225  13.047   8.758 -0.0296  0.0805 -0.3545
  466loPI   C6A 7452   1.486  13.232   8.605  0.1044  0.1248 -0.0950
  466loPI   C1B 7453   0.629  12.772  10.067 -0.0694 -0.1075  0.1997
  466loPI   C2B 7454   0.712  12.840   9.708  0.0234 -0.0394 -0.0946
  466loPI   C3B 7455   0.681  12.764   9.293  0.1697  0.0596  0.1915
  466loPI   C4B 7456   0.647  12.773   8.791 -0.0283  0.0062 -0.5094
  467loPI    C1 7457  12.372   0.812  11.570  0.4372  0.0532 -0.2942
  467loPI    C2 7458  12.564   0.703  11.904  0.0829 -0.0509 -0.1192
  467loPI    C3 7459  12.429   1.077  11.865 -0.2077 -0.1387  0.0209
  467loPI   PO4 7460  12.552   0.626  11.373 -0.0157  0.0157  0.0095
  467loPI   GL1 7461  12.618   0.446  10.899  0.1966  0.0567  0.0971
  467loPI   GL2 7462  12.390   0.187  10.697  0.0731  0.1271  0.0798
  467loPI   C1A 7463  12.860   0.614  10.511  0.0659  0.0741  0.2086
  467loPI   C2A 7464  12.851   0.696  10.063 -0.0182  0.0990 -0.0310
  467loPI   C3A 7465  12.895   0.672   9.580  0.0821 -0.1034 -0.1110
  467loPI   C4A 7466  12.932   0.611   9.201  0.5539  0.2338  0.0033
  467loPI   C5A 7467  12.852   0.500   8.798  0.1116  0.1732  0.0395
  467loPI   C6A 7468  12.782   0.775   8.446 -0.1403  0.0585  0.2405
  467loPI   C1B 7469  12.291  -0.030  10.267  0.3294 -0.2716 -0.0029
  467loPI   C2B 7470  12.331  -0.147   9.896 -0.1474 -0.1315  0.1627
  467loPI   C3B 7471  12.388  -0.008   9.413  0.0326  0.2417  0.1981
  467loPI   C4B 7472  12.689   0.126   9.098 -0.0509  0.0768 -0.0288
  468loPI    C1 7473   6.998  12.454  10.850  0.0185 -0.1457 -0.1638
  468loPI    C2 7474   7.297  12.189  10.871  0.1313 -0.0004  0.1220
  468loPI    C3 7475   7.234  12.443  11.173 -0.0605  0.2095 -0.0901
  468loPI   PO4 7476   6.757  12.326  10.816  0.2040 -0.2886 -0.1821
  468loPI   GL1 7477   6.855  12.152  10.444 -0.1903  0.1666 -0.4251
  468loPI   GL2 7478   6.770  11.801  10.379 -0.0277  0.1309 -0.0579
  468loPI   C1A 7479   6.710  12.212   9.983 -0.2591 -0.3600 -0.3582
  468loPI   C2A 7480   6.900  12.197   9.531  0.1861  0.0271  0.1793
  468loPI   C3A 7481   6.845  12.270   9.095 -0.2209 -0.1039 -0.0624
  468loPI   C4A 7482   6.824  12.362   8.694  0.1017  0.2338  0.1792
  468loPI   C5A 7483   7.065  12.436   8.368 -0.0472  0.3210  0.2248
  468loPI   C6A 7484   7.190  12.365   7.923 -0.0194  0.2622  0.0913
  468loPI   C1B 7485   6.813  11.671  10.008  0.1469 -0.3241  0.2515
  468loPI   C2B 7486   6.781  11.709   9.582  0.0322  0.0708  0.0541
  468loPI   C3B 7487   6.812  11.744   9.192 -0.2094  0.2333 -0.1136
  468loPI   C4B 7488   6.732  11.847   8.711 -0.3373  0.0804  0.1145
  469loPI    C1 7489  14.024   5.961  10.704 -0.2582 -0.0742  0.1222
  469loPI    C2 7490  13.982   5.610  10.891  0.1443  0.0632  0.4851
  469loPI    C3 7491  13.726   5.908  10.966 -0.1067 -0.0991  0.2907
  469loPI   PO4 7492  14.057   5.842  10.463  0.0849 -0.0074  0.1683
  469loPI   GL1 7493  13.971   5.650  10.022 -0.0785  0.1823  0.1649
  469loPI   GL2 7494  13.712   5.955  10.045 -0.1246 -0.0166  0.5142
  469loPI   C1A 7495  14.083   5.682   9.610  0.0224  0.2120  0.0496
  469loPI   C2A 7496  14.073   5.649   9.136 -0.3542 -0.1392  0.0857
  469loPI   C3A 7497  13.964   5.636   8.779  0.0102  0.1073  0.1416
  469loPI   C4A 7498  13.839   5.536   8.412  0.1994  0.1693 -0.2343
  469loPI   C5A 7499  13.715   5.503   8.015 -0.0076  0.1996  0.0706
  469loPI   C6A 7500  13.774   5.525   7.553 -0.2903 -0.0907 -0.1723
  469loPI   C1B 7501  13.641   5.984   9.700 -0.2914  0.0040  0.4139
  469loPI   C2B 7502  13.662   5.930   9.270 -0.0861  0.0847 -0.2562
  469loPI   C3B 7503  13.515   5.894   8.785 -0.1895  0.2073  0.2016
  469loPI   C4B 7504  13.507   5.979   8.330  0.2127  0.1498  0.1135
  470loPI    C1 7505   2.041   4.290  10.760  0.1266 -0.0173 -0.1203
  470loPI    C2 7506   2.349   4.106  10.936  0.2253  0.2127 -0.0483
  470loPI    C3 7507   2.113   4.347  11.149  0.0169  0.0678 -0.1119
  470loPI   PO4 7508   2.108   4.407  10.569  0.1498  0.0890 -0.0743
  470loPI   GL1 7509   2.004   4.329  10.166  0.0469 -0.1060 -0.2283
  470loPI   GL2 7510   1.655   4.335  10.022 -0.1433  0.1530  0.1026
  470loPI   C1A 7511   2.039   4.356   9.649 -0.0369  0.1042  0.3391
  470loPI   C2A 7512   2.184   4.382   9.235  0.1371  0.0907 -0.1245
  470loPI   C3A 7513   2.216   4.435   8.789  0.1817  0.0883 -0.0198
  470loPI   C4A 7514   2.228   4.739   8.537 -0.4914 -0.1871 -0.0138
  470loPI   C5A 7515   2.349   5.158   8.327  0.1034 -0.3261 -0.2175
  470loPI   C6A 7516   2.226   5.579   8.267  0.0086 -0.1394  0.1544
  470loPI   C1B 7517   1.552   4.257   9.554 -0.0021  0.2181 -0.0417
  470loPI   C2B 7518   1.642   4.310   9.132  0.0262  0.0508 -0.0689
  470loPI   C3B 7519   1.716   4.259   8.763  0.3270 -0.0739  0.1682
  470loPI   C4B 7520   1.952   4.324   8.376 -0.0235  0.3693 -0.3323
  471loPI    C1 7521  12.611  13.956  11.501 -0.2085 -0.2414 -0.2883
  471loPI    C2 7522  12.385  14.206  11.286 -0.1520  0.0745  0.0108
  471loPI    C3 7523  12.231  14.025  11.607 -0.0598  0.0812  0.0592
  471loPI   PO4 7524  12.677  13.789  11.276 -0.0099  0.3263  0.3086
  471loPI   GL1 7525  12.650  13.975  10.810 -0.0841 -0.1731  0.0940
  471loPI   GL2 7526  12.977  14.036  10.713  0.1489  0.1397 -0.1367
  471loPI   C1A 7527  12.682  13.891  10.329 -0.0697 -0.3065 -0.0374
  471loPI   C2A 7528  12.635  13.997   9.864  0.2546  0.0534 -0.2689
  471loPI   C3A 7529  12.584  13.903   9.437 -0.1268  0.0784  0.1009
  471loPI   C4A 7530  12.562  13.843   9.071  0.0093  0.1268 -0.0503
  471loPI   C5A 7531  12.866  13.718   8.715 -0.0343  0.1268  0.2194
  471loPI   C6A 7532  13.264  13.943   8.439 -0.2071 -0.3299 -0.0718
  471loPI   C1B 7533  13.161  14.053  10.358 -0.0797  0.1434  0.0029
  471loPI   C2B 7534  13.125  14.007   9.843  0.3523 -0.0680 -0.2231
  471loPI   C3B 7535  13.065  14.042   9.495 -0.1285  0.0446  0.0094
  471loPI   C4B 7536  13.123  13.981   9.085  0.1633 -0.1833 -0.1773
  472loPI    C1 7537   7.327   5.200  10.956 -0.1602 -0.1324  0.0629
  472loPI    C2 7538   7.489   5.461  11.212  0.0958 -0.0854 -0.1429
  472loPI    C3 7539   7.280   5.150  11.350  0.1609 -0.0152  0.1193
  472loPI   PO4 7540   7.379   5.314  10.742 -0.0607  0.0512 -0.0877
  472loPI   GL1 7541   7.456   5.231  10.388 -0.4148 -0.1074  0.0656
  472loPI   GL2 7542   7.808   5.402  10.283 -0.0766 -0.0924  0.3039
  472loPI   C1A 7543   7.433   5.300   9.875  0.1110 -0.4832  0.1688
  472loPI   C2A 7544   7.408   5.288   9.399  0.2143 -0.0680  0.0386
  472loPI   C3A 7545   7.548   5.365   9.002  0.1991  0.2833  0.0005
  472loPI   C4A 7546   7.425   5.319   8.575  0.0265 -0.3664  0.4262
  472loPI   C5A 7547   7.655   5.137   8.263  0.0236  0.0327 -0.1301
  472loPI   C6A 7548   7.971   4.814   8.366  0.1496 -0.0688 -0.0571
  472loPI   C1B 7549   7.938   5.403   9.841 -0.1230 -0.3285 -0.2517
  472loPI   C2B 7550   7.956   5.418   9.456  0.0343  0.0057 -0.1442
  472loPI   C3B 7551   8.028   5.442   9.025 -0.0514  0.0419  0.1955
  472loPI   C4B 7552   8.081   5.375   8.539 -0.1718  0.0537  0.0685
  473loPI    C1 7553  11.614   4.167  10.729  0.1521  0.1643  0.2420
  473loPI    C2 7554  11.427   4.456  10.934  0.0767  0.0634  0.3167
  473loPI    C3 7555  11.491   4.100  11.104  0.1439  0.0263  0.2149
  473loPI   PO4 7556  11.569   4.151  10.520  0.0308 -0.0147 -0.1366
  473loPI   GL1 7557  11.693   3.961  10.063 -0.0032 -0.1472 -0.3436
  473loPI   GL2 7558  11.467   3.782  10.019 -0.0981  0.0171 -0.1189
  473loPI   C1A 7559  11.901   3.871   9.749 -0.2036 -0.0678  0.1168
  473loPI   C2A 7560  11.846   3.884   9.324  0.0416 -0.0482 -0.2113
  473loPI   C3A 7561  11.810   3.968   8.900  0.2786 -0.0552  0.2226
  473loPI   C4A 7562  11.851   4.070   8.455  0.1309 -0.2176 -0.1904
  473loPI   C5A 7563  11.939   4.316   8.065 -0.3085 -0.0929  0.1372
  473loPI   C6A 7564  12.039   4.400   7.657 -0.1469  0.0777  0.0233
  473loPI   C1B 7565  11.390   3.768   9.571 -0.0865 -0.2301 -0.0750
  473loPI   C2B 7566  11.344   3.761   9.215 -0.0431 -0.3246  0.3975
  473loPI   C3B 7567  11.296   3.796   8.861 -0.2935 -0.0309  0.2761
  473loPI   C4B 7568  11.292   3.772   8.431 -0.4235 -0.0218  0.1178
  474loPI    C1 7569  17.294  13.034  11.071 -0.0626 -0.3058  0.1134
  474loPI    C2 7570  17.063  12.968  11.390 -0.2704  0.1564  0.0670
  474loPI    C3 7571  17.270  13.309  11.360  0.1686 -0.1112 -0.0481
  474loPI   PO4 7572  17.097  12.922  10.856 -0.0947  0.0904 -0.0008
  474loPI   GL1 7573  17.011  13.159  10.425  0.1509 -0.1718 -0.2016
  474loPI   GL2 7574  16.837  13.331  10.501 -0.0109  0.0277  0.0768
  474loPI   C1A 7575  16.960  13.180   9.923  0.1997 -0.1915  0.1849
  474loPI   C2A 7576  17.028  13.252   9.476  0.1533  0.3103 -0.0140
  474loPI   C3A 7577  16.952  13.141   9.050  0.1013  0.0910  0.2389
  474loPI   C4A 7578  16.903  13.073   8.642 -0.0916  0.2629  0.0171
  474loPI   C5A 7579  16.774  12.636   8.407  0.1927 -0.1238  0.0172
  474loPI   C6A 7580  16.643  12.203   8.238 -0.0772  0.0106 -0.0061
  474loPI   C1B 7581  16.677  13.548  10.132 -0.1978 -0.2622 -0.0496
  474loPI   C2B 7582  16.651  13.539   9.612  0.1814  0.0792  0.2946
  474loPI   C3B 7583  16.545  13.514   9.189  0.3398 -0.0765 -0.0022
  474loPI   C4B 7584  16.543  13.443   8.778  0.1552  0.1442  0.0023
  475loPI    C1 7585  11.177  15.406  11.277  0.1653 -0.1499  0.2581
  475loPI    C2 7586  11.106  15.017  11.217  0.0290 -0.1119  0.1690
  475loPI    C3 7587  11.251  15.142  11.568 -0.1987 -0.2105  0.3001
  475loPI   PO4 7588  11.358  15.508  11.089  0.0158  0.0816  0.0257
  475loPI   GL1 7589  11.465  15.337  10.704  0.2083  0.0118 -0.2132
  475loPI   GL2 7590  11.228  15.650  10.552  0.2454 -0.1351 -0.1519
  475loPI   C1A 7591  11.577  15.342  10.354  0.0360 -0.0271  0.0064
  475loPI   C2A 7592  11.595  15.322   9.865 -0.2134  0.1100  0.3099
  475loPI   C3A 7593  11.548  15.388   9.446  0.3584 -0.0253 -0.0561
  475loPI   C4A 7594  11.514  15.454   9.076  0.1716 -0.0006 -0.1392
  475loPI   C5A 7595  11.504  15.417   8.639 -0.1987 -0.0141 -0.3025
  475loPI   C6A 7596  11.460  14.900   8.554  0.2997  0.0084 -0.0727
  475loPI   C1B 7597  11.137  15.731  10.088 -0.1378 -0.1751 -0.1194
  475loPI   C2B 7598  11.128  15.732   9.622  0.0628  0.0855 -0.0881
  475loPI   C3B 7599  11.107  15.757   9.146 -0.0139  0.1538  0.2048
  475loPI   C4B 7600  11.169  15.838   8.797  0.0927  0.2031 -0.0091
  476loPI    C1 7601   8.394  11.706  11.359  0.1048  0.0090 -0.1270
  476loPI    C2 7602   8.147  11.984  11.212 -0.0144  0.0094  0.0698
  476loPI    C3 7603   8.218  11.968  11.606  0.3274  0.0305  0.0121
  476loPI   PO4 7604   8.267  11.438  11.172  0.2180  0.0138  0.0581
  476loPI   GL1 7605   8.494  11.420  10.778  0.1360 -0.2349 -0.0496
  476loPI   GL2 7606   8.117  11.513  10.617  0.1631  0.1550 -0.3239
  476loPI   C1A 7607   8.542  11.355  10.313  0.1689  0.0985 -0.1669
  476loPI   C2A 7608   8.533  11.423   9.852 -0.1016 -0.0127 -0.1878
  476loPI   C3A 7609   8.568  11.475   9.448  0.1242  0.0154  0.0800
  476loPI   C4A 7610   8.443  11.473   9.071 -0.1453 -0.0418 -0.0224
  476loPI   C5A 7611   8.527  11.492   8.670 -0.2046  0.1191  0.0066
  476loPI   C6A 7612   8.340  11.611   8.295  0.1126  0.0663 -0.1167
  476loPI   C1B 7613   8.100  11.682  10.258  0.2599  0.2626 -0.2039
  476loPI   C2B 7614   8.152  11.786   9.813  0.0824 -0.0699  0.3503
  476loPI   C3B 7615   8.111  11.845   9.395 -0.0933 -0.1358 -0.1234
  476loPI   C4B 7616   8.098  11.794   8.893 -0.1859  0.2115 -0.1629
  477loPI    C1 7617  15.920  17.038  11.410 -0.0965 -0.2074 -0.0856
  477loPI    C2 7618  15.917  16.658  11.535  0.1017 -0.1037  0.2487
  477loPI    C3 7619  16.021  16.951  11.787  0.0561  0.1632 -0.0360
  477loPI   PO4 7620  15.657  17.090  11.355  0.1160 -0.1275 -0.3361
  477loPI   GL1 7621  15.432  16.958  10.987  0.2080  0.0426 -0.1188
  477loPI   GL2 7622  15.340  16.697  10.828 -0.0645  0.4525 -0.1539
  477loPI   C1A 7623  15.788  17.052  10.652  0.2264 -0.2201 -0.1340
  477loPI   C2A 7624  15.792  17.138  10.196  0.0857  0.0563  0.1519
  477loPI   C3A 7625  15.808  17.087   9.765 -0.2412  0.1154  0.2424
  477loPI   C4A 7626  15.828  17.094   9.441  0.1422 -0.1168 -0.0368
  477loPI   C5A 7627  15.849  17.258   9.091 -0.3390  0.0997 -0.2573
  477loPI   C6A 7628  15.649  17.549   8.893 -0.0822  0.0559 -0.1543
  477loPI   C1B 7629  15.370  16.894  10.406  0.1056  0.1095  0.1297
  477loPI   C2B 7630  15.380  16.932   9.980  0.1400  0.2414  0.0482
  477loPI   C3B 7631  15.344  16.892   9.545 -0.0918 -0.3011 -0.0220
  477loPI   C4B 7632  15.339  17.081   9.090  0.1174  0.0415 -0.2709
  478loPI    C1 7633   0.854  16.035  11.723  0.1458 -0.0476 -0.0800
  478loPI    C2 7634   0.677  15.718  11.892 -0.1393  0.0717 -0.1490
  478loPI    C3 7635   0.860  15.991  12.121  0.2575 -0.2266 -0.1002
  478loPI   PO4 7636   0.722  15.975  11.421  0.1310  0.2621  0.1532
  478loPI   GL1 7637   0.682  15.670  11.090  0.2155  0.1941 -0.3235
  478loPI   GL2 7638   0.995  15.710  10.981 -0.1760 -0.3201 -0.0691
  478loPI   C1A 7639   0.661  15.698  10.622  0.2146 -0.0937  0.1529
  478loPI   C2A 7640   0.665  15.760  10.181  0.1319 -0.2637  0.0190
  478loPI   C3A 7641   0.619  15.732   9.765 -0.1655  0.0503  0.1167
  478loPI   C4A 7642   0.702  15.647   9.362 -0.0169  0.1116 -0.0169
  478loPI   C5A 7643   0.549  15.760   8.986 -0.0453 -0.0149 -0.0578
  478loPI   C6A 7644   0.563  15.967   8.592  0.0615 -0.1330 -0.1166
  478loPI   C1B 7645   1.142  15.876  10.560 -0.0264  0.0364 -0.1354
  478loPI   C2B 7646   1.125  15.960  10.136  0.0694 -0.2183 -0.0777
  478loPI   C3B 7647   1.102  15.877   9.684 -0.0722  0.0487 -0.2606
  478loPI   C4B 7648   1.160  15.894   9.314 -0.0980 -0.1090  0.1411
  479loPI    C1 7649  10.486  16.977  11.336  0.1540  0.2632 -0.1942
  479loPI    C2 7650  10.680  17.323  11.390 -0.0062  0.2824  0.3044
  479loPI    C3 7651  10.835  16.983  11.532 -0.0605  0.2127  0.1980
  479loPI   PO4 7652  10.383  16.950  11.071 -0.1558 -0.1838  0.0831
  479loPI   GL1 7653  10.392  16.944  10.647 -0.0593 -0.1556 -0.1074
  479loPI   GL2 7654  10.388  16.586  10.671  0.0881 -0.0258 -0.2571
  479loPI   C1A 7655  10.434  16.872  10.244  0.0934  0.1305 -0.1594
  479loPI   C2A 7656  10.430  16.833   9.871 -0.0554 -0.1628 -0.1814
  479loPI   C3A 7657  10.461  16.915   9.496 -0.0945  0.0180 -0.0082
  479loPI   C4A 7658  10.407  16.946   8.992  0.0972 -0.1246 -0.0705
  479loPI   C5A 7659  10.400  17.038   8.626  0.0669  0.0803 -0.0587
  479loPI   C6A 7660  10.394  16.920   8.267  0.0133 -0.1563  0.2556
  479loPI   C1B 7661  10.189  16.360  10.309  0.0815  0.2554 -0.1871
  479loPI   C2B 7662   9.891  16.195   9.833  0.1451 -0.1169  0.0221
  479loPI   C3B 7663   9.877  16.109   9.454  0.0834  0.1187 -0.0802
  479loPI   C4B 7664   9.793  16.314   9.083 -0.0677 -0.3400 -0.0630
  480loPI    C1 7665   5.802  11.068  11.259  0.3676  0.2122  0.1263
  480loPI    C2 7666   5.520  11.323  11.381 -0.0482 -0.2052  0.0670
  480loPI    C3 7667   5.824  11.230  11.624  0.0288  0.2257  0.1436
  480loPI   PO4 7668   5.903  11.141  11.022  0.1407 -0.2597 -0.2305
  480loPI   GL1 7669   5.827  11.363  10.697  0.0147 -0.0730 -0.0103
  480loPI   GL2 7670   5.813  11.631  10.814  0.0014  0.2018  0.0744
  480loPI   C1A 7671   5.841  11.373  10.237  0.2315 -0.1991  0.1147
  480loPI   C2A 7672   5.792  11.333   9.794 -0.2277 -0.1440 -0.2046
  480loPI   C3A 7673   5.849  11.407   9.298  0.1330  0.2144 -0.2438
  480loPI   C4A 7674   5.817  11.417   8.899  0.0240 -0.1083  0.1299
  480loPI   C5A 7675   5.714  11.306   8.454  0.3174  0.3763  0.0075
  480loPI   C6A 7676   5.656  11.548   8.097  0.1075  0.0283  0.0656
  480loPI   C1B 7677   5.924  11.843  10.416 -0.1436 -0.3519 -0.1418
  480loPI   C2B 7678   5.933  11.846   9.970 -0.0341  0.1608 -0.2106
  480loPI   C3B 7679   5.834  11.883   9.584 -0.1210  0.2581 -0.1733
  480loPI   C4B 7680   5.966  11.905   9.162 -0.0452  0.2098 -0.1571
  481loPI    C1 7681  10.299   0.286  11.251 -0.1103 -0.2124 -0.2749
  481loPI    C2 7682   9.991   0.085  11.408 -0.0875  0.0367  0.1038
  481loPI    C3 7683  10.361   0.024  11.547 -0.0220  0.0400 -0.0662
  481loPI   PO4 7684  10.195   0.268  10.985  0.4473 -0.1620  0.0160
  481loPI   GL1 7685  10.074  -0.009  10.630 -0.2749  0.0038 -0.0206
  481loPI   GL2 7686   9.969   0.300  10.495 -0.1992 -0.4026  0.1603
  481loPI   C1A 7687  10.202  -0.036  10.221 -0.0309  0.1848  0.1871
  481loPI   C2A 7688  10.199   0.059   9.746  0.1261 -0.2175  0.4871
  481loPI   C3A 7689  10.014   0.107   9.313  0.2001  0.5992  0.1416
  481loPI   C4A 7690  10.165   0.116   8.915 -0.3082 -0.0685 -0.1980
  481loPI   C5A 7691  10.426  -0.100   8.617 -0.1626 -0.2811 -0.0758
  481loPI   C6A 7692  10.297  -0.266   8.194  0.3746  0.4644 -0.3409
  481loPI   C1B 7693   9.880   0.291  10.060 -0.1859  0.0529 -0.0290
  481loPI   C2B 7694   9.791   0.462   9.695  0.2303 -0.0072 -0.1942
  481loPI   C3B 7695   9.624   0.459   9.250  0.0399  0.0308  0.0420
  481loPI   C4B 7696   9.720   0.502   8.820 -0.0815  0.0135 -0.0474
  482loPI    C1 7697  14.056   0.522  11.617  0.0883 -0.0518  0.1265
  482loPI    C2 7698  14.168   0.230  11.867 -0.0478 -0.3236 -0.1240
  482loPI    C3 7699  13.817   0.416  11.921  0.0209 -0.2316  0.0123
  482loPI   PO4 7700  14.087   0.433  11.327  0.2246 -0.1108  0.1258
  482loPI   GL1 7701  14.071   0.141  11.017 -0.1455 -0.1758  0.1049
  482loPI   GL2 7702  14.075  -0.127  10.928  0.4355  0.3071 -0.1211
  482loPI   C1A 7703  13.709   0.075  10.613 -0.0613  0.0540 -0.0048
  482loPI   C2A 7704  13.569   0.034  10.242  0.0785 -0.2795 -0.0106
  482loPI   C3A 7705  13.668   0.041   9.805 -0.0614  0.0925  0.2824
  482loPI   C4A 7706  13.690  -0.004   9.381  0.0420  0.1483  0.2482
  482loPI   C5A 7707  13.719  -0.037   8.987 -0.0544 -0.1395 -0.0482
  482loPI   C6A 7708  13.671  -0.093   8.592 -0.1169 -0.1550  0.2735
  482loPI   C1B 7709  13.997  -0.335  10.459  0.0280 -0.1343  0.1698
  482loPI   C2B 7710  13.940  -0.313  10.058  0.2720 -0.1440 -0.0731
  482loPI   C3B 7711  14.029  -0.274   9.662 -0.2163  0.0890  0.1933
  482loPI   C4B 7712  14.047  -0.407   9.198  0.1216  0.2447 -0.2610
  483loPI    C1 7713  13.844  17.187  11.649 -0.0019 -0.0626 -0.0399
  483loPI    C2 7714  13.580  17.047  11.915  0.0611  0.2122  0.1718
  483loPI    C3 7715  13.970  17.051  12.004  0.1629 -0.3428 -0.2024
  483loPI   PO4 7716  13.665  17.244  11.372 -0.2154 -0.2657  0.0577
  483loPI   GL1 7717  13.695  17.152  11.033  0.2358  0.0703 -0.2044
  483loPI   GL2 7718  13.971  17.056  10.870  0.1398  0.1200 -0.0922
  483loPI   C1A 7719  13.570  17.097  10.600 -0.1084 -0.0206  0.1304
  483loPI   C2A 7720  13.487  17.096  10.105 -0.2759 -0.2448  0.0210
  483loPI   C3A 7721  13.539  17.211   9.640  0.0827 -0.1290 -0.0344
  483loPI   C4A 7722  13.592  17.157   9.263 -0.2217 -0.1085  0.3348
  483loPI   C5A 7723  13.482  17.152   8.822 -0.0592  0.0174  0.3012
  483loPI   C6A 7724  13.393  17.101   8.426  0.0329  0.1671  0.1921
  483loPI   C1B 7725  13.984  16.847  10.416  0.1903  0.2244 -0.0757
  483loPI   C2B 7726  13.964  16.869   9.943 -0.0981  0.2732 -0.0639
  483loPI   C3B 7727  13.948  16.825   9.443 -0.1775 -0.0701  0.0269
  483loPI   C4B 7728  13.941  16.869   8.926 -0.1898 -0.2720 -0.0519
  484loPI    C1 7729   2.816  16.617  11.823 -0.0490 -0.0378  0.0081
  484loPI    C2 7730   2.585  16.293  11.781  0.0344 -0.0877 -0.0676
  484loPI    C3 7731   2.422  16.643  11.885 -0.0437 -0.1743  0.1043
  484loPI   PO4 7732   3.006  16.598  11.528 -0.0359 -0.0950  0.1430
  484loPI   GL1 7733   2.897  16.678  11.080  0.0662 -0.0908 -0.0600
  484loPI   GL2 7734   2.612  16.507  10.859 -0.2659 -0.2104  0.3019
  484loPI   C1A 7735   3.157  16.994  10.763  0.0735 -0.1997 -0.1014
  484loPI   C2A 7736   3.098  17.144  10.375  0.3070 -0.0421 -0.1648
  484loPI   C3A 7737   3.184  17.086   9.936  0.1249 -0.0620  0.2087
  484loPI   C4A 7738   3.214  17.107   9.531 -0.2493 -0.0592 -0.0744
  484loPI   C5A 7739   3.149  17.131   9.101 -0.1896 -0.2284  0.1922
  484loPI   C6A 7740   3.332  16.975   8.749  0.3819  0.0883 -0.1738
  484loPI   C1B 7741   2.658  16.479  10.429 -0.0759 -0.3343 -0.1637
  484loPI   C2B 7742   2.546  16.389  10.020  0.0137  0.2260  0.1279
  484loPI   C3B 7743   2.574  16.371   9.683 -0.2958  0.2460  0.1918
  484loPI   C4B 7744   2.645  16.414   9.208 -0.1544 -0.0190 -0.1108
  485loPI    C1 7745   8.938   2.690  11.093  0.1398  0.1885 -0.0121
  485loPI    C2 7746   8.603   2.474  11.068  0.2391  0.0321 -0.0083
  485loPI    C3 7747   8.616   2.795  11.306  0.1285 -0.0289  0.0819
  485loPI   PO4 7748   9.049   2.715  10.756  0.4944 -0.1675 -0.2612
  485loPI   GL1 7749   9.276   2.572  10.408 -0.1112 -0.0260 -0.2015
  485loPI   GL2 7750   9.470   2.802  10.545  0.0532 -0.1495 -0.0931
  485loPI   C1A 7751   9.198   2.620   9.955 -0.0014 -0.2996  0.2076
  485loPI   C2A 7752   9.181   2.618   9.440 -0.2691  0.0389  0.1793
  485loPI   C3A 7753   9.228   2.653   9.016 -0.2656  0.2540 -0.1800
  485loPI   C4A 7754   9.127   2.737   8.505  0.1243 -0.0586 -0.0460
  485loPI   C5A 7755   8.845   2.480   8.239  0.0107  0.4540  0.3642
  485loPI   C6A 7756   8.445   2.344   8.111 -0.1639  0.0777  0.0040
  485loPI   C1B 7757   9.188   3.078  10.158 -0.3640  0.0901  0.0219
  485loPI   C2B 7758   9.261   3.068   9.747  0.0649 -0.2328 -0.0208
  485loPI   C3B 7759   9.248   3.114   9.273  0.0220  0.0020 -0.0939
  485loPI   C4B 7760   9.372   3.108   8.893 -0.0525 -0.1677  0.2127
  486loPI    C1 7761   3.955   4.120  11.256  0.0629  0.0953  0.0482
  486loPI    C2 7762   3.662   3.888  11.399 -0.0113 -0.0224 -0.2867
  486loPI    C3 7763   4.024   3.880  11.569 -0.0710 -0.2300 -0.1666
  486loPI   PO4 7764   4.072   4.054  10.932  0.0962  0.0930  0.2839
  486loPI   GL1 7765   4.272   3.868  10.510  0.0161  0.1910 -0.1309
  486loPI   GL2 7766   3.943   3.711  10.564  0.3618  0.1015  0.0661
  486loPI   C1A 7767   4.365   3.723  10.236 -0.0648 -0.2429  0.2070
  486loPI   C2A 7768   4.441   3.694   9.780  0.1420 -0.0325 -0.0866
  486loPI   C3A 7769   4.407   3.719   9.437  0.1732  0.2594  0.0832
  486loPI   C4A 7770   4.414   3.753   9.058  0.0126  0.1074  0.0774
  486loPI   C5A 7771   4.403   3.650   8.637  0.1655  0.3535 -0.0631
  486loPI   C6A 7772   4.029   3.542   8.323  0.0607 -0.1039 -0.0583
  486loPI   C1B 7773   3.966   3.502  10.119  0.2641  0.0202 -0.1236
  486loPI   C2B 7774   4.042   3.524   9.693  0.2639 -0.0457  0.0798
  486loPI   C3B 7775   3.942   3.566   9.254 -0.0019 -0.0971  0.1940
  486loPI   C4B 7776   3.903   3.404   8.779  0.2268  0.1551 -0.0641
  487loPI    C1 7777  10.613  14.824  11.043 -0.2166  0.1533  0.0342
  487loPI    C2 7778  10.613  15.142  11.285 -0.2084  0.1321  0.0623
  487loPI    C3 7779  10.744  14.789  11.419  0.2120  0.2194 -0.1036
  487loPI   PO4 7780  10.722  14.823  10.746 -0.2033 -0.2732  0.0638
  487loPI   GL1 7781  11.057  14.877  10.579 -0.0103 -0.1106 -0.0335
  487loPI   GL2 7782  11.061  15.193  10.373 -0.0391  0.1828 -0.0238
  487loPI   C1A 7783  11.004  14.705  10.108  0.1749  0.0287 -0.1284
  487loPI   C2A 7784  10.995  14.687   9.678 -0.1259 -0.1800  0.0159
  487loPI   C3A 7785  11.008  14.705   9.262 -0.0386 -0.1785 -0.1989
  487loPI   C4A 7786  10.914  14.755   8.859 -0.4867 -0.0199  0.0116
  487loPI   C5A 7787  10.852  14.892   8.398 -0.0581 -0.0878 -0.2550
  487loPI   C6A 7788  10.836  15.019   8.016 -0.0123 -0.1525 -0.1239
  487loPI   C1B 7789  11.068  15.224   9.896 -0.3224 -0.1575  0.2174
  487loPI   C2B 7790  11.070  15.228   9.487  0.0184  0.2373  0.4470
  487loPI   C3B 7791  11.024  15.287   9.120  0.0360  0.0944  0.1879
  487loPI   C4B 7792  11.069  15.235   8.689  0.0500  0.1368  0.2068
  488loPI    C1 7793   3.603   1.306  11.439 -0.0542 -0.0641 -0.1056
  488loPI    C2 7794   3.352   1.401  11.735  0.0750  0.0689 -0.0374
  488loPI    C3 7795   3.696   1.214  11.817  0.0867  0.0588 -0.1094
  488loPI   PO4 7796   3.618   1.502  11.291 -0.1389  0.1340 -0.1494
  488loPI   GL1 7797   3.655   1.638  10.928 -0.0127  0.0391  0.0737
  488loPI   GL2 7798   3.938   1.717  10.843  0.2609  0.2112  0.0180
  488loPI   C1A 7799   3.504   1.481  10.529  0.1516 -0.0722 -0.1541
  488loPI   C2A 7800   3.528   1.527  10.070 -0.0715 -0.1036 -0.1060
  488loPI   C3A 7801   3.555   1.547   9.651 -0.0297 -0.1768 -0.0011
  488loPI   C4A 7802   3.492   1.548   9.152 -0.0183  0.2401  0.3217
  488loPI   C5A 7803   3.689   1.232   8.917 -0.1270 -0.0411  0.1690
  488loPI   C6A 7804   3.831   1.276   8.578 -0.3117  0.1954 -0.1700
  488loPI   C1B 7805   3.979   1.664  10.475 -0.0714  0.1842 -0.0938
  488loPI   C2B 7806   4.000   1.636  10.036  0.0865  0.1125  0.2322
  488loPI   C3B 7807   4.013   1.692   9.617  0.2101  0.2339  0.0738
  488loPI   C4B 7808   3.967   1.704   9.090 -0.1147 -0.1120 -0.3809
  489loPI    C1 7809   9.656  16.457  11.225  0.0351 -0.1180 -0.0091
  489loPI    C2 7810   9.448  16.700  11.466  0.2872  0.0965 -0.0030
  489loPI    C3 7811   9.754  16.488  11.612  0.2395 -0.0176 -0.0674
  489loPI   PO4 7812   9.547  16.524  11.028 -0.2411  0.1227  0.4690
  489loPI   GL1 7813   9.555  16.730  10.571 -0.3008 -0.1190  0.5855
  489loPI   GL2 7814   9.885  16.729  10.346 -0.0081  0.1072 -0.1495
  489loPI   C1A 7815   9.479  16.936  10.141  0.2188 -0.0046  0.0961
  489loPI   C2A 7816   9.567  17.041   9.718 -0.2139  0.1107  0.3898
  489loPI   C3A 7817   9.547  17.142   9.249  0.1231  0.0587  0.1087
  489loPI   C4A 7818   9.554  17.145   8.800 -0.0585 -0.1488  0.1294
  489loPI   C5A 7819   9.455  17.436   8.440 -0.4389 -0.2291  0.0400
  489loPI   C6A 7820   9.417  17.812   8.531 -0.0771  0.1392  0.1972
  489loPI   C1B 7821   9.990  16.704  10.004  0.1125  0.0798 -0.0550
  489loPI   C2B 7822   9.950  16.683   9.604  0.3425  0.0920 -0.0548
  489loPI   C3B 7823   9.911  16.800   9.179  0.1934  0.0312 -0.0563
  489loPI   C4B 7824   9.909  16.729   8.694  0.2001  0.1003 -0.3852
  490loPI    C1 7825   1.304  16.181  11.560  0.0164 -0.2680 -0.3936
  490loPI    C2 7826   1.302  15.868  11.808  0.1570 -0.1705 -0.2671
  490loPI    C3 7827   1.624  16.104  11.787 -0.1361  0.2715  0.0273
  490loPI   PO4 7828   1.208  16.112  11.320  0.1070 -0.0753  0.0281
  490loPI   GL1 7829   1.028  16.195  11.048  0.0675 -0.0257 -0.3526
  490loPI   GL2 7830   0.720  16.153  10.843 -0.0450 -0.0936  0.4041
  490loPI   C1A 7831   1.160  16.460  10.676  0.3365  0.0695 -0.0476
  490loPI   C2A 7832   1.266  16.520  10.353  0.1905  0.1006 -0.0331
  490loPI   C3A 7833   1.231  16.377   9.934  0.1364 -0.4016 -0.1168
  490loPI   C4A 7834   1.174  16.390   9.485  0.0000 -0.1275  0.0500
  490loPI   C5A 7835   1.227  16.422   9.083 -0.1316  0.3776  0.0095
  490loPI   C6A 7836   1.037  16.442   8.690 -0.0391  0.0455  0.0079
  490loPI   C1B 7837   0.768  16.233  10.450  0.1123 -0.2432 -0.3141
  490loPI   C2B 7838   0.763  16.194   9.950  0.0125  0.2303 -0.1600
  490loPI   C3B 7839   0.697  16.237   9.528 -0.0572  0.1057 -0.3189
  490loPI   C4B 7840   0.774  16.221   9.007  0.2250 -0.1790 -0.0308
  491loPI    C1 7841   0.791   2.065  11.258  0.0944 -0.1412  0.0462
  491loPI    C2 7842   1.048   2.029  11.562  0.0459  0.1154  0.1197
  491loPI    C3 7843   0.658   2.079  11.635  0.0007 -0.0698  0.0111
  491loPI   PO4 7844   0.948   2.252  11.091 -0.1010  0.3007  0.3404
  491loPI   GL1 7845   1.313   2.384  10.823  0.0313 -0.1499  0.0899
  491loPI   GL2 7846   1.492   2.112  10.832 -0.1478  0.0575 -0.0203
  491loPI   C1A 7847   1.336   2.201  10.346 -0.0059 -0.0832  0.2357
  491loPI   C2A 7848   1.631   2.130  10.102  0.0151  0.0585 -0.1259
  491loPI   C3A 7849   1.813   2.255   9.636 -0.0547 -0.4183  0.0569
  491loPI   C4A 7850   1.838   2.446   9.205 -0.2231 -0.0391  0.0899
  491loPI   C5A 7851   1.854   2.140   8.840 -0.2517 -0.1371 -0.1011
  491loPI   C6A 7852   1.622   2.148   8.489 -0.0468 -0.1560  0.3365
  491loPI   C1B 7853   1.595   1.819  10.486 -0.0565  0.3089  0.2702
  491loPI   C2B 7854   1.760   1.678  10.083  0.1111  0.0355  0.1553
  491loPI   C3B 7855   1.691   1.789   9.729  0.0121  0.0422  0.1094
  491loPI   C4B 7856   1.628   1.858   9.389  0.3317  0.2578  0.0866
  492loPI    C1 7857   4.159  16.974  11.586  0.0803 -0.0154  0.0412
  492loPI    C2 7858   4.357  16.673  11.411  0.0863 -0.1196  0.2247
  492loPI    C3 7859   4.117  16.601  11.723  0.0580  0.0612  0.2462
  492loPI   PO4 7860   4.224  17.164  11.451  0.1031  0.1963 -0.0340
  492loPI   GL1 7861   4.165  17.311  10.979  0.1205  0.0108 -0.1695
  492loPI   GL2 7862   3.878  17.168  10.957 -0.1469  0.2781  0.0108
  492loPI   C1A 7863   4.074  17.481  10.539  0.1579 -0.0417 -0.2953
  492loPI   C2A 7864   4.142  17.418  10.153 -0.0608 -0.0148 -0.2132
  492loPI   C3A 7865   4.121  17.525   9.729 -0.0403 -0.1967  0.1720
  492loPI   C4A 7866   4.097  17.545   9.335  0.1749  0.1106  0.4753
  492loPI   C5A 7867   4.265  17.615   8.937 -0.3736  0.0158  0.0536
  492loPI   C6A 7868   4.704  17.751   8.840 -0.1560 -0.0149 -0.1575
  492loPI   C1B 7869   3.952  17.006  10.541  0.1020  0.3864  0.0263
  492loPI   C2B 7870   4.039  16.923  10.119  0.1344  0.0254 -0.0693
  492loPI   C3B 7871   4.120  16.978   9.687  0.0085  0.0883  0.1817
  492loPI   C4B 7872   4.104  17.065   9.310  0.0426  0.1158 -0.2815
  493loPI    C1 7873   6.626  12.982  11.382 -0.0979  0.1614 -0.1560
  493loPI    C2 7874   6.922  13.130  11.607  0.0642 -0.0719 -0.2132
  493loPI    C3 7875   6.659  12.874  11.766  0.0475 -0.0661 -0.2312
  493loPI   PO4 7876   6.599  13.174  11.202 -0.1274  0.0231 -0.0331
  493loPI   GL1 7877   6.596  13.188  10.828  0.0100  0.0179 -0.0194
  493loPI   GL2 7878   6.676  13.524  10.792 -0.2608 -0.4257 -0.1879
  493loPI   C1A 7879   6.596  13.069  10.413  0.2412 -0.0657  0.0366
  493loPI   C2A 7880   6.586  13.009   9.994 -0.0610  0.2462  0.1304
  493loPI   C3A 7881   6.584  13.078   9.514  0.0320 -0.0027 -0.3765
  493loPI   C4A 7882   6.585  13.158   9.004 -0.1432 -0.0307 -0.3444
  493loPI   C5A 7883   6.557  13.190   8.516 -0.1237  0.2153 -0.0551
  493loPI   C6A 7884   6.662  13.551   8.284 -0.0469  0.1551  0.0963
  493loPI   C1B 7885   6.586  13.574  10.353  0.0461  0.1240  0.2327
  493loPI   C2B 7886   6.612  13.502  10.022 -0.1293 -0.1574  0.3201
  493loPI   C3B 7887   6.600  13.612   9.589 -0.3538 -0.2607 -0.1455
  493loPI   C4B 7888   6.686  13.687   9.131 -0.1302  0.0864 -0.1338
  494loPI    C1 7889   8.099  14.936  10.918  0.4176  0.0916  0.0920
  494loPI    C2 7890   8.280  14.835  11.260  0.2061 -0.1048  0.1486
  494loPI    C3 7891   7.928  15.023  11.269  0.1758 -0.1559  0.0388
  494loPI   PO4 7892   8.291  15.147  10.764 -0.0821  0.1889  0.1190
  494loPI   GL1 7893   8.265  15.314  10.423  0.2453  0.0322 -0.1964
  494loPI   GL2 7894   8.330  15.625  10.392  0.0959 -0.1848  0.1546
  494loPI   C1A 7895   8.322  15.124  10.144 -0.1248  0.2756 -0.0891
  494loPI   C2A 7896   8.370  15.142   9.755 -0.3213  0.0623 -0.1990
  494loPI   C3A 7897   8.349  15.194   9.254 -0.1409  0.3194  0.1252
  494loPI   C4A 7898   8.300  15.295   8.900 -0.2371  0.3482  0.0763
  494loPI   C5A 7899   8.200  15.361   8.528  0.1584  0.0768  0.0735
  494loPI   C6A 7900   7.977  15.726   8.297  0.2941 -0.1254  0.1248
  494loPI   C1B 7901   8.356  15.624   9.963 -0.0084  0.1729 -0.0430
  494loPI   C2B 7902   8.423  15.688   9.606 -0.0940  0.0196  0.2034
  494loPI   C3B 7903   8.404  15.743   9.148  0.0575  0.0796  0.0053
  494loPI   C4B 7904   8.408  15.836   8.721 -0.1481 -0.1325 -0.0618
  495loPI    C1 7905  16.675  12.004  10.849 -0.3630  0.0962  0.2412
  495loPI    C2 7906  16.666  12.164  11.216  0.3095  0.3074  0.1792
  495loPI    C3 7907  17.013  12.037  11.061 -0.0137 -0.0612 -0.2717
  495loPI   PO4 7908  16.374  12.144  10.753  0.0276  0.1626  0.1562
  495loPI   GL1 7909  16.273  11.980  10.295  0.3502  0.0102  0.0049
  495loPI   GL2 7910  16.554  11.913  10.331  0.0819  0.0696  0.0284
  495loPI   C1A 7911  16.008  12.225   9.976 -0.0532 -0.3154  0.2096
  495loPI   C2A 7912  15.990  12.290   9.540  0.1677 -0.1376 -0.1882
  495loPI   C3A 7913  15.990  12.253   9.125  0.1493  0.0570 -0.1005
  495loPI   C4A 7914  15.935  12.175   8.737  0.1507 -0.0395 -0.0935
  495loPI   C5A 7915  15.983  12.091   8.380 -0.0692 -0.4646  0.2251
  495loPI   C6A 7916  16.315  11.872   8.154  0.0501  0.1317 -0.1302
  495loPI   C1B 7917  16.405  12.023   9.856 -0.1282  0.0128 -0.1919
  495loPI   C2B 7918  16.393  12.025   9.434  0.3079 -0.1361 -0.1366
  495loPI   C3B 7919  16.356  11.970   9.035 -0.0528 -0.2073  0.1339
  495loPI   C4B 7920  16.406  11.909   8.613  0.0844 -0.1043 -0.0344
  496loPI    C1 7921   2.930   2.332  11.395 -0.2195 -0.1482  0.1349
  496loPI    C2 7922   2.747   2.501  11.708  0.1266  0.2995  0.1058
  496loPI    C3 7923   3.066   2.266  11.766 -0.1139 -0.0310  0.1177
  496loPI   PO4 7924   2.708   2.239  11.228 -0.0904  0.0169 -0.0152
  496loPI   GL1 7925   2.778   2.049  10.920  0.1993 -0.0883  0.0274
  496loPI   GL2 7926   2.763   2.394  10.711 -0.4778  0.0503 -0.0265
  496loPI   C1A 7927   2.698   1.944  10.513 -0.1589  0.0685 -0.3446
  496loPI   C2A 7928   2.683   1.863  10.090 -0.2077  0.1186 -0.2570
  496loPI   C3A 7929   2.638   1.706   9.634  0.0625 -0.0421  0.0393
  496loPI   C4A 7930   2.499   1.635   9.224  0.2962  0.1952 -0.1518
  496loPI   C5A 7931   2.311   1.674   8.769 -0.1241  0.0045 -0.5364
  496loPI   C6A 7932   1.917   1.683   8.584 -0.0140 -0.2547  0.2228
  496loPI   C1B 7933   3.073   2.335  10.369  0.2979 -0.1192 -0.3105
  496loPI   C2B 7934   3.058   2.317   9.958 -0.1840 -0.1891 -0.1319
  496loPI   C3B 7935   3.198   2.414   9.619  0.2274  0.1896  0.0398
  496loPI   C4B 7936   3.145   2.356   9.207 -0.2229 -0.0481  0.0012
  497loPI    C1 7937  11.712  13.028  11.156 -0.4119  0.1788 -0.0369
  497loPI    C2 7938  11.703  13.415  11.053 -0.1129  0.2189  0.0771
  497loPI    C3 7939  11.754  13.311  11.436 -0.1326  0.0654  0.0387
  497loPI   PO4 7940  11.698  12.929  10.894  0.0525  0.1882 -0.2546
  497loPI   GL1 7941  11.428  12.987  10.589 -0.1574 -0.1040  0.0969
  497loPI   GL2 7942  11.087  13.078  10.691  0.1780 -0.0299 -0.1531
  497loPI   C1A 7943  11.566  13.081  10.141 -0.3648  0.1460  0.3469
  497loPI   C2A 7944  11.538  13.026   9.693 -0.1241 -0.0004 -0.0184
  497loPI   C3A 7945  11.545  13.045   9.305  0.2800 -0.0330  0.0173
  497loPI   C4A 7946  11.595  12.981   8.890  0.0520 -0.2166 -0.0161
  497loPI   C5A 7947  11.353  12.779   8.559 -0.1959 -0.2162  0.0209
  497loPI   C6A 7948  11.047  12.647   8.389  0.1370  0.0154  0.2249
  497loPI   C1B 7949  11.131  13.309  10.210  0.0145  0.0709 -0.1432
  497loPI   C2B 7950  11.173  13.312   9.707  0.2819  0.0990 -0.1967
  497loPI   C3B 7951  11.149  13.302   9.176  0.0372 -0.0669 -0.1451
  497loPI   C4B 7952  11.223  13.343   8.714 -0.1245  0.1083  0.0542
  498loPI    C1 7953   5.523  15.676  11.152  0.1325  0.0342 -0.0076
  498loPI    C2 7954   5.739  15.785  11.471  0.2339 -0.3979  0.0765
  498loPI    C3 7955   5.572  15.421  11.456 -0.1088 -0.2356 -0.1890
  498loPI   PO4 7956   5.597  15.903  11.034  0.0405  0.0438  0.0956
  498loPI   GL1 7957   5.502  16.062  10.716  0.0924 -0.0264 -0.3517
  498loPI   GL2 7958   5.766  16.223  10.696 -0.2252 -0.3638 -0.0874
  498loPI   C1A 7959   5.278  15.952  10.344 -0.0180  0.2978 -0.0076
  498loPI   C2A 7960   5.280  16.065   9.930 -0.0473 -0.2887  0.0263
  498loPI   C3A 7961   5.384  16.042   9.508  0.1050  0.1165 -0.1665
  498loPI   C4A 7962   5.366  16.030   9.058 -0.0764 -0.0580  0.3398
  498loPI   C5A 7963   5.401  16.194   8.597 -0.3499  0.3237  0.0460
  498loPI   C6A 7964   5.415  16.600   8.449 -0.1539  0.0014  0.1043
  498loPI   C1B 7965   5.694  16.164  10.243  0.0487 -0.0105  0.0453
  498loPI   C2B 7966   5.809  16.161   9.817  0.0356 -0.0556  0.2073
  498loPI   C3B 7967   5.858  16.210   9.336 -0.3287 -0.2908 -0.0147
  498loPI   C4B 7968   5.809  16.259   8.882  0.3031  0.1179 -0.0984
  499loPI    C1 7969   2.333  14.220  11.086  0.1281 -0.1837 -0.1716
  499loPI    C2 7970   2.209  13.883  11.261 -0.1780  0.0383  0.0484
  499loPI    C3 7971   2.437  14.141  11.464  0.0882 -0.0513 -0.1324
  499loPI   PO4 7972   2.185  14.388  10.974  0.1242 -0.0213  0.1442
  499loPI   GL1 7973   2.159  14.524  10.638  0.0046  0.0519  0.2334
  499loPI   GL2 7974   2.256  14.891  10.569 -0.0859  0.0064 -0.3069
  499loPI   C1A 7975   2.126  14.424  10.173 -0.0739  0.2214  0.0873
  499loPI   C2A 7976   2.227  14.409   9.789  0.4332  0.1232  0.0400
  499loPI   C3A 7977   2.263  14.431   9.356  0.1633  0.3378  0.2065
  499loPI   C4A 7978   2.223  14.480   8.903  0.3346 -0.0606  0.1545
  499loPI   C5A 7979   2.256  14.531   8.492  0.0011 -0.2206  0.0557
  499loPI   C6A 7980   2.661  14.829   8.258 -0.3300 -0.1892  0.0038
  499loPI   C1B 7981   2.228  14.946  10.184  0.0599  0.0666  0.3184
  499loPI   C2B 7982   2.313  14.893   9.705 -0.1679  0.0514 -0.3480
  499loPI   C3B 7983   2.348  14.928   9.222  0.2654 -0.1717  0.0890
  499loPI   C4B 7984   2.481  14.869   8.773  0.0825  0.2384 -0.0943
  500loPI    C1 7985   9.632   7.701  10.791  0.1838  0.0064 -0.1256
  500loPI    C2 7986   9.470   7.574  11.134  0.0864  0.0747 -0.1457
  500loPI    C3 7987   9.235   7.663  10.823  0.1700  0.0774 -0.2085
  500loPI   PO4 7988   9.933   7.597  10.806  0.0088 -0.0126 -0.0700
  500loPI   GL1 7989  10.058   7.472  10.451 -0.2588  0.0504 -0.1333
  500loPI   GL2 7990   9.778   7.511  10.307 -0.0051  0.1760  0.4177
  500loPI   C1A 7991  10.302   7.590  10.068  0.0083  0.1665 -0.1595
  500loPI   C2A 7992  10.326   7.630   9.634 -0.1002  0.2620  0.3124
  500loPI   C3A 7993  10.215   7.677   9.244  0.2917  0.0990 -0.0490
  500loPI   C4A 7994  10.096   7.791   8.777 -0.0627 -0.1148  0.0937
  500loPI   C5A 7995  10.180   7.699   8.389  0.2236 -0.1129  0.2987
  500loPI   C6A 7996   9.896   7.356   8.170  0.2170 -0.1875  0.0071
  500loPI   C1B 7997   9.877   7.496   9.837 -0.1867 -0.1648  0.0282
  500loPI   C2B 7998   9.756   7.489   9.408  0.0136  0.1338 -0.0005
  500loPI   C3B 7999   9.651   7.611   8.958  0.0029 -0.2861  0.0423
  500loPI   C4B 8000   9.671   7.679   8.487 -0.0597  0.3555 -0.1905
  501loPI    C1 8001   1.932   5.595  10.831 -0.0748  0.2264  0.0420
  501loPI    C2 8002   2.244   5.778  11.001  0.1996 -0.0868 -0.1119
  501loPI    C3 8003   2.170   5.393  11.081  0.0363 -0.1002 -0.3164
  501loPI   PO4 8004   1.915   5.640  10.552 -0.1582 -0.2426  0.0822
  501loPI   GL1 8005   1.727   5.803  10.182  0.0075 -0.0656 -0.1017
  501loPI   GL2 8006   1.853   6.144  10.255  0.4237  0.2909 -0.0917
  501loPI   C1A 8007   1.875   5.802   9.726  0.0755 -0.3862 -0.1818
  501loPI   C2A 8008   1.877   5.793   9.207  0.1646  0.0125 -0.2558
  501loPI   C3A 8009   1.931   5.816   8.766 -0.0037  0.4445 -0.0195
  501loPI   C4A 8010   1.767   5.891   8.331 -0.1228 -0.0265  0.0339
  501loPI   C5A 8011   1.438   6.210   8.189 -0.1264 -0.1762 -0.0924
  501loPI   C6A 8012   1.272   6.115   7.758 -0.2253 -0.2223  0.0562
  501loPI   C1B 8013   2.026   6.274   9.880  0.1760  0.0200  0.1877
  501loPI   C2B 8014   1.966   6.219   9.473 -0.1071 -0.1302  0.1055
  501loPI   C3B 8015   2.002   6.248   8.984  0.1058 -0.0412  0.0686
  501loPI   C4B 8016   2.078   6.263   8.638  0.2215  0.2325 -0.1770
  502loPI    C1 8017  17.122   2.472  11.708  0.1461  0.0865  0.1371
  502loPI    C2 8018  16.745   2.473  11.842  0.0851 -0.0910 -0.0291
  502loPI    C3 8019  16.947   2.817  11.812 -0.1710  0.0448 -0.2356
  502loPI   PO4 8020  17.050   2.369  11.416 -0.0273  0.2301 -0.0645
  502loPI   GL1 8021  17.007   2.519  10.959 -0.1071 -0.1081 -0.0444
  502loPI   GL2 8022  17.290   2.452  10.987  0.0376  0.0610  0.1166
  502loPI   C1A 8023  16.995   2.264  10.536  0.0480 -0.1667  0.4555
  502loPI   C2A 8024  17.005   2.371  10.137  0.0993  0.1035  0.2404
  502loPI   C3A 8025  17.142   2.411   9.734  0.0586  0.1066 -0.1656
  502loPI   C4A 8026  17.158   2.330   9.248  0.1256  0.2364 -0.0659
  502loPI   C5A 8027  17.378   2.478   8.839  0.2817 -0.0259 -0.0448
  502loPI   C6A 8028  17.419   2.585   8.380  0.0800  0.1149  0.1625
  502loPI   C1B 8029  17.426   2.658  10.608  0.2563  0.0431 -0.2374
  502loPI   C2B 8030  17.511   2.555  10.164  0.2241 -0.1166  0.1604
  502loPI   C3B 8031  17.652   2.552   9.670 -0.0353 -0.2988 -0.2921
  502loPI   C4B 8032  17.745   2.696   9.195 -0.2452 -0.0742 -0.2767
  503loPI    C1 8033  10.457  16.217  11.270 -0.1118  0.0897 -0.0793
  503loPI    C2 8034  10.174  16.495  11.216 -0.0427  0.1675 -0.0425
  503loPI    C3 8035  10.127  16.213  11.496 -0.1548  0.0869 -0.1416
  503loPI   PO4 8036  10.492  16.191  10.960 -0.2457  0.1093  0.1839
  503loPI   GL1 8037  10.320  15.964  10.621  0.0307  0.1498 -0.0918
  503loPI   GL2 8038  10.086  15.730  10.664  0.0074 -0.0247  0.1651
  503loPI   C1A 8039  10.312  15.823  10.259 -0.1531 -0.1347  0.1330
  503loPI   C2A 8040  10.329  15.854   9.793  0.1042 -0.2548  0.2776
  503loPI   C3A 8041  10.344  15.899   9.362 -0.1448  0.1145  0.0683
  503loPI   C4A 8042  10.318  15.837   8.901  0.2679 -0.2723  0.1889
  503loPI   C5A 8043  10.186  15.597   8.654 -0.0795 -0.0682 -0.0462
  503loPI   C6A 8044  10.153  15.148   8.656 -0.0834 -0.0037 -0.0229
  503loPI   C1B 8045  10.035  15.410  10.340  0.1830 -0.0554  0.0179
  503loPI   C2B 8046  10.220  15.336   9.979 -0.0089  0.0168 -0.0908
  503loPI   C3B 8047  10.186  15.395   9.510  0.0477 -0.0760 -0.0739
  503loPI   C4B 8048  10.126  15.427   9.117  0.0491  0.0470 -0.0719
  504loPI    C1 8049   5.647  13.994  10.974 -0.1775  0.0372  0.2171
  504loPI    C2 8050   5.837  13.725  11.201 -0.0424 -0.0424  0.0131
  504loPI    C3 8051   5.572  13.604  10.928 -0.1839  0.0509  0.1076
  504loPI   PO4 8052   5.808  14.166  10.923  0.0039 -0.0582 -0.2082
  504loPI   GL1 8053   6.109  14.277  10.588  0.1409  0.1655 -0.0727
  504loPI   GL2 8054   5.869  14.186  10.464  0.1296  0.4446  0.2653
  504loPI   C1A 8055   6.332  14.399  10.267 -0.0515  0.0998  0.1970
  504loPI   C2A 8056   6.332  14.410   9.793 -0.0525  0.2765 -0.3151
  504loPI   C3A 8057   6.297  14.489   9.321  0.0648 -0.0415  0.0041
  504loPI   C4A 8058   6.368  14.622   8.936  0.0778  0.1105 -0.2694
  504loPI   C5A 8059   6.671  14.630   8.654  0.0272  0.0939 -0.1663
  504loPI   C6A 8060   7.084  14.735   8.734  0.3247 -0.0851 -0.1804
  504loPI   C1B 8061   5.823  14.237  10.055  0.0722  0.1780  0.1476
  504loPI   C2B 8062   5.868  14.328   9.598 -0.3333 -0.1260 -0.1849
  504loPI   C3B 8063   5.762  14.223   9.243 -0.2131  0.0465  0.1127
  504loPI   C4B 8064   5.955  14.342   8.865 -0.0417 -0.0096  0.1521
  505loPI    C1 8065   5.956  16.818  11.485  0.0754  0.0655  0.0145
  505loPI    C2 8066   5.869  17.209  11.480 -0.2160  0.0011 -0.1736
  505loPI    C3 8067   5.816  16.996  11.815  0.2879  0.1934  0.0375
  505loPI   PO4 8068   5.828  16.720  11.325 -0.3840  0.0761 -0.0329
  505loPI   GL1 8069   5.865  16.705  10.877  0.0911  0.0948 -0.0209
  505loPI   GL2 8070   5.597  16.933  10.938 -0.1602 -0.0202  0.0858
  505loPI   C1A 8071   5.820  16.641  10.475  0.0470 -0.3545 -0.1881
  505loPI   C2A 8072   5.883  16.682  10.062  0.0966  0.1256 -0.1007
  505loPI   C3A 8073   5.859  16.755   9.536 -0.2178  0.2450 -0.5718
  505loPI   C4A 8074   5.924  16.702   9.121  0.2419 -0.1372 -0.1179
  505loPI   C5A 8075   5.892  16.716   8.631 -0.2488  0.0376 -0.2491
  505loPI   C6A 8076   5.792  16.925   8.231 -0.0900 -0.3497 -0.3139
  505loPI   C1B 8077   5.483  17.037  10.572 -0.1154 -0.0687  0.1633
  505loPI   C2B 8078   5.422  16.973  10.146 -0.0310 -0.0621 -0.0430
  505loPI   C3B 8079   5.428  17.053   9.637 -0.1635 -0.2271  0.0758
  505loPI   C4B 8080   5.527  17.018   9.249  0.0436  0.1752  0.0168
  506loPI    C1 8081  11.650  10.574  11.172  0.0285 -0.0725 -0.1253
  506loPI    C2 8082  11.782  10.851  11.428 -0.1665  0.0155 -0.1180
  506loPI    C3 8083  11.849  10.463  11.501  0.2248  0.0632 -0.1963
  506loPI   PO4 8084  11.606  10.676  10.881  0.0713 -0.0639 -0.1303
  506loPI   GL1 8085  11.521  10.424  10.530  0.1570 -0.0247  0.0860
  506loPI   GL2 8086  11.295  10.164  10.340 -0.2539  0.0700 -0.0449
  506loPI   C1A 8087  11.543  10.614  10.152  0.1542  0.1170 -0.0274
  506loPI   C2A 8088  11.566  10.627   9.645  0.1962 -0.3710 -0.1387
  506loPI   C3A 8089  11.643  10.657   9.138  0.0732 -0.1760  0.1541
  506loPI   C4A 8090  11.644  10.555   8.688  0.1596 -0.1763 -0.0643
  506loPI   C5A 8091  11.705  10.273   8.354 -0.1224 -0.0668  0.4087
  506loPI   C6A 8092  11.426  10.102   8.192 -0.1963 -0.1799 -0.0833
  506loPI   C1B 8093  11.417  10.123   9.901 -0.0334 -0.2610  0.0543
  506loPI   C2B 8094  11.397  10.132   9.467 -0.2535 -0.0791 -0.1908
  506loPI   C3B 8095  11.508  10.163   9.083  0.0837 -0.0775  0.0861
  506loPI   C4B 8096  11.437  10.038   8.707 -0.0289 -0.1241 -0.1332
  507loPI    C1 8097   5.573   3.046  11.506 -0.2531  0.1180  0.2401
  507loPI    C2 8098   5.914   3.236  11.591  0.0249 -0.2151 -0.0927
  507loPI    C3 8099   5.760   2.977  11.853  0.0428 -0.0888  0.0445
  507loPI   PO4 8100   5.612   2.959  11.265  0.0419 -0.2649 -0.0348
  507loPI   GL1 8101   5.483   2.914  10.869  0.1837  0.1445  0.0138
  507loPI   GL2 8102   5.666   3.274  10.730  0.2841  0.2248 -0.0139
  507loPI   C1A 8103   5.197   3.162  10.611 -0.1640  0.2867  0.0448
  507loPI   C2A 8104   5.235   3.136  10.167  0.0942 -0.0371  0.0318
  507loPI   C3A 8105   5.230   3.096   9.695 -0.1670  0.1800 -0.1431
  507loPI   C4A 8106   5.204   3.037   9.257  0.0300 -0.0425  0.0415
  507loPI   C5A 8107   5.186   3.113   8.806 -0.2504 -0.0173  0.1655
  507loPI   C6A 8108   5.049   3.123   8.387 -0.0832  0.0193  0.1073
  507loPI   C1B 8109   5.653   3.260  10.345  0.0901  0.0304  0.0753
  507loPI   C2B 8110   5.657   3.326   9.897 -0.0960  0.0276 -0.1196
  507loPI   C3B 8111   5.688   3.252   9.444  0.1825  0.0086 -0.1543
  507loPI   C4B 8112   5.649   3.266   9.037 -0.1902 -0.1406  0.0833
  508loPI    C1 8113   4.905   5.416  11.488  0.0371 -0.1229  0.1966
  508loPI    C2 8114   4.656   5.549  11.205  0.1568 -0.0459  0.1263
  508loPI    C3 8115   4.510   5.402  11.548  0.0150 -0.0165  0.0793
  508loPI   PO4 8116   5.095   5.232  11.315 -0.4330 -0.3991 -0.1568
  508loPI   GL1 8117   5.160   5.309  10.924  0.1663 -0.0626  0.0262
  508loPI   GL2 8118   5.511   5.257  10.787  0.1222  0.1427  0.1357
  508loPI   C1A 8119   4.971   5.020  10.539 -0.0209  0.0508  0.1220
  508loPI   C2A 8120   5.030   4.931  10.090  0.2305 -0.0034 -0.1631
  508loPI   C3A 8121   5.108   4.993   9.698  0.2496 -0.1137 -0.3252
  508loPI   C4A 8122   5.124   4.980   9.248 -0.0442  0.2030  0.1027
  508loPI   C5A 8123   5.132   5.019   8.806  0.0182 -0.2141  0.0435
  508loPI   C6A 8124   5.431   5.064   8.595  0.1404 -0.1475  0.2043
  508loPI   C1B 8125   5.494   5.079  10.319 -0.0648 -0.0007  0.1748
  508loPI   C2B 8126   5.532   5.107   9.923 -0.0206  0.0728 -0.3917
  508loPI   C3B 8127   5.561   5.080   9.456 -0.0626  0.1069  0.0268
  508loPI   C4B 8128   5.594   5.171   9.050 -0.0891  0.0514 -0.2002
  509loPI    C1 8129  10.350  12.092  11.328  0.0872 -0.0722 -0.2769
  509loPI    C2 8130  10.234  12.225  11.687 -0.0091  0.1169 -0.3766
  509loPI    C3 8131  10.173  11.843  11.586 -0.0278  0.0756 -0.2115
  509loPI   PO4 8132  10.184  12.256  11.139 -0.0696  0.0134  0.3068
  509loPI   GL1 8133  10.211  12.006  10.852  0.2004  0.0028 -0.4275
  509loPI   GL2 8134  10.020  11.972  10.595 -0.0964  0.0570 -0.1219
  509loPI   C1A 8135  10.462  12.150  10.489 -0.0157 -0.1015  0.2313
  509loPI   C2A 8136  10.514  12.243  10.063  0.1985  0.0987  0.1976
  509loPI   C3A 8137  10.485  12.123   9.687  0.0656 -0.2846  0.1483
  509loPI   C4A 8138  10.481  12.226   9.289  0.4017  0.3427  0.4609
  509loPI   C5A 8139  10.407  12.133   8.844  0.0330  0.1548  0.2428
  509loPI   C6A 8140  10.188  12.020   8.454  0.0805 -0.0631 -0.2731
  509loPI   C1B 8141  10.068  12.043  10.216 -0.1603 -0.1610  0.0537
  509loPI   C2B 8142  10.052  12.086   9.803  0.0725  0.0486  0.2154
  509loPI   C3B 8143   9.981  11.969   9.337  0.1175  0.0793  0.3342
  509loPI   C4B 8144   9.920  11.978   8.875 -0.0530  0.2211 -0.1291
  510loPI    C1 8145   2.971  10.219  10.911 -0.0102 -0.1059 -0.0833
  510loPI    C2 8146   2.839  10.514  11.146  0.0326 -0.1190 -0.0428
  510loPI    C3 8147   2.722  10.138  11.213 -0.1616 -0.0881 -0.2019
  510loPI   PO4 8148   2.983  10.298  10.678 -0.1846 -0.0940  0.0201
  510loPI   GL1 8149   3.232  10.454  10.442 -0.3010 -0.0014  0.1074
  510loPI   GL2 8150   2.986  10.701  10.313 -0.1257 -0.0120  0.0363
  510loPI   C1A 8151   3.310  10.475   9.994  0.2220 -0.0020  0.0875
  510loPI   C2A 8152   3.354  10.607   9.600  0.0942 -0.0852 -0.0098
  510loPI   C3A 8153   3.385  10.679   9.241 -0.0062  0.3440 -0.0221
  510loPI   C4A 8154   3.332  10.455   8.933 -0.0545  0.0984 -0.2029
  510loPI   C5A 8155   3.371  10.402   8.512  0.0991 -0.0378  0.1661
  510loPI   C6A 8156   3.158  10.403   8.107 -0.0519  0.0228 -0.3559
  510loPI   C1B 8157   2.988  10.900   9.909  0.3020 -0.1938  0.0656
  510loPI   C2B 8158   3.040  10.959   9.414  0.3431  0.1078  0.1174
  510loPI   C3B 8159   2.984  10.884   8.991 -0.1248 -0.2771  0.4333
  510loPI   C4B 8160   2.915  10.733   8.575 -0.1490 -0.0836 -0.0952
  511loPI    C1 8161   9.009  12.285  11.395  0.0844 -0.1890  0.0789
  511loPI    C2 8162   8.813  11.988  11.578 -0.0249 -0.2116 -0.0727
  511loPI    C3 8163   9.089  12.198  11.778 -0.2323 -0.1519  0.1566
  511loPI   PO4 8164   9.115  12.216  11.062 -0.1677 -0.1710  0.0333
  511loPI   GL1 8165   9.093  12.111  10.668 -0.0115 -0.1760  0.1231
  511loPI   GL2 8166   9.061  12.518  10.673 -0.0693  0.2042 -0.0418
  511loPI   C1A 8167   8.995  12.061  10.324 -0.2669 -0.1976 -0.3269
  511loPI   C2A 8168   9.044  12.120   9.899  0.0423  0.1597 -0.2694
  511loPI   C3A 8169   9.071  12.085   9.424 -0.1106 -0.2196 -0.0838
  511loPI   C4A 8170   9.019  12.108   8.969 -0.0642 -0.0105  0.2489
  511loPI   C5A 8171   8.971  12.430   8.581 -0.0108  0.0472  0.4675
  511loPI   C6A 8172   8.694  12.549   8.175 -0.1052  0.4441 -0.1004
  511loPI   C1B 8173   9.218  12.526  10.270  0.0046  0.0150  0.1347
  511loPI   C2B 8174   9.219  12.579   9.851  0.1645 -0.1482 -0.0572
  511loPI   C3B 8175   9.238  12.569   9.415 -0.1890  0.0085 -0.0749
  511loPI   C4B 8176   9.204  12.625   8.985 -0.0317 -0.3158 -0.0214
  512loPI    C1 8177   2.145  13.356  11.379  0.0366 -0.2063 -0.2684
  512loPI    C2 8178   2.084  12.977  11.492  0.0375 -0.1361 -0.0267
  512loPI    C3 8179   2.098  13.268  11.766  0.4211 -0.0110 -0.1729
  512loPI   PO4 8180   2.346  13.373  11.164  0.4769  0.1317 -0.1977
  512loPI   GL1 8181   2.241  13.371  10.728  0.0643  0.1455 -0.2451
  512loPI   GL2 8182   2.378  13.105  10.720 -0.1539 -0.1817 -0.0818
  512loPI   C1A 8183   2.153  13.375  10.370  0.0061  0.0577  0.1688
  512loPI   C2A 8184   2.046  13.350   9.878  0.3189  0.0472 -0.0683
  512loPI   C3A 8185   2.076  13.476   9.367 -0.1267 -0.0544  0.3916
  512loPI   C4A 8186   2.044  13.379   8.833  0.2546 -0.1256 -0.1089
  512loPI   C5A 8187   2.003  13.698   8.456  0.2388  0.0489  0.0369
  512loPI   C6A 8188   1.896  14.064   8.653  0.1947 -0.3080  0.2209
  512loPI   C1B 8189   2.524  12.987  10.283  0.0707 -0.0158 -0.1186
  512loPI   C2B 8190   2.482  13.017   9.867  0.0735  0.0231 -0.1495
  512loPI   C3B 8191   2.431  13.060   9.469 -0.0367 -0.0923  0.1279
  512loPI   C4B 8192   2.493  13.085   9.005  0.2285  0.0136  0.1080
  513loPI    C1 8193   0.300  16.610  11.595 -0.2410  0.1343 -0.1650
  513loPI    C2 8194   0.260  16.830  11.927 -0.0665 -0.2100  0.0912
  513loPI    C3 8195   0.059  16.486  11.889 -0.0714 -0.1820 -0.1542
  513loPI   PO4 8196   0.399  16.793  11.449  0.2020  0.3182  0.0494
  513loPI   GL1 8197   0.534  16.785  11.060 -0.2287  0.0873 -0.1634
  513loPI   GL2 8198   0.817  16.729  10.948 -0.0695 -0.0318 -0.0104
  513loPI   C1A 8199   0.338  16.589  10.745 -0.0313 -0.0347  0.0397
  513loPI   C2A 8200   0.347  16.573  10.282  0.1063  0.2258 -0.0037
  513loPI   C3A 8201   0.351  16.575   9.845  0.0939  0.0282 -0.1911
  513loPI   C4A 8202   0.292  16.550   9.445  0.0946  0.1126  0.1351
  513loPI   C5A 8203   0.080  16.691   9.080 -0.1326  0.0383 -0.3716
  513loPI   C6A 8204  -0.336  16.896   8.841  0.2552  0.2240 -0.1942
  513loPI   C1B 8205   0.845  16.779  10.496  0.0208  0.2363 -0.1281
  513loPI   C2B 8206   0.785  16.722  10.065 -0.1476  0.0052 -0.0610
  513loPI   C3B 8207   0.815  16.718   9.622 -0.1511  0.2067  0.0874
  513loPI   C4B 8208   0.819  16.662   9.220  0.0890  0.1616  0.0328
  514loPI    C1 8209   2.497  14.646  11.340 -0.1810 -0.0803 -0.2266
  514loPI    C2 8210   2.355  14.976  11.515  0.0316  0.0357 -0.2694
  514loPI    C3 8211   2.130  14.646  11.499 -0.0080  0.0347  0.1860
  514loPI   PO4 8212   2.580  14.707  11.101  0.2373 -0.1433 -0.0918
  514loPI   GL1 8213   2.694  14.414  10.748 -0.3960 -0.3743 -0.0374
  514loPI   GL2 8214   2.807  14.645  10.643  0.1598 -0.2460 -0.0200
  514loPI   C1A 8215   2.577  14.172  10.485  0.0430  0.2374 -0.2429
  514loPI   C2A 8216   2.565  14.150  10.098  0.2019 -0.0740 -0.1754
  514loPI   C3A 8217   2.634  14.092   9.686  0.2187  0.1369  0.2846
  514loPI   C4A 8218   2.620  14.160   9.206 -0.1913  0.2397 -0.2586
  514loPI   C5A 8219   2.569  14.130   8.851 -0.0641 -0.0375 -0.0342
  514loPI   C6A 8220   2.708  14.412   8.617  0.1527  0.0402  0.0288
  514loPI   C1B 8221   2.609  14.620  10.325  0.0587 -0.2715  0.1769
  514loPI   C2B 8222   2.664  14.606   9.888 -0.2013 -0.1607 -0.2651
  514loPI   C3B 8223   2.729  14.597   9.486 -0.1297  0.1209  0.1049
  514loPI   C4B 8224   2.825  14.583   9.081  0.0081  0.1264  0.1503
  515loPI    C1 8225  16.083   8.795  10.613  0.1677  0.1326 -0.2236
  515loPI    C2 8226  15.881   8.861  10.952 -0.2248 -0.0918 -0.4071
  515loPI    C3 8227  16.174   9.110  10.843 -0.0517 -0.0501  0.1231
  515loPI   PO4 8228  15.938   8.755  10.453 -0.1624 -0.0032  0.0383
  515loPI   GL1 8229  15.854   8.868  10.068 -0.1720  0.2015  0.1400
  515loPI   GL2 8230  16.090   9.112   9.995 -0.1355  0.0772  0.2894
  515loPI   C1A 8231  15.893   8.727   9.690  0.0983  0.0826 -0.0102
  515loPI   C2A 8232  15.919   8.681   9.286  0.0945 -0.2890 -0.1065
  515loPI   C3A 8233  15.960   8.729   8.882 -0.0717  0.2929  0.3249
  515loPI   C4A 8234  15.994   8.757   8.486 -0.0573 -0.1753  0.0344
  515loPI   C5A 8235  15.984   8.916   8.052 -0.1346  0.0187  0.3514
  515loPI   C6A 8236  15.623   8.808   7.763 -0.0065 -0.0262  0.1132
  515loPI   C1B 8237  16.031   9.224   9.510 -0.1394  0.2432 -0.1426
  515loPI   C2B 8238  16.049   9.158   9.132  0.0727 -0.1290  0.4144
  515loPI   C3B 8239  16.130   9.187   8.707  0.2429 -0.1007  0.0668
  515loPI   C4B 8240  16.166   9.349   8.306 -0.1744  0.0726 -0.1610
  516loPI    C1 8241  12.401   8.670  10.927 -0.2815 -0.0191 -0.2715
  516loPI    C2 8242  12.083   8.457  11.042 -0.1121 -0.0563  0.1453
  516loPI    C3 8243  12.183   8.790  11.241 -0.0267  0.0861 -0.1316
  516loPI   PO4 8244  12.439   8.659  10.663  0.3628  0.0199 -0.0530
  516loPI   GL1 8245  12.640   8.679  10.371  0.2627  0.2936  0.3657
  516loPI   GL2 8246  12.940   8.574  10.480 -0.1272  0.1651  0.3082
  516loPI   C1A 8247  12.666   8.523   9.961  0.2251  0.0379  0.0486
  516loPI   C2A 8248  12.565   8.649   9.574  0.0457 -0.1621  0.1172
  516loPI   C3A 8249  12.578   8.624   9.200 -0.2543  0.3105  0.0430
  516loPI   C4A 8250  12.724   8.573   8.737 -0.0932  0.1624  0.2295
  516loPI   C5A 8251  12.711   8.507   8.395 -0.1552 -0.3010  0.4279
  516loPI   C6A 8252  12.930   8.576   7.929 -0.1489 -0.0215  0.1637
  516loPI   C1B 8253  13.155   8.719  10.106  0.0017  0.0058 -0.0932
  516loPI   C2B 8254  13.112   8.712   9.659 -0.3168 -0.4528  0.3469
  516loPI   C3B 8255  13.063   8.817   9.205 -0.0205 -0.1048 -0.0777
  516loPI   C4B 8256  13.231   8.701   8.863  0.0339 -0.0167  0.1158
  517loPI    C1 8257  15.593  10.055  10.584  0.1171  0.0034  0.0553
  517loPI    C2 8258  15.516  10.369  10.819 -0.2985 -0.0871  0.0476
  517loPI    C3 8259  15.652  10.028  10.978 -0.0057  0.0407  0.0768
  517loPI   PO4 8260  15.409  10.179  10.359 -0.1372 -0.0944 -0.0959
  517loPI   GL1 8261  15.329  10.442  10.058  0.2920  0.1679  0.0342
  517loPI   GL2 8262  15.137  10.098   9.984 -0.1201  0.0259  0.0529
  517loPI   C1A 8263  15.208  10.567   9.709 -0.3841  0.0818 -0.0421
  517loPI   C2A 8264  15.305  10.476   9.262 -0.0176  0.1124  0.0622
  517loPI   C3A 8265  15.281  10.447   8.761 -0.0908 -0.1117 -0.0488
  517loPI   C4A 8266  15.136  10.407   8.295  0.0271 -0.1463 -0.1694
  517loPI   C5A 8267  14.770  10.262   8.183 -0.1723 -0.1372  0.2997
  517loPI   C6A 8268  14.359  10.083   8.366  0.0623 -0.2584 -0.1923
  517loPI   C1B 8269  15.192  10.033   9.537  0.1071 -0.0721  0.4736
  517loPI   C2B 8270  15.151  10.024   9.061  0.2682  0.3997  0.1564
  517loPI   C3B 8271  15.236   9.945   8.577 -0.2370  0.2928  0.1942
  517loPI   C4B 8272  15.141   9.888   8.119 -0.1079  0.1032  0.2926
  518loPI    C1 8273  10.892   8.086  11.428 -0.1205  0.2459  0.1075
  518loPI    C2 8274  10.689   8.097  11.772 -0.0630  0.1085  0.1465
  518loPI    C3 8275  10.727   8.428  11.552 -0.0989  0.1974  0.2731
  518loPI   PO4 8276  10.840   7.906  11.237  0.1278 -0.1965 -0.4854
  518loPI   GL1 8277  10.736   7.833  10.800  0.3799  0.0144 -0.1246
  518loPI   GL2 8278  10.786   8.161  10.644  0.1060 -0.0259 -0.5313
  518loPI   C1A 8279  10.855   7.712  10.338 -0.1340 -0.1165 -0.0321
  518loPI   C2A 8280  10.729   7.723   9.896 -0.2588 -0.1526  0.0535
  518loPI   C3A 8281  10.772   7.867   9.459  0.2204  0.1119  0.1065
  518loPI   C4A 8282  10.690   7.916   8.991 -0.2919 -0.0709  0.1425
  518loPI   C5A 8283  10.856   7.947   8.640  0.1144  0.1288  0.0326
  518loPI   C6A 8284  10.753   7.589   8.369 -0.0905  0.0000 -0.1587
  518loPI   C1B 8285  10.854   8.249  10.170 -0.1263  0.2797  0.0466
  518loPI   C2B 8286  10.862   8.316   9.795 -0.0539  0.1916  0.0337
  518loPI   C3B 8287  10.897   8.371   9.257  0.0771 -0.4469 -0.0324
  518loPI   C4B 8288  10.814   8.441   8.786  0.4657  0.0967 -0.1850
  519loPI    C1 8289   4.171   8.104  10.874  0.0077  0.0091 -0.0432
  519loPI    C2 8290   4.487   8.254  11.069  0.0834 -0.0589 -0.1124
  519loPI    C3 8291   4.144   8.185  11.265  0.1778 -0.1849  0.0106
  519loPI   PO4 8292   4.363   8.087  10.588 -0.2522  0.1753 -0.0054
  519loPI   GL1 8293   4.544   7.710  10.501  0.0865 -0.0402  0.0775
  519loPI   GL2 8294   4.254   7.739  10.272 -0.0754 -0.2481 -0.0436
  519loPI   C1A 8295   4.646   7.611   9.988 -0.1787 -0.1083  0.0264
  519loPI   C2A 8296   4.745   7.574   9.582  0.1176  0.1373 -0.1734
  519loPI   C3A 8297   4.585   7.604   9.130  0.1839  0.1149 -0.2123
  519loPI   C4A 8298   4.514   7.580   8.678  0.1549  0.0820  0.1116
  519loPI   C5A 8299   4.648   7.746   8.271  0.0949 -0.0671 -0.0784
  519loPI   C6A 8300   4.695   7.947   7.845 -0.2013  0.2123 -0.1142
  519loPI   C1B 8301   4.248   7.941   9.828 -0.1049 -0.5204  0.0682
  519loPI   C2B 8302   4.246   7.957   9.364  0.1717 -0.1865 -0.0650
  519loPI   C3B 8303   4.124   8.004   9.033  0.2708  0.0297  0.1312
  519loPI   C4B 8304   4.147   7.974   8.562 -0.2215 -0.0405  0.2720
  520loPI    C1 8305   0.557  13.919  11.234 -0.2687 -0.1405  0.3093
  520loPI    C2 8306   0.754  13.831  11.571 -0.0969 -0.1161  0.2167
  520loPI    C3 8307   0.363  13.913  11.583 -0.1400 -0.3355  0.3796
  520loPI   PO4 8308   0.607  13.724  11.031  0.1433 -0.0304 -0.0330
  520loPI   GL1 8309   0.944  13.662  10.823 -0.1682 -0.1113  0.0121
  520loPI   GL2 8310   1.051  13.331  10.668 -0.2892 -0.1727  0.0482
  520loPI   C1A 8311   0.780  13.913  10.459 -0.1347 -0.1957  0.1363
  520loPI   C2A 8312   0.819  13.882  10.021  0.1069  0.1188 -0.2015
  520loPI   C3A 8313   0.849  13.838   9.580  0.0208 -0.0066 -0.1864
  520loPI   C4A 8314   0.804  13.772   9.184 -0.0685 -0.1085 -0.0440
  520loPI   C5A 8315   0.773  13.654   8.790 -0.1631 -0.0359  0.2134
  520loPI   C6A 8316   1.049  13.454   8.465  0.0550  0.2244  0.0051
  520loPI   C1B 8317   0.759  13.368  10.327 -0.2769 -0.0111  0.4978
  520loPI   C2B 8318   0.791  13.333   9.933  0.1837 -0.4238 -0.0098
  520loPI   C3B 8319   0.710  13.257   9.471  0.1731 -0.1778  0.1076
  520loPI   C4B 8320   0.762  13.212   8.949  0.3091 -0.0044 -0.2498
  521loPI    C1 8321   0.523   0.769  11.422  0.0371  0.0244 -0.0617
  521loPI    C2 8322   0.510   1.158  11.512  0.0580  0.0219 -0.0479
  521loPI    C3 8323   0.835   1.004  11.336 -0.0017  0.0361 -0.1715
  521loPI   PO4 8324   0.342   0.671  11.312  0.0342  0.3365 -0.1317
  521loPI   GL1 8325   0.200   0.308  11.088  0.0979  0.2208 -0.0558
  521loPI   GL2 8326  -0.059   0.571  10.931 -0.3639  0.1427 -0.1944
  521loPI   C1A 8327  -0.021   0.208  10.607  0.0400  0.1587 -0.0959
  521loPI   C2A 8328  -0.012   0.291  10.283 -0.0223  0.0834  0.2912
  521loPI   C3A 8329  -0.027   0.285   9.804 -0.1566 -0.1589  0.1952
  521loPI   C4A 8330   0.017   0.236   9.541  0.2004 -0.3529  0.1832
  521loPI   C5A 8331   0.103   0.184   9.118 -0.0438  0.0404  0.1062
  521loPI   C6A 8332   0.170   0.349   8.835 -0.4782 -0.2409 -0.0337
  521loPI   C1B 8333   0.157   0.700  10.542  0.4222 -0.0736  0.0195
  521loPI   C2B 8334   0.057   0.733  10.040 -0.0466 -0.2493 -0.0176
  521loPI   C3B 8335   0.106   0.715   9.622 -0.1321  0.2819  0.1133
  521loPI   C4B 8336   0.042   0.724   9.164  0.1551  0.1621 -0.0626
  522loPI    C1 8337   7.910   5.938  11.195  0.0930 -0.1251  0.0926
  522loPI    C2 8338   7.622   5.903  11.470 -0.0937  0.1205 -0.0667
  522loPI    C3 8339   7.887   6.202  11.494  0.0016  0.0356 -0.0543
  522loPI   PO4 8340   7.822   5.806  10.924 -0.0598  0.0792  0.1629
  522loPI   GL1 8341   7.650   5.822  10.520  0.1627 -0.1228 -0.1786
  522loPI   GL2 8342   7.308   5.947  10.425 -0.0063  0.1106 -0.2471
  522loPI   C1A 8343   7.582   5.798  10.067  0.0853 -0.1545 -0.1675
  522loPI   C2A 8344   7.553   5.783   9.587 -0.0720  0.1123  0.0348
  522loPI   C3A 8345   7.573   5.893   9.105  0.0593  0.1729  0.0328
  522loPI   C4A 8346   7.476   5.783   8.630  0.0633  0.6096  0.1076
  522loPI   C5A 8347   7.018   5.657   8.485 -0.2267 -0.1503  0.1013
  522loPI   C6A 8348   6.747   5.497   8.122 -0.2902 -0.1724 -0.1045
  522loPI   C1B 8349   7.190   6.142  10.021 -0.1905  0.0471  0.2947
  522loPI   C2B 8350   7.178   6.099   9.627  0.1226 -0.2164 -0.1594
  522loPI   C3B 8351   7.083   6.248   9.212 -0.0266  0.1485 -0.0536
  522loPI   C4B 8352   7.149   6.122   8.772 -0.0961 -0.0217 -0.2953
  523loPI    C1 8353   3.413   7.638  10.744  0.1463  0.0286  0.0874
  523loPI    C2 8354   3.438   7.318  10.983 -0.0075 -0.1047 -0.0727
  523loPI    C3 8355   3.085   7.497  10.924  0.0742  0.0814 -0.0022
  523loPI   PO4 8356   3.440   7.581  10.554  0.2503 -0.0026  0.0632
  523loPI   GL1 8357   3.350   7.479  10.196  0.1568  0.0829 -0.0951
  523loPI   GL2 8358   3.188   7.596   9.947 -0.1993 -0.0198 -0.2577
  523loPI   C1A 8359   3.541   7.250   9.836 -0.1857 -0.0818  0.0881
  523loPI   C2A 8360   3.537   7.241   9.375 -0.1473 -0.0679  0.0259
  523loPI   C3A 8361   3.568   7.338   8.988  0.0882  0.0530 -0.1496
  523loPI   C4A 8362   3.632   7.393   8.592 -0.0151  0.0781 -0.1867
  523loPI   C5A 8363   3.976   7.507   8.315  0.0588 -0.1879 -0.0021
  523loPI   C6A 8364   4.171   7.858   8.053  0.1391 -0.0936  0.0107
  523loPI   C1B 8365   3.110   7.615   9.526 -0.0076  0.1539  0.1007
  523loPI   C2B 8366   3.118   7.711   9.029  0.2510  0.0434  0.0599
  523loPI   C3B 8367   3.204   7.641   8.676 -0.0739 -0.0395 -0.1345
  523loPI   C4B 8368   3.140   7.553   8.351 -0.2130  0.0667  0.1316
  524loPI    C1 8369   6.747  15.880  11.219  0.1397 -0.2632  0.1894
  524loPI    C2 8370   6.375  15.907  11.363 -0.0116  0.1480 -0.2521
  524loPI    C3 8371   6.688  15.940  11.610 -0.2624  0.0132  0.0921
  524loPI   PO4 8372   6.635  15.782  10.930 -0.0686 -0.0514 -0.1907
  524loPI   GL1 8373   6.416  15.635  10.548  0.0041 -0.0599 -0.1419
  524loPI   GL2 8374   6.543  15.370  10.475  0.0251 -0.0475  0.1532
  524loPI   C1A 8375   6.161  15.821  10.308 -0.0044 -0.2515  0.0145
  524loPI   C2A 8376   6.116  15.726   9.826 -0.0516  0.0915  0.0909
  524loPI   C3A 8377   6.211  15.908   9.535 -0.1803  0.0475 -0.1720
  524loPI   C4A 8378   6.235  15.998   9.123  0.1079  0.0065 -0.0137
  524loPI   C5A 8379   6.268  15.928   8.608  0.2615 -0.0336 -0.0812
  524loPI   C6A 8380   6.350  15.667   8.235  0.2364 -0.0599 -0.0377
  524loPI   C1B 8381   6.462  15.434   9.992 -0.0066 -0.0812 -0.0232
  524loPI   C2B 8382   6.632  15.431   9.559  0.0146  0.2627 -0.0317
  524loPI   C3B 8383   6.625  15.649   9.207 -0.3118 -0.0411 -0.0321
  524loPI   C4B 8384   6.685  15.664   8.772  0.1324 -0.2400  0.0211
  525loPI    C1 8385  10.678  11.352  10.992  0.3443 -0.1388 -0.2672
  525loPI    C2 8386  10.938  11.228  11.269  0.0920 -0.1240 -0.0193
  525loPI    C3 8387  10.747  11.576  11.316  0.1510 -0.0544 -0.2830
  525loPI   PO4 8388  10.775  11.281  10.764 -0.1555 -0.1643  0.2618
  525loPI   GL1 8389  10.960  11.453  10.444 -0.2793 -0.3534  0.2902
  525loPI   GL2 8390  10.692  11.363  10.224 -0.1103 -0.1566  0.1602
  525loPI   C1A 8391  10.848  11.823  10.256  0.2775 -0.0866 -0.0892
  525loPI   C2A 8392  10.846  11.817   9.871  0.0745  0.0230  0.1437
  525loPI   C3A 8393  10.980  11.899   9.494  0.1134  0.0746 -0.0851
  525loPI   C4A 8394  10.912  11.849   9.083  0.0787 -0.4164 -0.1642
  525loPI   C5A 8395  10.686  11.793   8.642  0.0842  0.0299  0.0513
  525loPI   C6A 8396  10.226  11.569   8.677 -0.1212  0.0984 -0.4210
  525loPI   C1B 8397  10.801  11.311   9.791  0.2301 -0.1017 -0.1132
  525loPI   C2B 8398  10.771  11.378   9.340  0.1848 -0.0227  0.1233
  525loPI   C3B 8399  10.693  11.331   8.912  0.0242  0.1287  0.0717
  525loPI   C4B 8400  10.577  11.169   8.502 -0.0973  0.0632 -0.1521
  526loPI    C1 8401   9.134  13.864  11.350 -0.0695 -0.1748 -0.1139
  526loPI    C2 8402   9.527  13.919  11.404 -0.1081 -0.0796  0.0818
  526loPI    C3 8403   9.267  14.189  11.543 -0.2358 -0.0521 -0.2040
  526loPI   PO4 8404   9.126  13.822  11.066 -0.1221 -0.1046 -0.0467
  526loPI   GL1 8405   9.118  13.933  10.725 -0.1026  0.1773  0.1728
  526loPI   GL2 8406   8.850  13.665  10.625 -0.1074  0.0775 -0.0730
  526loPI   C1A 8407   8.996  14.013  10.315  0.2731 -0.0440 -0.1973
  526loPI   C2A 8408   9.050  13.954   9.954  0.0062  0.1642  0.1809
  526loPI   C3A 8409   8.958  14.053   9.558 -0.0365  0.1537  0.0335
  526loPI   C4A 8410   8.921  14.039   9.094  0.0155 -0.1301 -0.2355
  526loPI   C5A 8411   9.015  14.072   8.627 -0.4591  0.0236 -0.0523
  526loPI   C6A 8412   8.955  13.989   8.174  0.3108  0.2231 -0.0527
  526loPI   C1B 8413   8.865  13.548  10.170  0.2559  0.0379  0.1756
  526loPI   C2B 8414   8.891  13.525   9.729 -0.1833  0.0907  0.2036
  526loPI   C3B 8415   8.799  13.367   9.413  0.1002  0.0490  0.3090
  526loPI   C4B 8416   8.835  13.504   9.062 -0.0270 -0.1333 -0.0064
  527loPI    C1 8417  17.518   7.533  10.635 -0.1162  0.1561  0.0248
  527loPI    C2 8418  17.874   7.423  10.489 -0.2092  0.0175 -0.1014
  527loPI    C3 8419  17.852   7.701  10.776 -0.0122  0.1675 -0.2289
  527loPI   PO4 8420  17.372   7.479  10.380  0.0600 -0.0231 -0.0031
  527loPI   GL1 8421  17.453   7.205  10.075  0.0253 -0.4151  0.3020
  527loPI   GL2 8422  17.195   7.272   9.988  0.2832  0.0357  0.2467
  527loPI   C1A 8423  17.433   6.811   9.821 -0.1814 -0.0475  0.0076
  527loPI   C2A 8424  17.527   6.883   9.377  0.0899  0.1313  0.0146
  527loPI   C3A 8425  17.528   6.963   8.847  0.0919 -0.1797  0.1088
  527loPI   C4A 8426  17.670   7.000   8.425 -0.0518 -0.1064 -0.4814
  527loPI   C5A 8427  17.791   6.782   8.004 -0.4920  0.2799 -0.3199
  527loPI   C6A 8428  17.697   6.735   7.543 -0.0140  0.1721  0.0159
  527loPI   C1B 8429  17.150   7.181   9.466  0.3858  0.2257  0.1004
  527loPI   C2B 8430  17.123   7.259   8.987 -0.0050  0.0936 -0.2213
  527loPI   C3B 8431  17.147   7.313   8.616 -0.0510  0.0710  0.0949
  527loPI   C4B 8432  17.191   7.307   8.134  0.1266  0.2786  0.3001
  528loPI    C1 8433  10.885   0.123  11.281  0.2541 -0.0290  0.1347
  528loPI    C2 8434  10.733   0.410  11.515 -0.0503 -0.1741  0.1197
  528loPI    C3 8435  10.881   0.076  11.678  0.1391 -0.0874  0.1273
  528loPI   PO4 8436  10.729   0.072  11.128 -0.0289 -0.0924 -0.0343
  528loPI   GL1 8437  10.596   0.050  10.748 -0.0594  0.0515 -0.1367
  528loPI   GL2 8438  10.658  -0.256  10.714 -0.4157  0.1349 -0.0570
  528loPI   C1A 8439  10.839   0.097  10.383  0.1819 -0.0765  0.2048
  528loPI   C2A 8440  10.878   0.063   9.992 -0.2573 -0.4587  0.0746
  528loPI   C3A 8441  10.991   0.011   9.594  0.2804 -0.4201 -0.1045
  528loPI   C4A 8442  11.096  -0.059   9.205 -0.1328 -0.0726 -0.1838
  528loPI   C5A 8443  11.259  -0.033   8.748 -0.1848 -0.3487  0.4247
  528loPI   C6A 8444  11.372  -0.276   8.424 -0.1217 -0.1073 -0.2420
  528loPI   C1B 8445  10.641  -0.343  10.310  0.2812 -0.0041  0.0021
  528loPI   C2B 8446  10.575  -0.321   9.866 -0.0396 -0.0517  0.1416
  528loPI   C3B 8447  10.544  -0.228   9.495  0.0703 -0.0915 -0.0098
  528loPI   C4B 8448  10.591  -0.249   9.051 -0.1856 -0.0741  0.0060
  529loPI    C1 8449  12.134  16.444  11.552  0.1215  0.2634 -0.1181
  529loPI    C2 8450  12.216  16.725  11.824  0.2503 -0.1205  0.2505
  529loPI    C3 8451  11.955  16.435  11.909 -0.0271 -0.0124 -0.1968
  529loPI   PO4 8452  12.082  16.603  11.288  0.1767  0.1708 -0.0063
  529loPI   GL1 8453  12.051  16.476  10.834 -0.3027 -0.0297  0.3101
  529loPI   GL2 8454  12.110  16.135  10.706 -0.3398  0.3327 -0.3468
  529loPI   C1A 8455  12.128  16.558  10.442 -0.3251 -0.0098 -0.1910
  529loPI   C2A 8456  12.196  16.514  10.030 -0.0940  0.0121  0.2093
  529loPI   C3A 8457  12.145  16.529   9.559 -0.0758 -0.0929 -0.0832
  529loPI   C4A 8458  12.136  16.567   9.163  0.0188 -0.1550 -0.2037
  529loPI   C5A 8459  12.108  16.633   8.729 -0.1780 -0.2719 -0.1018
  529loPI   C6A 8460  12.150  16.429   8.364  0.2612  0.2413  0.2391
  529loPI   C1B 8461  12.095  16.059  10.328  0.4854  0.0902 -0.1550
  529loPI   C2B 8462  12.078  16.067   9.849 -0.0216  0.1493  0.3137
  529loPI   C3B 8463  12.074  16.032   9.331 -0.3551  0.0714 -0.1017
  529loPI   C4B 8464  12.070  16.135   8.882 -0.2000  0.1921 -0.0673
  530loPI    C1 8465  10.545  10.291  11.169 -0.0614 -0.4170  0.0112
  530loPI    C2 8466  10.860  10.047  11.147  0.4281  0.2101 -0.2500
  530loPI    C3 8467  10.705  10.141  11.503  0.3573 -0.3100 -0.1356
  530loPI   PO4 8468  10.495  10.344  10.937 -0.3214 -0.0360  0.0035
  530loPI   GL1 8469  10.633  10.503  10.618  0.0133 -0.0348 -0.0028
  530loPI   GL2 8470  10.688  10.844  10.577  0.0408 -0.0538 -0.0833
  530loPI   C1A 8471  10.666  10.309  10.100  0.0500 -0.1802  0.1465
  530loPI   C2A 8472  10.611  10.292   9.612  0.0907  0.2342 -0.0586
  530loPI   C3A 8473  10.573  10.334   9.168 -0.2551  0.1052  0.1115
  530loPI   C4A 8474  10.495  10.265   8.725  0.3596 -0.1647 -0.0732
  530loPI   C5A 8475  10.654  10.480   8.393  0.0549  0.1265  0.0972
  530loPI   C6A 8476  10.810  10.833   8.152  0.0651 -0.0279 -0.0779
  530loPI   C1B 8477  10.717  10.866  10.053  0.0066 -0.1699 -0.2353
  530loPI   C2B 8478  10.649  10.799   9.606  0.0995  0.2032 -0.2016
  530loPI   C3B 8479  10.563  10.812   9.234 -0.1487 -0.2571  0.0341
  530loPI   C4B 8480  10.584  10.824   8.832  0.0883  0.1158  0.0799
  531loPI    C1 8481  14.789  10.841  11.025  0.1465  0.0579  0.0009
  531loPI    C2 8482  15.037  11.118  11.174 -0.0475  0.1466  0.1624
  531loPI    C3 8483  14.651  11.115  11.282 -0.0443 -0.1978  0.1760
  531loPI   PO4 8484  14.767  10.801  10.781  0.0495 -0.0370  0.0655
  531loPI   GL1 8485  14.727  10.971  10.454  0.1866  0.0241  0.2166
  531loPI   GL2 8486  14.603  10.666  10.351  0.2418 -0.0689 -0.0423
  531loPI   C1A 8487  14.869  10.906   9.938 -0.0291 -0.0536 -0.2247
  531loPI   C2A 8488  14.905  10.880   9.509 -0.0607  0.0173  0.3507
  531loPI   C3A 8489  14.694  10.878   9.136  0.3223 -0.0689 -0.5370
  531loPI   C4A 8490  14.844  10.858   8.767  0.2945 -0.0206 -0.0687
  531loPI   C5A 8491  14.833  10.806   8.398 -0.0929  0.1721 -0.0858
  531loPI   C6A 8492  15.147  10.836   8.007  0.0842 -0.2715  0.2501
  531loPI   C1B 8493  14.745  10.408  10.005 -0.0307 -0.0801  0.1709
  531loPI   C2B 8494  14.795  10.327   9.609  0.2481  0.0206 -0.1401
  531loPI   C3B 8495  14.835  10.372   9.127  0.0650  0.1126 -0.0649
  531loPI   C4B 8496  14.779  10.269   8.687 -0.0382 -0.3717 -0.3230
  532loPI    C1 8497   4.205   3.082  11.789 -0.1795  0.0905 -0.1710
  532loPI    C2 8498   4.473   2.819  11.927 -0.1952  0.1581 -0.0096
  532loPI    C3 8499   4.502   3.206  12.026 -0.4099  0.1496  0.0928
  532loPI   PO4 8500   4.169   2.920  11.505  0.2230  0.0698 -0.2305
  532loPI   GL1 8501   4.221   2.869  11.052  0.1943  0.1366  0.0854
  532loPI   GL2 8502   4.380   3.117  10.939  0.3522 -0.0782  0.1323
  532loPI   C1A 8503   4.377   2.710  10.615 -0.0213 -0.0004 -0.0742
  532loPI   C2A 8504   4.392   2.714  10.233 -0.1770 -0.1610 -0.2341
  532loPI   C3A 8505   4.316   2.742   9.730  0.1079  0.2827 -0.1836
  532loPI   C4A 8506   4.167   2.719   9.277  0.2509  0.1060 -0.1516
  532loPI   C5A 8507   4.208   2.875   8.885  0.0426  0.2156  0.1563
  532loPI   C6A 8508   4.592   3.089   8.668 -0.2260 -0.3576  0.0219
  532loPI   C1B 8509   4.274   3.190  10.456 -0.0455  0.3088  0.0979
  532loPI   C2B 8510   4.341   3.206   9.960  0.1136  0.2213  0.0359
  532loPI   C3B 8511   4.333   3.234   9.431 -0.0911  0.2785 -0.1189
  532loPI   C4B 8512   4.298   3.272   9.119  0.0186 -0.1803  0.0531
  533loPI    C1 8513   4.441   0.977  11.585  0.2204 -0.2125 -0.1323
  533loPI    C2 8514   4.399   0.586  11.653 -0.0488 -0.1416  0.1333
  533loPI    C3 8515   4.727   0.776  11.779 -0.0308 -0.2334  0.2270
  533loPI   PO4 8516   4.381   1.019  11.346  0.2588 -0.0428 -0.2046
  533loPI   GL1 8517   3.945   1.148  11.135  0.1513  0.3189  0.0241
  533loPI   GL2 8518   4.175   1.352  11.041  0.0906 -0.1837  0.0878
  533loPI   C1A 8519   3.887   1.110  10.711  0.0576  0.1872  0.2931
  533loPI   C2A 8520   3.815   1.134  10.193 -0.0297 -0.0586 -0.0923
  533loPI   C3A 8521   3.891   1.161   9.778 -0.2051  0.2592 -0.0422
  533loPI   C4A 8522   3.879   1.241   9.353  0.1054 -0.1075  0.2155
  533loPI   C5A 8523   4.133   1.217   9.027  0.0064 -0.1852  0.2176
  533loPI   C6A 8524   4.511   0.959   8.830  0.0641  0.0239 -0.0385
  533loPI   C1B 8525   4.377   1.394  10.627  0.0364  0.1483  0.1086
  533loPI   C2B 8526   4.307   1.257  10.193  0.0425  0.1359 -0.0830
  533loPI   C3B 8527   4.394   1.335   9.783 -0.1966 -0.0532  0.0591
  533loPI   C4B 8528   4.452   1.327   9.406  0.1055  0.0047  0.2771
  534loPI    C1 8529  12.155   9.848  11.029 -0.0461  0.0282  0.0353
  534loPI    C2 8530  12.331   9.827  11.387  0.1637  0.0859 -0.0624
  534loPI    C3 8531  12.152  10.166  11.272  0.0128  0.0368  0.0250
  534loPI   PO4 8532  12.306   9.807  10.908  0.2088  0.0515 -0.0983
  534loPI   GL1 8533  12.149   9.862  10.541 -0.0243  0.4437  0.1479
  534loPI   GL2 8534  12.467   9.575  10.470  0.1155 -0.0911  0.0151
  534loPI   C1A 8535  12.297   9.939  10.130  0.0044  0.2844 -0.1101
  534loPI   C2A 8536  12.539   9.993   9.807 -0.1462  0.0482  0.2653
  534loPI   C3A 8537  12.503   9.993   9.404  0.1534 -0.1302 -0.2964
  534loPI   C4A 8538  12.409  10.022   9.030 -0.3135  0.2324  0.0333
  534loPI   C5A 8539  12.524   9.895   8.708 -0.1070 -0.0231  0.0694
  534loPI   C6A 8540  12.341   9.669   8.346 -0.0285 -0.1054  0.0218
  534loPI   C1B 8541  12.380   9.456   9.986 -0.1567 -0.2470  0.1241
  534loPI   C2B 8542  12.381   9.478   9.560  0.0371  0.1937 -0.0072
  534loPI   C3B 8543  12.310   9.540   9.146 -0.2360 -0.1300  0.1123
  534loPI   C4B 8544  12.410   9.365   8.716 -0.0261  0.2536 -0.0998
  535loPI    C1 8545   4.729  17.140  11.331  0.1321 -0.0615 -0.2333
  535loPI    C2 8546   4.935  17.458  11.201  0.0851  0.0291 -0.0889
  535loPI    C3 8547   4.934  17.365  11.590  0.2224 -0.2381 -0.1503
  535loPI   PO4 8548   4.645  17.070  11.155  0.0622  0.3304 -0.0795
  535loPI   GL1 8549   4.320  16.845  10.865 -0.2461 -0.2553  0.0617
  535loPI   GL2 8550   4.239  16.564  10.873 -0.2344 -0.0537  0.0789
  535loPI   C1A 8551   4.434  17.075  10.454  0.2435 -0.0282  0.0050
  535loPI   C2A 8552   4.587  17.112  10.040 -0.0734 -0.1971 -0.1225
  535loPI   C3A 8553   4.635  17.114   9.647 -0.3588 -0.0190  0.0063
  535loPI   C4A 8554   4.560  17.275   9.245 -0.2359 -0.0999 -0.2948
  535loPI   C5A 8555   4.505  17.122   8.893 -0.2656 -0.1015  0.0742
  535loPI   C6A 8556   4.221  17.136   8.611 -0.2044 -0.1257  0.0532
  535loPI   C1B 8557   4.065  16.479  10.471  0.1491 -0.2965 -0.1460
  535loPI   C2B 8558   3.960  16.445   9.990 -0.0539  0.0157  0.0355
  535loPI   C3B 8559   4.002  16.460   9.537 -0.2631 -0.0152 -0.3851
  535loPI   C4B 8560   4.088  16.474   9.176  0.1422 -0.0225 -0.1027
  536loPI    C1 8561  16.676   1.694  11.553  0.1132  0.1644  0.2466
  536loPI    C2 8562  16.955   1.482  11.746  0.0498  0.0167  0.1785
  536loPI    C3 8563  16.567   1.415  11.818  0.0292  0.1274  0.1740
  536loPI   PO4 8564  16.693   1.652  11.312  0.1658 -0.1577  0.0922
  536loPI   GL1 8565  16.655   1.470  10.894 -0.2710  0.0656  0.0507
  536loPI   GL2 8566  16.774   1.225  10.889 -0.2501 -0.4364 -0.0639
  536loPI   C1A 8567  16.470   1.676  10.584  0.0654 -0.0743 -0.3548
  536loPI   C2A 8568  16.478   1.682  10.158 -0.2254  0.1559  0.0406
  536loPI   C3A 8569  16.567   1.702   9.681 -0.0841  0.0903 -0.0363
  536loPI   C4A 8570  16.624   1.645   9.272  0.1389 -0.0106 -0.2660
  536loPI   C5A 8571  16.710   2.003   8.938  0.2359  0.1318 -0.2457
  536loPI   C6A 8572  16.419   2.298   8.653  0.1050 -0.5458  0.0664
  536loPI   C1B 8573  16.945   1.349  10.372 -0.0021  0.0477  0.1945
  536loPI   C2B 8574  16.919   1.387   9.911 -0.1873  0.0485 -0.3967
  536loPI   C3B 8575  17.012   1.351   9.411 -0.1297  0.2301 -0.0957
  536loPI   C4B 8576  17.106   1.319   9.040  0.2003 -0.0346  0.4356
  537loPI    C1 8577   4.232   5.745  10.852  0.1247 -0.0535  0.2259
  537loPI    C2 8578   4.241   5.866  11.234 -0.2038  0.2517  0.1425
  537loPI    C3 8579   3.906   5.907  11.019 -0.1517 -0.3012 -0.0611
  537loPI   PO4 8580   4.311   5.430  10.881 -0.0026 -0.0693  0.2530
  537loPI   GL1 8581   4.442   5.186  10.528  0.0091  0.0817  0.2327
  537loPI   GL2 8582   4.228   5.066  10.434  0.2319 -0.4110 -0.0803
  537loPI   C1A 8583   4.675   5.362  10.237  0.1867  0.0639  0.2212
  537loPI   C2A 8584   4.671   5.247   9.867 -0.0702 -0.0074  0.0440
  537loPI   C3A 8585   4.674   5.250   9.377 -0.2392  0.1068 -0.4460
  537loPI   C4A 8586   4.624   5.132   8.962 -0.0341  0.1162  0.0466
  537loPI   C5A 8587   4.647   5.301   8.517 -0.1707 -0.0702  0.0582
  537loPI   C6A 8588   5.038   5.386   8.416  0.1112  0.1879  0.3356
  537loPI   C1B 8589   4.171   5.098  10.003 -0.3257 -0.3156 -0.0880
  537loPI   C2B 8590   4.221   5.116   9.566 -0.0217  0.0739  0.0460
  537loPI   C3B 8591   4.158   5.058   9.155 -0.0443 -0.3153 -0.1105
  537loPI   C4B 8592   4.161   5.102   8.690 -0.1222 -0.0180 -0.0520
  538loPI    C1 8593  14.531   4.817  10.679 -0.0837 -0.1379  0.0242
  538loPI    C2 8594  14.291   4.717  10.983  0.1124 -0.1699  0.1705
  538loPI    C3 8595  14.476   4.432  10.772  0.0643 -0.1431  0.0911
  538loPI   PO4 8596  14.392   5.013  10.440  0.4677 -0.3034 -0.0360
  538loPI   GL1 8597  14.353   5.332  10.105 -0.0347 -0.3851 -0.1080
  538loPI   GL2 8598  14.705   5.427  10.197  0.0703 -0.1790  0.1216
  538loPI   C1A 8599  14.487   5.422   9.695  0.0726  0.3367  0.1719
  538loPI   C2A 8600  14.497   5.387   9.335 -0.1986 -0.2089 -0.0025
  538loPI   C3A 8601  14.421   5.275   8.902  0.4413  0.1395  0.1239
  538loPI   C4A 8602  14.351   5.326   8.548 -0.0924 -0.2994 -0.1015
  538loPI   C5A 8603  14.243   5.190   8.211  0.0873 -0.1193 -0.0603
  538loPI   C6A 8604  14.103   5.232   7.815 -0.1263  0.0757  0.1409
  538loPI   C1B 8605  14.975   5.482   9.915 -0.0198 -0.1089 -0.0251
  538loPI   C2B 8606  14.940   5.487   9.498 -0.0075 -0.0268 -0.1424
  538loPI   C3B 8607  14.933   5.388   9.150 -0.2351 -0.1879 -0.0661
  538loPI   C4B 8608  14.962   5.463   8.778  0.1550  0.1853  0.2392
  539loPI    C1 8609  17.227  16.457  11.891  0.1108 -0.1299  0.2694
  539loPI    C2 8610  17.324  16.840  11.824 -0.0707 -0.1388 -0.0678
  539loPI    C3 8611  16.963  16.747  11.970 -0.0904 -0.1913 -0.1494
  539loPI   PO4 8612  17.295  16.324  11.699  0.1261  0.0716  0.1528
  539loPI   GL1 8613  17.098  16.384  11.258  0.1102 -0.2102 -0.3386
  539loPI   GL2 8614  16.874  16.237  11.225 -0.2929 -0.1807 -0.1305
  539loPI   C1A 8615  17.423  16.453  11.005  0.1812 -0.0995  0.1807
  539loPI   C2A 8616  17.459  16.433  10.621 -0.0410  0.2862 -0.2671
  539loPI   C3A 8617  17.539  16.350  10.209  0.4135  0.1163 -0.0995
  539loPI   C4A 8618  17.551  16.356   9.754  0.0342  0.0347 -0.0860
  539loPI   C5A 8619  17.554  16.324   9.341 -0.1773  0.0477  0.2372
  539loPI   C6A 8620  17.457  16.295   8.841 -0.0935  0.0491 -0.1584
  539loPI   C1B 8621  16.945  16.212  10.859  0.2788 -0.0222 -0.0534
  539loPI   C2B 8622  17.025  16.237  10.381  0.1574 -0.2799  0.0260
  539loPI   C3B 8623  17.012  16.173   9.960  0.0718 -0.0821 -0.0730
  539loPI   C4B 8624  17.102  16.231   9.516 -0.2406 -0.3901  0.0285
  540loPI    C1 8625   0.909   3.866  10.809  0.0444 -0.0894 -0.0486
  540loPI    C2 8626   0.581   3.671  10.927 -0.0049 -0.0856 -0.1790
  540loPI    C3 8627   0.897   3.694  11.170 -0.1160 -0.0538 -0.0364
  540loPI   PO4 8628   0.817   4.029  10.715 -0.2593 -0.1616  0.0173
  540loPI   GL1 8629   0.606   4.123  10.388  0.0727 -0.2766  0.3117
  540loPI   GL2 8630   0.683   4.369  10.309 -0.0341 -0.1361  0.3769
  540loPI   C1A 8631   0.550   3.878  10.081 -0.0024  0.0311 -0.2880
  540loPI   C2A 8632   0.627   3.818   9.648 -0.0859  0.3628  0.0197
  540loPI   C3A 8633   0.675   3.838   9.263  0.0058 -0.0356  0.0589
  540loPI   C4A 8634   0.786   3.836   8.854 -0.0028 -0.0050  0.0138
  540loPI   C5A 8635   0.908   3.668   8.430 -0.1849 -0.1762  0.1535
  540loPI   C6A 8636   0.768   3.644   7.928  0.1017 -0.3903 -0.0953
  540loPI   C1B 8637   0.669   4.342   9.900 -0.0369 -0.5094 -0.0471
  540loPI   C2B 8638   0.746   4.324   9.491  0.0926  0.1974  0.0596
  540loPI   C3B 8639   0.838   4.343   9.081  0.1140 -0.3201 -0.1284
  540loPI   C4B 8640   0.902   4.352   8.720 -0.3069 -0.0488  0.3224
  541POPI    C1 8641   0.293  14.520  11.354  0.0294  0.4681 -0.3080
  541POPI    C2 8642   0.366  14.779  11.650  0.0500 -0.0365  0.1429
  541POPI    C3 8643  -0.009  14.664  11.573  0.0632 -0.0489  0.0982
  541POPI   PO4 8644   0.362  14.671  11.118 -0.0702 -0.1358 -0.0956
  541POPI   GL1 8645   0.185  14.750  10.723 -0.0951  0.2814  0.3098
  541POPI   GL2 8646   0.101  15.068  10.605 -0.1502 -0.2011 -0.0411
  541POPI   C1A 8647   0.415  14.687  10.383  0.1030  0.0219  0.0925
  541POPI   D2A 8648   0.504  14.653   9.973  0.1458  0.2019  0.1628
  541POPI   C3A 8649   0.499  14.599   9.519 -0.0090 -0.3884  0.1599
  541POPI   C4A 8650   0.554  14.609   9.164  0.1065  0.1267  0.1076
  541POPI   C1B 8651   0.107  15.025  10.150  0.0775 -0.2128  0.0217
  541POPI   C2B 8652   0.079  15.087   9.753 -0.2609 -0.1474  0.1610
  541POPI   C3B 8653   0.065  14.936   9.382  0.1483  0.4914  0.0462
  541POPI   C4B 8654   0.190  14.922   8.968 -0.0010  0.3270  0.2432
  542POPI    C1 8655  14.729   8.323  10.773 -0.2663  0.0924  0.0699
  542POPI    C2 8656  14.958   8.153  11.055 -0.2444  0.0267  0.0126
  542POPI    C3 8657  14.870   8.543  11.077 -0.0920  0.0616  0.0125
  542POPI   PO4 8658  14.861   8.292  10.533 -0.0655 -0.1227 -0.1167
  542POPI   GL1 8659  14.838   8.032  10.171  0.1108  0.0502  0.2127
  542POPI   GL2 8660  15.218   8.158  10.137 -0.1133 -0.1671  0.1432
  542POPI   C1A 8661  14.836   7.892   9.714  0.2483  0.3217  0.4339
  542POPI   D2A 8662  14.806   7.785   9.325  0.1116 -0.1437  0.2166
  542POPI   C3A 8663  14.795   7.918   8.986 -0.0547 -0.1472 -0.0806
  542POPI   C4A 8664  14.765   8.020   8.561 -0.0596  0.0499 -0.3618
  542POPI   C1B 8665  15.275   8.078   9.675  0.0088 -0.0907 -0.2156
  542POPI   C2B 8666  15.318   7.969   9.202 -0.1255 -0.0421 -0.1243
  542POPI   C3B 8667  15.418   8.032   8.770  0.1192  0.2422  0.0214
  542POPI   C4B 8668  15.349   8.123   8.344 -0.1673 -0.1319 -0.0852
  543POPI    C1 8669  10.428  15.692  11.119  0.0495  0.0360  0.0123
  543POPI    C2 8670  10.740  15.730  11.367  0.1238 -0.1563 -0.0499
  543POPI    C3 8671  10.368  15.775  11.506  0.1772  0.0651  0.0266
  543POPI   PO4 8672  10.478  15.505  10.910 -0.0197 -0.1520 -0.0972
  543POPI   GL1 8673  10.580  15.460  10.552 -0.3955  0.1055  0.0135
  543POPI   GL2 8674  10.452  15.167  10.464  0.1409  0.0598 -0.1911
  543POPI   C1A 8675  10.704  15.497  10.144  0.1176  0.1574  0.2693
  543POPI   D2A 8676  10.668  15.502   9.677  0.1864 -0.1767 -0.0742
  543POPI   C3A 8677  10.647  15.568   9.246  0.0477  0.1546 -0.0059
  543POPI   C4A 8678  10.673  15.562   8.809  0.1393 -0.0839 -0.0624
  543POPI   C1B 8679  10.646  15.027  10.062  0.0686  0.2903 -0.1424
  543POPI   C2B 8680  10.603  14.958   9.667  0.1614  0.1360 -0.0259
  543POPI   C3B 8681  10.565  15.061   9.264 -0.2262  0.3287 -0.1874
  543POPI   C4B 8682  10.621  15.089   8.764  0.2035  0.0395 -0.1402
  544POPI    C1 8683  13.002  16.408  11.657 -0.1608  0.0401 -0.0504
  544POPI    C2 8684  13.295  16.638  11.800 -0.1891 -0.0899  0.2231
  544POPI    C3 8685  13.096  16.392  12.045 -0.4088 -0.1325  0.0058
  544POPI   PO4 8686  12.988  16.576  11.358  0.2968  0.0409  0.1709
  544POPI   GL1 8687  13.252  16.699  10.987 -0.1888 -0.3426 -0.1653
  544POPI   GL2 8688  13.176  16.399  10.891 -0.1041 -0.2933  0.0788
  544POPI   C1A 8689  13.121  16.921  10.688 -0.2464 -0.0181  0.0756
  544POPI   D2A 8690  13.047  16.830  10.199  0.1250  0.0862 -0.2720
  544POPI   C3A 8691  13.018  16.975   9.773  0.1532  0.1063 -0.0789
  544POPI   C4A 8692  13.142  16.996   9.311 -0.0547  0.0996  0.0516
  544POPI   C1B 8693  13.078  16.441  10.523  0.1401 -0.1383  0.4704
  544POPI   C2B 8694  13.034  16.282  10.066  0.1083 -0.0724 -0.0410
  544POPI   C3B 8695  13.057  16.385   9.647 -0.2404  0.2829  0.1181
  544POPI   C4B 8696  13.045  16.457   9.218  0.1918  0.1869  0.0428
  545POPI    C1 8697  14.579   7.689  10.977 -0.1373 -0.0308  0.0047
  545POPI    C2 8698  14.958   7.658  11.102 -0.1209  0.1629  0.0062
  545POPI    C3 8699  14.663   7.706  11.368 -0.1454  0.0267  0.0041
  545POPI   PO4 8700  14.588   7.858  10.792  0.1204  0.0551 -0.1803
  545POPI   GL1 8701  14.471   7.932  10.478 -0.0603 -0.0137  0.0457
  545POPI   GL2 8702  14.610   7.609  10.403  0.1133  0.2277  0.0719
  545POPI   C1A 8703  14.290   7.760  10.087 -0.0088  0.2241  0.2239
  545POPI   D2A 8704  14.384   7.687   9.645  0.2423  0.1477  0.1734
  545POPI   C3A 8705  14.312   7.654   9.266 -0.1924  0.1747  0.0225
  545POPI   C4A 8706  14.330   7.745   8.836  0.0609  0.0115  0.0388
  545POPI   C1B 8707  14.694   7.431   9.929  0.1627 -0.0225  0.0820
  545POPI   C2B 8708  14.745   7.328   9.490 -0.0708 -0.3091 -0.0723
  545POPI   C3B 8709  14.705   7.357   9.000 -0.3058 -0.1816  0.2110
  545POPI   C4B 8710  14.731   7.473   8.643 -0.1007  0.0970 -0.0738
  546POPI    C1 8711  11.597   2.497  10.808 -0.1594  0.0071 -0.0594
  546POPI    C2 8712  11.684   2.860  10.952  0.1720 -0.1894  0.2510
  546POPI    C3 8713  11.464   2.605  11.169 -0.1037 -0.1606  0.0122
  546POPI   PO4 8714  11.621   2.506  10.507 -0.0075 -0.2372  0.1552
  546POPI   GL1 8715  11.626   2.373  10.122 -0.4934  0.0147 -0.0210
  546POPI   GL2 8716  11.775   2.135   9.960  0.0305  0.0984  0.1618
  546POPI   C1A 8717  11.605   2.553   9.709  0.3554  0.3296 -0.0074
  546POPI   D2A 8718  11.777   2.821   9.340 -0.1363 -0.1229  0.0945
  546POPI   C3A 8719  11.604   2.977   8.935 -0.2119 -0.4882 -0.0362
  546POPI   C4A 8720  11.531   2.970   8.525  0.2089 -0.3064 -0.3201
  546POPI   C1B 8721  11.749   2.167   9.486 -0.1830  0.0176  0.2737
  546POPI   C2B 8722  11.509   2.388   9.186 -0.2374  0.0484 -0.1124
  546POPI   C3B 8723  11.498   2.526   8.768 -0.1477  0.1799 -0.3047
  546POPI   C4B 8724  11.382   2.461   8.406  0.0101  0.2231  0.0313
  547POPI    C1 8725  13.894   6.588  11.003  0.0094  0.2604 -0.0028
  547POPI    C2 8726  13.555   6.383  11.057  0.1753  0.0540  0.2778
  547POPI    C3 8727  13.561   6.778  11.116 -0.0989  0.1157 -0.0754
  547POPI   PO4 8728  13.945   6.501  10.805 -0.3297 -0.0847 -0.0749
  547POPI   GL1 8729  13.947   6.486  10.439 -0.1148 -0.0963  0.1867
  547POPI   GL2 8730  14.148   6.295  10.251  0.1238 -0.1901 -0.3100
  547POPI   C1A 8731  13.660   6.516  10.000  0.0860 -0.3894 -0.0669
  547POPI   D2A 8732  13.718   6.478   9.547  0.0543 -0.1020  0.1494
  547POPI   C3A 8733  13.767   6.498   9.188  0.1654  0.1458  0.0736
  547POPI   C4A 8734  13.684   6.461   8.679  0.2893  0.0100  0.0122
  547POPI   C1B 8735  14.119   6.191   9.880 -0.1163 -0.2984  0.1050
  547POPI   C2B 8736  14.051   6.114   9.379  0.0090  0.1290  0.0048
  547POPI   C3B 8737  14.006   6.147   8.948 -0.2553  0.2103 -0.1078
  547POPI   C4B 8738  14.023   6.054   8.473  0.3393  0.3738  0.0809
  548POPI    C1 8739  10.274  14.630  11.368  0.1687  0.1038  0.0912
  548POPI    C2 8740  10.468  14.281  11.369  0.0926  0.0595 -0.1277
  548POPI    C3 8741  10.400  14.472  11.713 -0.0264 -0.2312  0.0139
  548POPI   PO4 8742  10.155  14.609  11.109  0.1696 -0.1029 -0.0836
  548POPI   GL1 8743  10.110  14.643  10.647 -0.2902  0.1390  0.2731
  548POPI   GL2 8744  10.309  14.648  10.554 -0.0955  0.0768  0.1208
  548POPI   C1A 8745   9.994  14.881  10.280 -0.2580  0.3063  0.0580
  548POPI   D2A 8746  10.119  14.806   9.917  0.1004  0.1439 -0.1049
  548POPI   C3A 8747  10.090  14.816   9.488 -0.1620 -0.0178  0.1663
  548POPI   C4A 8748  10.160  14.861   9.062  0.0869  0.1487  0.0216
  548POPI   C1B 8749  10.516  14.509  10.143 -0.1146  0.0982 -0.0747
  548POPI   C2B 8750  10.420  14.457   9.681 -0.1051  0.1769 -0.0344
  548POPI   C3B 8751  10.484  14.485   9.254 -0.1566 -0.2048  0.1872
  548POPI   C4B 8752  10.530  14.484   8.823  0.1329  0.1847 -0.0372
  549POPI    C1 8753   0.092  11.540  11.115 -0.1407 -0.1153  0.3399
  549POPI    C2 8754   0.105  11.937  11.164  0.1590 -0.1039  0.1878
  549POPI    C3 8755  -0.215  11.731  11.288 -0.0343  0.1938  0.1947
  549POPI   PO4 8756   0.193  11.517  10.818 -0.0795  0.0708 -0.3171
  549POPI   GL1 8757   0.165  11.842  10.495 -0.0751 -0.0897 -0.0807
  549POPI   GL2 8758   0.362  11.588  10.366 -0.2126  0.0785 -0.0170
  549POPI   C1A 8759   0.089  12.021  10.128 -0.0796 -0.1270  0.1026
  549POPI   D2A 8760   0.154  12.095   9.773 -0.0621  0.2369  0.1472
  549POPI   C3A 8761   0.108  12.076   9.329  0.0602 -0.0580  0.0489
  549POPI   C4A 8762   0.086  12.008   8.925  0.2698  0.2937  0.1862
  549POPI   C1B 8763   0.498  11.756   9.911  0.4349 -0.1757  0.0369
  549POPI   C2B 8764   0.562  11.844   9.488  0.3152  0.0875 -0.1083
  549POPI   C3B 8765   0.508  11.806   9.113 -0.3777 -0.0892  0.0472
  549POPI   C4B 8766   0.464  11.724   8.665  0.4214  0.0805 -0.0536
  550POPI    C1 8767  13.947  14.416  11.482  0.0230  0.0152 -0.0740
  550POPI    C2 8768  14.070  14.342  11.855 -0.0014 -0.1815 -0.1038
  550POPI    C3 8769  14.244  14.632  11.642 -0.0090 -0.0466  0.0706
  550POPI   PO4 8770  13.943  14.304  11.310 -0.2057 -0.0511 -0.0334
  550POPI   GL1 8771  13.955  14.146  10.837  0.0212 -0.1175 -0.1378
  550POPI   GL2 8772  14.225  14.163  10.718  0.1475 -0.0267 -0.0635
  550POPI   C1A 8773  13.625  14.103  10.533 -0.0398 -0.0407 -0.1122
  550POPI   D2A 8774  13.609  14.175  10.071  0.1710  0.0616 -0.1248
  550POPI   C3A 8775  13.641  14.289   9.604 -0.0617 -0.0946 -0.1211
  550POPI   C4A 8776  13.544  14.227   9.186  0.0289 -0.0897  0.0140
  550POPI   C1B 8777  14.074  14.331  10.306 -0.0612 -0.1800 -0.0646
  550POPI   C2B 8778  14.060  14.350   9.910  0.0522 -0.1603 -0.3374
  550POPI   C3B 8779  14.123  14.507   9.523  0.0040  0.0785 -0.0692
  550POPI   C4B 8780  14.086  14.401   9.170 -0.1774 -0.0791 -0.3549
  551POPI    C1 8781  13.139   3.838  10.585 -0.2178  0.3024 -0.1043
  551POPI    C2 8782  12.884   3.624  10.806  0.2977  0.0576  0.2744
  551POPI    C3 8783  13.022   3.974  10.943  0.0416  0.2738 -0.0065
  551POPI   PO4 8784  13.252   3.686  10.399  0.2131 -0.1640  0.2185
  551POPI   GL1 8785  13.322   3.882  10.022  0.3968  0.1609  0.0187
  551POPI   GL2 8786  13.622   4.013  10.048  0.1839  0.1695 -0.0593
  551POPI   C1A 8787  13.321   3.933   9.627 -0.0101  0.2918  0.1717
  551POPI   D2A 8788  13.382   3.917   9.234 -0.1951 -0.1972  0.0795
  551POPI   C3A 8789  13.204   3.877   8.837 -0.1497 -0.0588  0.0658
  551POPI   C4A 8790  13.169   3.756   8.384  0.0024 -0.0281 -0.1445
  551POPI   C1B 8791  13.828   4.040   9.594  0.0507 -0.1010 -0.0950
  551POPI   C2B 8792  13.851   4.140   9.136 -0.0767  0.0089 -0.1679
  551POPI   C3B 8793  13.670   4.063   8.756  0.0418  0.0094  0.1202
  551POPI   C4B 8794  13.578   3.990   8.315  0.0210 -0.0137 -0.3017
  552POPI    C1 8795  15.518   5.325  10.954  0.1023 -0.1369 -0.0069
  552POPI    C2 8796  15.145   5.197  11.025  0.1416 -0.2433  0.0108
  552POPI    C3 8797  15.352   5.380  11.314 -0.0235  0.1350 -0.1040
  552POPI   PO4 8798  15.399   5.474  10.752 -0.1653 -0.1620 -0.0956
  552POPI   GL1 8799  15.420   5.353  10.319 -0.1813  0.3435 -0.1144
  552POPI   GL2 8800  15.442   5.663  10.242  0.1050 -0.2968 -0.1275
  552POPI   C1A 8801  15.302   5.117   9.997 -0.2264  0.2523 -0.2168
  552POPI   D2A 8802  15.301   5.031   9.689  0.0163 -0.1143 -0.0846
  552POPI   C3A 8803  15.358   5.060   9.236  0.1175 -0.1843 -0.0734
  552POPI   C4A 8804  15.334   5.110   8.775 -0.0662 -0.0107 -0.1537
  552POPI   C1B 8805  15.415   5.551   9.711  0.0547  0.3448 -0.1420
  552POPI   C2B 8806  15.347   5.568   9.307 -0.0186 -0.3288  0.0286
  552POPI   C3B 8807  15.472   5.670   8.982  0.0402 -0.1364  0.0737
  552POPI   C4B 8808  15.353   5.851   8.524 -0.2128  0.0298 -0.1034
  553POPI    C1 8809   3.862  16.367  11.365 -0.1128 -0.1583 -0.0934
  553POPI    C2 8810   3.857  16.756  11.269 -0.3346 -0.1627 -0.1045
  553POPI    C3 8811   3.613  16.617  11.554 -0.1147 -0.2594  0.0388
  553POPI   PO4 8812   4.017  16.235  11.209 -0.2770  0.1285  0.0276
  553POPI   GL1 8813   3.903  16.216  10.833  0.1943 -0.2533  0.0453
  553POPI   GL2 8814   3.905  15.884  10.619  0.2952 -0.0029 -0.1989
  553POPI   C1A 8815   3.579  16.274  10.546 -0.1104  0.2431 -0.0287
  553POPI   D2A 8816   3.446  16.308   9.993 -0.0836  0.0796 -0.0123
  553POPI   C3A 8817   3.496  16.356   9.501 -0.0050 -0.0968  0.0670
  553POPI   C4A 8818   3.551  16.334   9.098  0.0612  0.2748  0.1650
  553POPI   C1B 8819   3.791  15.933  10.168 -0.1921  0.2628 -0.2477
  553POPI   C2B 8820   3.808  16.038   9.692  0.2876  0.1289  0.1623
  553POPI   C3B 8821   3.974  15.988   9.256  0.1796  0.0865  0.3920
  553POPI   C4B 8822   4.016  16.096   8.874  0.0181 -0.2285  0.1794
  554POPI    C1 8823  16.259   2.327  11.440  0.2045  0.0887  0.1111
  554POPI    C2 8824  16.596   2.450  11.263  0.1572  0.0061 -0.0386
  554POPI    C3 8825  16.606   2.142  11.518  0.1929 -0.0040 -0.0521
  554POPI   PO4 8826  16.033   2.476  11.243 -0.2627  0.2300 -0.1031
  554POPI   GL1 8827  16.186   2.523  10.960  0.0821  0.1087 -0.2103
  554POPI   GL2 8828  15.828   2.534  10.775  0.0218 -0.0152 -0.0830
  554POPI   C1A 8829  16.472   2.373  10.772 -0.1316  0.0147  0.0175
  554POPI   D2A 8830  16.559   2.186  10.268 -0.0482  0.3353  0.2029
  554POPI   C3A 8831  16.577   2.195   9.808  0.0620  0.3254 -0.0830
  554POPI   C4A 8832  16.716   2.199   9.527  0.0540 -0.1505 -0.1753
  554POPI   C1B 8833  16.119   2.539  10.414  0.0477 -0.0022  0.0387
  554POPI   C2B 8834  16.229   2.507  10.006 -0.1313  0.3670 -0.0989
  554POPI   C3B 8835  16.291   2.550   9.541 -0.0743 -0.0929 -0.2652
  554POPI   C4B 8836  16.373   2.512   9.141  0.2536 -0.0301  0.1994
  555POPI    C1 8837   6.415   6.728  11.058 -0.2090 -0.1424  0.1004
  555POPI    C2 8838   6.448   7.063  11.274 -0.0924 -0.1638  0.1164
  555POPI    C3 8839   6.764   6.821  11.230 -0.0353 -0.0200 -0.3064
  555POPI   PO4 8840   6.301   6.721  10.822 -0.0203 -0.1866  0.0446
  555POPI   GL1 8841   6.348   6.756  10.440  0.0665  0.1196 -0.1504
  555POPI   GL2 8842   6.513   6.460  10.425  0.0979 -0.1046 -0.0095
  555POPI   C1A 8843   6.389   6.891   9.976 -0.2719  0.0190  0.1071
  555POPI   D2A 8844   6.344   6.994   9.626 -0.0675  0.2130  0.2329
  555POPI   C3A 8845   6.360   6.790   9.207  0.2433 -0.0325 -0.0077
  555POPI   C4A 8846   6.230   6.856   8.823  0.2809  0.1957 -0.4500
  555POPI   C1B 8847   6.322   6.371  10.107  0.2038  0.2707  0.0026
  555POPI   C2B 8848   6.326   6.386   9.655  0.3958  0.1840  0.1562
  555POPI   C3B 8849   6.236   6.289   9.138 -0.1538  0.1710 -0.0137
  555POPI   C4B 8850   6.222   6.172   8.710 -0.1649 -0.1805  0.2049
  556POPI    C1 8851   2.637   5.099  10.950 -0.2125  0.0123  0.0942
  556POPI    C2 8852   3.014   5.209  11.025 -0.1861  0.0521 -0.0922
  556POPI    C3 8853   2.712   5.451  11.125 -0.1497  0.1189 -0.1425
  556POPI   PO4 8854   2.675   5.010  10.743 -0.1790  0.1351 -0.2030
  556POPI   GL1 8855   2.440   4.878  10.362 -0.0796 -0.0065  0.1268
  556POPI   GL2 8856   2.790   4.911  10.288  0.0931 -0.1108 -0.1614
  556POPI   C1A 8857   2.208   4.753   9.956  0.1692  0.0550 -0.1054
  556POPI   D2A 8858   2.283   4.841   9.467 -0.4342 -0.3525  0.5681
  556POPI   C3A 8859   2.232   4.945   9.024  0.1638  0.0902  0.1929
  556POPI   C4A 8860   2.375   5.368   8.783 -0.1557  0.0891  0.1677
  556POPI   C1B 8861   2.741   4.820   9.890  0.1698 -0.0957 -0.2061
  556POPI   C2B 8862   2.779   4.724   9.432  0.1672 -0.1081 -0.1085
  556POPI   C3B 8863   2.624   4.607   9.073  0.0167  0.0797 -0.3069
  556POPI   C4B 8864   2.697   4.486   8.622 -0.1443  0.0648  0.2969
  557POPI    C1 8865   1.308  13.539  11.174  0.0076  0.0346  0.0373
  557POPI    C2 8866   0.939  13.424  11.279  0.0524  0.0181  0.1792
  557POPI    C3 8867   1.210  13.508  11.561  0.1661  0.0020  0.0756
  557POPI   PO4 8868   1.397  13.533  11.006 -0.0031  0.3178  0.3268
  557POPI   GL1 8869   1.518  13.546  10.608  0.2588  0.4469  0.1043
  557POPI   GL2 8870   1.789  13.683  10.568 -0.1516  0.1164  0.1546
  557POPI   C1A 8871   1.259  13.558  10.256 -0.3944  0.0507  0.1227
  557POPI   D2A 8872   1.323  13.617   9.766  0.1704  0.1160 -0.0057
  557POPI   C3A 8873   1.220  13.533   9.388 -0.0690 -0.0594  0.0438
  557POPI   C4A 8874   1.183  13.502   8.952  0.0851  0.0615  0.3867
  557POPI   C1B 8875   1.765  13.661  10.133  0.0832 -0.2325 -0.1365
  557POPI   C2B 8876   1.768  13.668   9.708  0.2532  0.1110  0.0492
  557POPI   C3B 8877   1.676  13.787   9.277 -0.1172 -0.1705  0.1671
  557POPI   C4B 8878   1.668  13.727   8.897 -0.1314  0.0141 -0.3799
  558POPI    C1 8879   3.216  15.739  11.290 -0.0514  0.0124  0.1130
  558POPI    C2 8880   3.178  15.374  11.449 -0.1541 -0.1951 -0.3698
  558POPI    C3 8881   3.509  15.589  11.517 -0.1245 -0.3449 -0.0221
  558POPI   PO4 8882   3.164  15.696  11.055 -0.4240 -0.1393  0.0288
  558POPI   GL1 8883   3.307  15.844  10.637  0.0694 -0.0904  0.1133
  558POPI   GL2 8884   3.521  15.573  10.632  0.0239 -0.2156  0.0328
  558POPI   C1A 8885   3.296  15.724  10.177 -0.1557 -0.0516 -0.1587
  558POPI   D2A 8886   3.370  15.862   9.763 -0.0275  0.1054  0.2215
  558POPI   C3A 8887   3.437  15.897   9.374  0.2572  0.2209  0.3891
  558POPI   C4A 8888   3.550  15.835   8.990 -0.0035 -0.0967 -0.1904
  558POPI   C1B 8889   3.782  15.427  10.286  0.0146 -0.1063 -0.0787
  558POPI   C2B 8890   3.696  15.491   9.890 -0.2587  0.1107 -0.1582
  558POPI   C3B 8891   3.802  15.554   9.410  0.3019 -0.0061 -0.3831
  558POPI   C4B 8892   3.890  15.481   9.051  0.0584 -0.0147  0.3036
  559POPI    C1 8893   7.228  11.519  11.366  0.2204  0.0015 -0.1652
  559POPI    C2 8894   7.478  11.562  11.676 -0.1429  0.1981  0.1095
  559POPI    C3 8895   7.225  11.252  11.664  0.2846 -0.1516 -0.3003
  559POPI   PO4 8896   7.412  11.558  11.157  0.1146 -0.1121 -0.3493
  559POPI   GL1 8897   7.669  11.584  10.905  0.0282 -0.0401 -0.0191
  559POPI   GL2 8898   7.790  11.861  10.876  0.0897 -0.1710  0.0783
  559POPI   C1A 8899   7.643  11.531  10.426  0.0350  0.1286  0.0840
  559POPI   D2A 8900   7.684  11.652  10.007 -0.0289  0.2031  0.1982
  559POPI   C3A 8901   7.694  11.554   9.558 -0.1391 -0.1139  0.1962
  559POPI   C4A 8902   7.645  11.473   9.120  0.3236 -0.0258 -0.2407
  559POPI   C1B 8903   7.718  12.001  10.406  0.0221 -0.2694 -0.0713
  559POPI   C2B 8904   7.710  12.168  10.005  0.3111  0.0262 -0.1308
  559POPI   C3B 8905   7.775  12.092   9.670 -0.2923  0.1743 -0.1260
  559POPI   C4B 8906   7.669  12.048   9.235 -0.2351  0.1788  0.1657
  560POPI    C1 8907   5.369  11.784  11.287  0.3065 -0.1433  0.2411
  560POPI    C2 8908   5.067  11.527  11.335  0.3500 -0.2608 -0.0867
  560POPI    C3 8909   5.167  11.776  11.632 -0.2618 -0.0094 -0.0767
  560POPI   PO4 8910   5.351  11.959  11.022 -0.0212  0.0849  0.0120
  560POPI   GL1 8911   5.391  11.959  10.634  0.2449  0.0654 -0.3797
  560POPI   GL2 8912   5.436  11.608  10.464 -0.1572  0.2160  0.0714
  560POPI   C1A 8913   5.518  12.183  10.228  0.0261 -0.0896 -0.0280
  560POPI   D2A 8914   5.406  12.182   9.778  0.1943 -0.2512  0.0680
  560POPI   C3A 8915   5.517  12.182   9.316  0.0313  0.2446  0.3912
  560POPI   C4A 8916   5.686  12.152   8.874 -0.2056  0.1314  0.0046
  560POPI   C1B 8917   5.449  11.673  10.034 -0.0584  0.0281 -0.0075
  560POPI   C2B 8918   5.413  11.678   9.502  0.0427  0.1518 -0.0948
  560POPI   C3B 8919   5.444  11.628   9.069 -0.2498  0.1406  0.1249
  560POPI   C4B 8920   5.444  11.673   8.594 -0.2916 -0.1256  0.1259
  561POPI    C1 8921  12.354  17.210  11.720 -0.1648  0.0391  0.1045
  561POPI    C2 8922  12.411  17.506  11.982  0.1804 -0.0440  0.1288
  561POPI    C3 8923  12.289  17.147  12.110  0.0650 -0.0020  0.1380
  561POPI   PO4 8924  12.527  17.265  11.519 -0.2160  0.0244  0.0994
  561POPI   GL1 8925  12.480  17.420  11.221 -0.0394  0.2134  0.0631
  561POPI   GL2 8926  12.314  17.396  10.987  0.1254  0.1081 -0.1343
  561POPI   C1A 8927  12.789  17.554  10.828  0.1609  0.2150  0.2588
  561POPI   D2A 8928  12.792  17.645  10.453  0.1052  0.1978  0.0774
  561POPI   C3A 8929  12.786  17.755   9.980  0.0482  0.1019 -0.3162
  561POPI   C4A 8930  12.818  17.872   9.570 -0.0512 -0.0316 -0.0196
  561POPI   C1B 8931  12.130  17.155  10.626  0.0337  0.3658  0.0834
  561POPI   C2B 8932  12.270  17.024  10.227  0.0770 -0.2082  0.1483
  561POPI   C3B 8933  12.252  17.053   9.810  0.2516 -0.1272  0.0215
  561POPI   C4B 8934  12.288  17.018   9.370 -0.1296 -0.1178 -0.0788
  562POPI    C1 8935  11.664   1.301  11.248  0.1324 -0.6299  0.2675
  562POPI    C2 8936  11.736   1.588  11.518 -0.1233 -0.1528 -0.1532
  562POPI    C3 8937  11.499   1.279  11.611 -0.1116 -0.0589  0.2014
  562POPI   PO4 8938  11.681   1.386  10.929 -0.0358 -0.2304  0.2603
  562POPI   GL1 8939  11.668   1.389  10.477 -0.0340  0.2128  0.3836
  562POPI   GL2 8940  11.640   1.065  10.485  0.3129 -0.2815  0.1431
  562POPI   C1A 8941  11.747   1.652  10.097  0.1984 -0.0997 -0.1953
  562POPI   D2A 8942  11.753   1.665   9.608 -0.5046 -0.3053  0.0928
  562POPI   C3A 8943  11.765   1.679   9.146 -0.4006 -0.0230 -0.1225
  562POPI   C4A 8944  12.047   1.676   8.750 -0.1598  0.0509  0.1284
  562POPI   C1B 8945  11.299   1.037  10.341 -0.1830  0.3738  0.0623
  562POPI   C2B 8946  11.175   0.932   9.889  0.1872  0.1763  0.2099
  562POPI   C3B 8947  11.094   0.922   9.391  0.0377  0.0396 -0.0767
  562POPI   C4B 8948  11.220   0.953   8.955 -0.0338 -0.0340  0.0583
  563POPI    C1 8949   9.814   8.596  11.192 -0.0412 -0.0553  0.0571
  563POPI    C2 8950  10.164   8.484  11.351 -0.0150 -0.0363  0.0131
  563POPI    C3 8951   9.893   8.671  11.577  0.0859  0.1319 -0.0035
  563POPI   PO4 8952   9.891   8.690  10.966  0.2207 -0.0335  0.2977
  563POPI   GL1 8953   9.796   8.740  10.564  0.0171  0.1213 -0.1816
  563POPI   GL2 8954   9.971   8.518  10.356 -0.0684  0.2241 -0.2123
  563POPI   C1A 8955   9.518   8.818  10.184  0.0728 -0.1950  0.2450
  563POPI   D2A 8956   9.614   8.727   9.810 -0.0735  0.1551  0.1836
  563POPI   C3A 8957   9.507   8.963   9.448 -0.0310 -0.0264  0.1823
  563POPI   C4A 8958   9.432   8.938   8.950  0.0338 -0.2216 -0.3723
  563POPI   C1B 8959  10.011   8.376   9.944 -0.0902 -0.1516 -0.0546
  563POPI   C2B 8960   9.928   8.506   9.500 -0.0464  0.0447 -0.1087
  563POPI   C3B 8961   9.802   8.666   9.189 -0.2999 -0.5091 -0.1013
  563POPI   C4B 8962   9.860   8.720   8.811  0.1143 -0.1829  0.0820
  564POPI    C1 8963  12.894   2.813  10.706  0.1532 -0.0527  0.0210
  564POPI    C2 8964  12.854   3.131  10.946  0.0343  0.0738 -0.1639
  564POPI    C3 8965  12.532   2.969  10.773  0.1025 -0.1070 -0.1242
  564POPI   PO4 8966  13.091   2.896  10.597 -0.0613  0.1212  0.2253
  564POPI   GL1 8967  13.108   2.792  10.215  0.0137  0.0972  0.0661
  564POPI   GL2 8968  12.867   2.939  10.050 -0.2608  0.2951 -0.0240
  564POPI   C1A 8969  13.201   2.701   9.800 -0.0248 -0.1669 -0.0030
  564POPI   D2A 8970  13.073   2.811   9.420  0.0557 -0.1217  0.0868
  564POPI   C3A 8971  13.101   2.825   8.962 -0.1153  0.0722  0.2214
  564POPI   C4A 8972  13.022   2.730   8.484 -0.1383 -0.0500  0.0441
  564POPI   C1B 8973  12.708   2.602   9.955 -0.1748  0.1832  0.1256
  564POPI   C2B 8974  12.697   2.536   9.614  0.0819  0.2153  0.0381
  564POPI   C3B 8975  12.630   2.614   9.152  0.1139  0.1115  0.1301
  564POPI   C4B 8976  12.457   2.817   8.838 -0.2596 -0.1701 -0.0701
  565POPI    C1 8977   5.926  12.515  11.258 -0.1336 -0.3056 -0.0372
  565POPI    C2 8978   6.266  12.611  11.446 -0.0590 -0.1507 -0.2475
  565POPI    C3 8979   5.922  12.598  11.649  0.0267 -0.0252 -0.0917
  565POPI   PO4 8980   5.936  12.622  11.032  0.1461 -0.1120  0.3014
  565POPI   GL1 8981   5.943  12.689  10.630  0.2787 -0.3695 -0.3570
  565POPI   GL2 8982   6.163  12.902  10.553  0.0539  0.1730 -0.0056
  565POPI   C1A 8983   5.957  12.418  10.305 -0.2036 -0.1380  0.0359
  565POPI   D2A 8984   6.041  12.313   9.812  0.0611  0.2011  0.0197
  565POPI   C3A 8985   6.016  12.487   9.378 -0.1886  0.2228 -0.0352
  565POPI   C4A 8986   6.073  12.459   8.989 -0.0363  0.0874 -0.4470
  565POPI   C1B 8987   6.014  12.896  10.100  0.0395 -0.0248  0.0248
  565POPI   C2B 8988   6.208  12.836   9.666 -0.2205 -0.2108  0.0956
  565POPI   C3B 8989   6.043  12.972   9.348  0.1030  0.3099  0.0093
  565POPI   C4B 8990   6.133  13.017   8.908  0.1676 -0.2467  0.1733
  566POPI    C1 8991   6.695   7.184  10.863  0.1031 -0.1134 -0.0727
  566POPI    C2 8992   6.860   7.542  10.797 -0.1183  0.0117  0.0426
  566POPI    C3 8993   6.862   7.386  11.165 -0.1120 -0.0602  0.0120
  566POPI   PO4 8994   6.431   7.215  10.712  0.0390  0.0520 -0.0589
  566POPI   GL1 8995   6.311   7.297  10.309  0.2297  0.0536 -0.0967
  566POPI   GL2 8996   6.661   7.512  10.305 -0.2506 -0.2659 -0.0587
  566POPI   C1A 8997   6.109   7.613  10.105  0.2107 -0.1298 -0.2439
  566POPI   D2A 8998   6.084   7.739   9.586 -0.0675  0.0636 -0.3445
  566POPI   C3A 8999   5.943   7.697   9.262  0.0304  0.0455  0.2205
  566POPI   C4A 9000   5.910   7.689   8.828 -0.1483 -0.2372 -0.0612
  566POPI   C1B 9001   6.509   7.416   9.870  0.0803  0.2037  0.2808
  566POPI   C2B 9002   6.505   7.435   9.448  0.0977  0.3192 -0.1532
  566POPI   C3B 9003   6.314   7.296   9.084  0.0796  0.0070 -0.3028
  566POPI   C4B 9004   6.314   7.282   8.640 -0.0326  0.1268  0.3676
  567POPI    C1 9005   0.062  13.798  11.168 -0.3635  0.0507  0.2191
  567POPI    C2 9006   0.188  14.143  11.009  0.1742 -0.0892  0.3213
  567POPI    C3 9007  -0.017  14.145  11.352 -0.1225  0.1460  0.1474
  567POPI   PO4 9008  -0.076  13.710  11.001  0.2598  0.0784 -0.0822
  567POPI   GL1 9009  -0.133  13.833  10.475  0.0196  0.3379 -0.2870
  567POPI   GL2 9010   0.255  13.759  10.608  0.0464 -0.1079 -0.2613
  567POPI   C1A 9011  -0.145  13.876  10.073 -0.0874  0.1548 -0.0334
  567POPI   D2A 9012  -0.054  13.906   9.584 -0.1703 -0.3233  0.1815
  567POPI   C3A 9013  -0.044  13.931   9.179  0.2726 -0.0000  0.1376
  567POPI   C4A 9014  -0.030  13.894   8.783  0.2297 -0.2102 -0.0700
  567POPI   C1B 9015   0.326  13.660  10.221  0.1916  0.1765 -0.1964
  567POPI   C2B 9016   0.376  13.644   9.820 -0.0613 -0.1562 -0.0026
  567POPI   C3B 9017   0.360  13.568   9.422 -0.2703 -0.0737  0.0271
  567POPI   C4B 9018   0.314  13.522   8.936 -0.0846  0.0094 -0.0052
  568POPI    C1 9019  12.852   1.436  11.268 -0.0373 -0.0139 -0.1297
  568POPI    C2 9020  13.143   1.388  11.538 -0.0155  0.1126 -0.1299
  568POPI    C3 9021  12.766   1.446  11.659 -0.0340 -0.0060 -0.1290
  568POPI   PO4 9022  12.980   1.257  11.061 -0.3153 -0.1594  0.0072
  568POPI   GL1 9023  12.909   1.107  10.619 -0.1852 -0.2036 -0.2740
  568POPI   GL2 9024  12.590   1.156  10.467 -0.0939  0.0644 -0.2897
  568POPI   C1A 9025  12.898   1.201  10.137  0.1161 -0.1197  0.0146
  568POPI   D2A 9026  13.022   1.168   9.690 -0.0349 -0.0625 -0.2521
  568POPI   C3A 9027  13.020   1.157   9.229 -0.0406  0.2314  0.2297
  568POPI   C4A 9028  13.134   0.923   8.845 -0.0366  0.0792 -0.2362
  568POPI   C1B 9029  12.467   1.008  10.086 -0.2682 -0.0046  0.1055
  568POPI   C2B 9030  12.521   0.960   9.684  0.0451 -0.2942 -0.0315
  568POPI   C3B 9031  12.499   1.066   9.296 -0.1637 -0.1666  0.0499
  568POPI   C4B 9032  12.615   1.043   8.810  0.1281  0.2062 -0.0666
  569POPI    C1 9033  16.945   0.798  11.402 -0.1988 -0.1675 -0.2700
  569POPI    C2 9034  16.737   1.138  11.378 -0.0298 -0.0440 -0.0266
  569POPI    C3 9035  16.862   1.005  11.734  0.4169 -0.0474 -0.1792
  569POPI   PO4 9036  17.103   0.847  11.232  0.0036  0.1074  0.1053
  569POPI   GL1 9037  17.102   0.906  10.802  0.1048 -0.0343  0.3591
  569POPI   GL2 9038  17.276   1.127  10.790  0.2447 -0.3064  0.0208
  569POPI   C1A 9039  16.915   0.878  10.439  0.1509 -0.0214 -0.0550
  569POPI   D2A 9040  16.835   0.928  10.004 -0.0705 -0.0718 -0.2469
  569POPI   C3A 9041  16.844   0.785   9.704  0.3144  0.1146  0.0250
  569POPI   C4A 9042  16.873   0.835   9.268  0.0352  0.0817  0.1783
  569POPI   C1B 9043  17.406   0.962  10.425 -0.1331 -0.1218  0.1199
  569POPI   C2B 9044  17.345   1.043   9.948 -0.3090  0.0336  0.0756
  569POPI   C3B 9045  17.370   1.022   9.436  0.2805  0.0226  0.1735
  569POPI   C4B 9046  17.285   0.907   8.936  0.0859 -0.1161 -0.0685
  570POPI    C1 9047   6.890   1.557  11.369 -0.3774  0.0079 -0.1306
  570POPI    C2 9048   6.701   1.236  11.515  0.0520 -0.1487  0.0974
  570POPI    C3 9049   7.080   1.311  11.620  0.0316  0.3121 -0.1313
  570POPI   PO4 9050   6.905   1.542  11.147  0.2014  0.0358 -0.0092
  570POPI   GL1 9051   6.834   1.631  10.790  0.0341  0.0416  0.1792
  570POPI   GL2 9052   6.710   1.292  10.688  0.1365 -0.2453 -0.0943
  570POPI   C1A 9053   6.756   1.718  10.412  0.0436  0.0067 -0.0439
  570POPI   D2A 9054   6.721   1.747  10.018 -0.3157 -0.0946 -0.2713
  570POPI   C3A 9055   6.701   1.734   9.614  0.1060  0.1183 -0.1862
  570POPI   C4A 9056   6.741   1.754   9.231 -0.3249  0.1941  0.2496
  570POPI   C1B 9057   6.724   1.253  10.271  0.1827  0.0108 -0.3885
  570POPI   C2B 9058   6.633   1.288   9.843 -0.2486 -0.2877  0.0319
  570POPI   C3B 9059   6.622   1.231   9.403  0.1207 -0.0315 -0.3951
  570POPI   C4B 9060   6.628   1.311   8.965  0.0858 -0.0101 -0.2103
  571POPI    C1 9061   1.756  12.107  11.608 -0.0099 -0.1468  0.1285
  571POPI    C2 9062   1.419  11.936  11.739 -0.0859 -0.2362 -0.1770
  571POPI    C3 9063   1.773  11.767  11.818 -0.1117 -0.1539  0.1252
  571POPI   PO4 9064   1.764  12.179  11.303  0.0735  0.1060 -0.0534
  571POPI   GL1 9065   1.719  12.416  10.862 -0.3041 -0.0908 -0.1210
  571POPI   GL2 9066   1.605  12.734  10.636 -0.1122 -0.2293  0.2424
  571POPI   C1A 9067   1.979  12.254  10.405 -0.0836  0.0834  0.2301
  571POPI   D2A 9068   2.000  12.363   9.935  0.2384 -0.0358 -0.0323
  571POPI   C3A 9069   1.976  12.353   9.508 -0.0437 -0.2499 -0.2551
  571POPI   C4A 9070   1.994  12.446   9.063 -0.0015  0.1466  0.0535
  571POPI   C1B 9071   1.460  12.645  10.207 -0.1797 -0.0830  0.1520
  571POPI   C2B 9072   1.545  12.678   9.852  0.0461  0.2111  0.2715
  571POPI   C3B 9073   1.523  12.709   9.429 -0.2611  0.3842  0.0919
  571POPI   C4B 9074   1.559  12.752   9.044 -0.0249 -0.2543  0.4356
  572POPI    C1 9075  17.426  12.351  11.022 -0.1260  0.1330  0.0839
  572POPI    C2 9076  17.104  12.497  11.209 -0.2701  0.0333 -0.0842
  572POPI    C3 9077  17.344  12.239  11.398 -0.3258  0.0561  0.0185
  572POPI   PO4 9078  17.315  12.354  10.736  0.1712 -0.0106  0.0955
  572POPI   GL1 9079  17.216  12.701  10.455 -0.1625  0.4622  0.1500
  572POPI   GL2 9080  17.502  12.871  10.261 -0.4264 -0.2028  0.2081
  572POPI   C1A 9081  16.952  12.699  10.152 -0.0219 -0.0487  0.2481
  572POPI   D2A 9082  16.908  12.698   9.835  0.2099 -0.0975 -0.0147
  572POPI   C3A 9083  16.938  12.740   9.455 -0.1775  0.1992  0.1811
  572POPI   C4A 9084  16.970  12.683   9.051 -0.0650 -0.1721  0.0359
  572POPI   C1B 9085  17.391  12.973   9.846 -0.1793  0.0366  0.2308
  572POPI   C2B 9086  17.474  12.970   9.445 -0.3478 -0.1005  0.0806
  572POPI   C3B 9087  17.432  12.830   9.051 -0.0842 -0.0436  0.0436
  572POPI   C4B 9088  17.333  12.843   8.684 -0.0326 -0.1251 -0.1380
  573POPI    C1 9089   2.609   3.128  11.125  0.0215  0.0766  0.1322
  573POPI    C2 9090   2.865   2.822  11.155  0.1200  0.1447  0.0002
  573POPI    C3 9091   2.584   2.876  11.434  0.0088 -0.1501 -0.0507
  573POPI   PO4 9092   2.572   3.125  10.870  0.1579 -0.0289 -0.2430
  573POPI   GL1 9093   2.579   3.181  10.486  0.0437  0.0652 -0.0660
  573POPI   GL2 9094   2.903   3.410  10.502 -0.3564 -0.2310 -0.0049
  573POPI   C1A 9095   2.415   2.968  10.020 -0.4254 -0.4122  0.0809
  573POPI   D2A 9096   2.532   3.064   9.634  0.0841 -0.1968  0.1017
  573POPI   C3A 9097   2.380   3.031   9.130  0.0673 -0.0931 -0.2500
  573POPI   C4A 9098   2.233   3.124   8.710  0.0680 -0.0263 -0.1219
  573POPI   C1B 9099   2.881   3.136  10.040 -0.2154  0.0287  0.0865
  573POPI   C2B 9100   2.993   3.140   9.589 -0.0408  0.1946  0.3546
  573POPI   C3B 9101   2.875   3.223   9.173 -0.2583  0.1091  0.2940
  573POPI   C4B 9102   2.933   3.133   8.736  0.2139 -0.0437 -0.0821
  574DPPI    C1 9103  14.107   8.782  10.720  0.0135 -0.0403 -0.0799
  574DPPI    C2 9104  14.486   8.738  10.598  0.0508  0.1308 -0.0279
  574DPPI    C3 9105  14.382   8.633  10.969  0.0545  0.1145 -0.0315
  574DPPI   PO4 9106  13.986   8.699  10.491 -0.2704  0.0545 -0.1719
  574DPPI   GL1 9107  14.141   8.546  10.175  0.1296 -0.1194  0.0914
  574DPPI   GL2 9108  14.396   8.345  10.231  0.1907 -0.0059 -0.0756
  574DPPI   C1A 9109  14.071   8.601   9.727  0.0300  0.1320 -0.0440
  574DPPI   C2A 9110  14.055   8.668   9.243  0.1355  0.1142  0.3802
  574DPPI   C3A 9111  14.085   8.624   8.792 -0.1183  0.0748 -0.1715
  574DPPI   C4A 9112  13.988   8.548   8.386 -0.0029  0.0880  0.0692
  574DPPI   C1B 9113  14.398   8.164   9.841 -0.1728 -0.1160  0.0306
  574DPPI   C2B 9114  14.307   8.261   9.419  0.3283  0.0166 -0.1464
  574DPPI   C3B 9115  14.422   8.313   8.951  0.0317 -0.0083 -0.2569
  574DPPI   C4B 9116  14.373   8.216   8.448  0.0458 -0.0226 -0.0589
  575DPPI    C1 9117  16.974  11.562  10.824  0.1223 -0.0626  0.0638
  575DPPI    C2 9118  16.737  11.638  11.137  0.0619 -0.0390  0.0125
  575DPPI    C3 9119  17.063  11.412  11.184  0.1236  0.0709  0.1198
  575DPPI   PO4 9120  17.008  11.760  10.568 -0.0607  0.0714 -0.1993
  575DPPI   GL1 9121  16.977  12.194  10.373 -0.0830  0.1317 -0.1473
  575DPPI   GL2 9122  17.284  12.071  10.296 -0.0058  0.1304 -0.1650
  575DPPI   C1A 9123  16.859  12.182   9.946 -0.0131  0.0168 -0.2728
  575DPPI   C2A 9124  16.884  12.244   9.496 -0.1351  0.0531  0.2159
  575DPPI   C3A 9125  16.876  12.182   9.053 -0.0553  0.0159 -0.2508
  575DPPI   C4A 9126  16.952  12.071   8.690 -0.1670 -0.5124  0.0498
  575DPPI   C1B 9127  17.276  11.975   9.874 -0.0081  0.1799  0.1969
  575DPPI   C2B 9128  17.256  11.862   9.401  0.1163  0.1286  0.0314
  575DPPI   C3B 9129  17.278  11.812   8.978 -0.0969  0.1894  0.0174
  575DPPI   C4B 9130  17.366  11.821   8.604  0.1332  0.3196 -0.0634
  576DPPI    C1 9131   0.637   6.993  10.644 -0.2109 -0.0097 -0.0695
  576DPPI    C2 9132   0.617   7.345  10.832 -0.0286 -0.0423  0.0138
  576DPPI    C3 9133   0.571   7.005  11.039 -0.2792 -0.0673 -0.0789
  576DPPI   PO4 9134   0.697   7.096  10.383 -0.1097 -0.0452  0.1983
  576DPPI   GL1 9135   0.925   7.249  10.012 -0.1081 -0.0821  0.2419
  576DPPI   GL2 9136   1.212   7.067   9.922 -0.1534  0.1050  0.0070
  576DPPI   C1A 9137   0.797   7.159   9.695  0.0783 -0.0311  0.2609
  576DPPI   C2A 9138   0.826   7.207   9.271 -0.0254  0.0530 -0.1986
  576DPPI   C3A 9139   0.787   7.363   8.909 -0.1557  0.0049 -0.0504
  576DPPI   C4A 9140   0.813   7.398   8.379  0.0006  0.3374 -0.0626
  576DPPI   C1B 9141   1.179   6.871   9.495 -0.0602  0.2352  0.0753
  576DPPI   C2B 9142   1.190   6.946   9.026  0.2203 -0.0023 -0.0670
  576DPPI   C3B 9143   1.205   7.055   8.576  0.0492  0.0701  0.4022
  576DPPI   C4B 9144   1.093   7.038   8.154 -0.1810 -0.3217 -0.2977
  577DPPI    C1 9145   2.027   2.829  11.484  0.0229  0.0216 -0.1407
  577DPPI    C2 9146   1.960   3.090  11.779 -0.0152  0.0786 -0.1996
  577DPPI    C3 9147   2.259   2.826  11.810 -0.2250 -0.1363  0.0380
  577DPPI   PO4 9148   2.062   2.978  11.243 -0.2322 -0.1971  0.3355
  577DPPI   GL1 9149   2.133   2.896  10.786  0.1972 -0.0709 -0.1427
  577DPPI   GL2 9150   1.887   3.043  10.618  0.0244  0.0961 -0.1555
  577DPPI   C1A 9151   2.308   2.663  10.448 -0.0123  0.2158 -0.2393
  577DPPI   C2A 9152   2.497   2.337  10.221  0.0404  0.2634  0.2406
  577DPPI   C3A 9153   2.579   2.200   9.771 -0.2397 -0.3791  0.0263
  577DPPI   C4A 9154   2.711   2.144   9.297  0.2099  0.0808  0.2427
  577DPPI   C1B 9155   1.902   2.968  10.216 -0.1058 -0.0169 -0.1775
  577DPPI   C2B 9156   1.917   3.018   9.785  0.0246  0.1413  0.0647
  577DPPI   C3B 9157   1.864   2.884   9.395  0.2006 -0.0489 -0.0272
  577DPPI   C4B 9158   1.847   2.927   8.971  0.0690 -0.0705  0.1281
  578DPPI    C1 9159   2.719   5.912  10.927  0.3036 -0.1017  0.2447
  578DPPI    C2 9160   3.012   5.875  11.196  0.2767  0.0867  0.3015
  578DPPI    C3 9161   2.670   6.055  11.298  0.1748 -0.0525  0.2093
  578DPPI   PO4 9162   2.806   5.824  10.704  0.0143 -0.0496  0.3213
  578DPPI   GL1 9163   2.948   5.867  10.350  0.0214  0.0806 -0.0863
  578DPPI   GL2 9164   2.665   5.648  10.181 -0.1878  0.3698 -0.2123
  578DPPI   C1A 9165   3.242   5.776   9.965 -0.0750  0.0589 -0.0121
  578DPPI   C2A 9166   3.341   5.759   9.512  0.0982  0.2384  0.0262
  578DPPI   C3A 9167   3.295   5.787   9.059  0.1096  0.1155  0.0197
  578DPPI   C4A 9168   3.352   5.696   8.751 -0.0233 -0.0104  0.3221
  578DPPI   C1B 9169   2.819   5.565   9.763 -0.0797 -0.0798  0.1486
  578DPPI   C2B 9170   2.910   5.546   9.342 -0.1262  0.1078 -0.0098
  578DPPI   C3B 9171   2.753   5.612   8.952 -0.1628  0.2585 -0.1838
  578DPPI   C4B 9172   2.720   5.564   8.447  0.0756  0.2671  0.0275
  579DPPI    C1 9173   1.665   8.021  10.528 -0.0611  0.0026 -0.0915
  579DPPI    C2 9174   1.696   8.419  10.538  0.1133 -0.0140  0.0799
  579DPPI    C3 9175   1.491   8.228  10.823 -0.0489 -0.0411 -0.0536
  579DPPI   PO4 9176   1.664   7.936  10.250 -0.0842  0.1623 -0.2129
  579DPPI   GL1 9177   1.727   7.686   9.913 -0.1872 -0.0744 -0.1095
  579DPPI   GL2 9178   2.053   7.731  10.015 -0.2329 -0.0015 -0.0299
  579DPPI   C1A 9179   1.801   7.607   9.491  0.0442 -0.0507  0.0093
  579DPPI   C2A 9180   1.801   7.592   8.997 -0.0892  0.1357 -0.1648
  579DPPI   C3A 9181   1.759   7.692   8.664  0.1672 -0.0397 -0.0428
  579DPPI   C4A 9182   1.722   7.764   8.172 -0.1275 -0.0910 -0.1340
  579DPPI   C1B 9183   2.294   7.856   9.643 -0.0022 -0.2598 -0.1604
  579DPPI   C2B 9184   2.314   7.779   9.172 -0.0302 -0.2562  0.0050
  579DPPI   C3B 9185   2.286   7.856   8.699 -0.0290 -0.1027 -0.0383
  579DPPI   C4B 9186   2.233   7.630   8.244  0.0492 -0.2099 -0.0720
  580DPPI    C1 9187  16.903  10.183  10.627 -0.1138 -0.0189  0.0566
  580DPPI    C2 9188  16.843  10.245  11.018 -0.0142  0.0278  0.0647
  580DPPI    C3 9189  17.195  10.107  10.889  0.0266  0.2165 -0.0293
  580DPPI   PO4 9190  16.826  10.066  10.495  0.4914  0.1437  0.1941
  580DPPI   GL1 9191  16.768  10.250  10.040 -0.1900  0.2016  0.0073
  580DPPI   GL2 9192  16.604  10.064   9.771 -0.2319 -0.1303 -0.2248
  580DPPI   C1A 9193  16.761  10.567   9.848 -0.0103 -0.0812 -0.2894
  580DPPI   C2A 9194  16.594  10.557   9.552  0.4737  0.1412 -0.2297
  580DPPI   C3A 9195  16.697  10.609   9.164 -0.0350 -0.1049 -0.1185
  580DPPI   C4A 9196  16.641  10.577   8.735 -0.0744 -0.0153 -0.2908
  580DPPI   C1B 9197  16.560  10.103   9.366  0.3884 -0.2042 -0.2341
  580DPPI   C2B 9198  16.605  10.104   8.952  0.1293 -0.1857  0.0660
  580DPPI   C3B 9199  16.688  10.071   8.573 -0.0223 -0.1293 -0.2961
  580DPPI   C4B 9200  16.762  10.019   8.223  0.1976 -0.0649  0.0396
  581DPPI    C1 9201   0.048   1.116  11.355 -0.3715 -0.1755 -0.3522
  581DPPI    C2 9202  -0.286   1.160  11.571 -0.2129 -0.1444 -0.1090
  581DPPI    C3 9203   0.021   0.950  11.718  0.0410  0.1944 -0.1414
  581DPPI   PO4 9204  -0.083   1.042  11.145  0.0570  0.2150  0.2548
  581DPPI   GL1 9205   0.115   1.143  10.723 -0.1240  0.2098 -0.1214
  581DPPI   GL2 9206   0.112   1.458  10.854  0.0546 -0.2203  0.0518
  581DPPI   C1A 9207   0.168   1.149  10.295 -0.1327  0.0291  0.1488
  581DPPI   C2A 9208   0.117   1.168   9.868  0.1890 -0.2875  0.1693
  581DPPI   C3A 9209   0.225   1.194   9.419 -0.2845  0.2848 -0.0164
  581DPPI   C4A 9210   0.439   0.995   9.052  0.0178 -0.0560 -0.1039
  581DPPI   C1B 9211  -0.211   1.506  10.517  0.0376 -0.1602  0.1898
  581DPPI   C2B 9212  -0.333   1.549  10.133 -0.0093 -0.0820 -0.2111
  581DPPI   C3B 9213  -0.240   1.517   9.728 -0.1037  0.0250  0.0794
  581DPPI   C4B 9214  -0.067   1.587   9.361  0.2376  0.0646 -0.1019
  582DPPI    C1 9215   3.700  13.322  11.015 -0.1252 -0.1766 -0.0948
  582DPPI    C2 9216   3.679  13.238  11.406 -0.0208  0.0721 -0.0342
  582DPPI    C3 9217   3.359  13.185  11.172 -0.0647 -0.1387  0.0715
  582DPPI   PO4 9218   3.941  13.187  10.929  0.0812  0.0335 -0.0215
  582DPPI   GL1 9219   4.143  13.259  10.598  0.4643 -0.0185  0.2163
  582DPPI   GL2 9220   3.927  13.515  10.569  0.0235  0.1927  0.2580
  582DPPI   C1A 9221   4.384  13.205  10.193  0.1355  0.2389  0.0898
  582DPPI   C2A 9222   4.334  13.229   9.751  0.1838  0.1195 -0.2674
  582DPPI   C3A 9223   4.234  13.195   9.262  0.1283  0.2138  0.1209
  582DPPI   C4A 9224   4.291  13.079   8.846 -0.3356  0.2474 -0.2319
  582DPPI   C1B 9225   4.022  13.493  10.150 -0.0002  0.4489 -0.0821
  582DPPI   C2B 9226   3.909  13.614   9.779 -0.1917 -0.0498  0.1206
  582DPPI   C3B 9227   3.822  13.505   9.399  0.0776  0.0004  0.0261
  582DPPI   C4B 9228   3.932  13.517   8.974  0.1430 -0.1254  0.2845
  583DPPI    C1 9229   2.725   4.435  10.934  0.0229  0.0629  0.0526
  583DPPI    C2 9230   2.914   4.732  11.124  0.2453 -0.0531  0.0163
  583DPPI    C3 9231   2.570   4.588  11.269  0.1759  0.1690  0.0760
  583DPPI   PO4 9232   2.740   4.493  10.681  0.0710  0.0583 -0.1322
  583DPPI   GL1 9233   2.995   4.479  10.382 -0.1190 -0.1098 -0.0751
  583DPPI   GL2 9234   3.105   4.248  10.216  0.2274 -0.4693  0.0850
  583DPPI   C1A 9235   3.209   4.691  10.052  0.1137  0.1162  0.1292
  583DPPI   C2A 9236   3.237   4.647   9.577  0.1196 -0.0244 -0.1391
  583DPPI   C3A 9237   3.174   4.700   9.065 -0.1281 -0.1739  0.2249
  583DPPI   C4A 9238   3.183   4.628   8.663 -0.0291 -0.1988 -0.1052
  583DPPI   C1B 9239   3.150   4.150   9.792  0.3071  0.2671  0.1219
  583DPPI   C2B 9240   3.232   4.179   9.410  0.1014  0.0870  0.1307
  583DPPI   C3B 9241   3.133   4.200   8.955 -0.3487 -0.0343 -0.0356
  583DPPI   C4B 9242   3.135   4.176   8.452  0.0922 -0.3407 -0.0127
  584DPPI    C1 9243  13.267   0.851  11.583  0.1435  0.0492  0.0109
  584DPPI    C2 9244  13.439   1.102  11.843  0.2429 -0.0377  0.0299
  584DPPI    C3 9245  13.440   0.708  11.915  0.0349 -0.0393  0.0304
  584DPPI   PO4 9246  13.320   1.002  11.318 -0.2617 -0.0320 -0.0505
  584DPPI   GL1 9247  13.535   1.108  10.949  0.1739 -0.0080  0.0830
  584DPPI   GL2 9248  13.803   1.180  10.831 -0.2071 -0.0900 -0.1133
  584DPPI   C1A 9249  13.367   0.945  10.666  0.0344  0.4387 -0.3146
  584DPPI   C2A 9250  13.289   0.891  10.180  0.0676  0.1009 -0.0949
  584DPPI   C3A 9251  13.325   0.794   9.881 -0.0425 -0.0585 -0.1677
  584DPPI   C4A 9252  13.347   0.829   9.418 -0.2791  0.0140 -0.3132
  584DPPI   C1B 9253  13.751   1.078  10.374 -0.1455 -0.0686  0.1873
  584DPPI   C2B 9254  13.770   0.993   9.910 -0.1163  0.0443  0.0329
  584DPPI   C3B 9255  13.838   0.980   9.496 -0.2644  0.2437 -0.2828
  584DPPI   C4B 9256  13.694   1.032   9.102 -0.0856  0.0997 -0.0789
  585DPPI    C1 9257   8.811   5.942  11.011 -0.0633  0.0770 -0.1200
  585DPPI    C2 9258   8.937   6.292  11.159 -0.1643  0.0393  0.0584
  585DPPI    C3 9259   8.834   5.995  11.407  0.1706 -0.2098 -0.0921
  585DPPI   PO4 9260   8.674   6.011  10.798 -0.0472 -0.0828  0.0488
  585DPPI   GL1 9261   8.651   5.888  10.337 -0.1832 -0.2486 -0.1559
  585DPPI   GL2 9262   8.952   5.957  10.326  0.0680 -0.4399 -0.2835
  585DPPI   C1A 9263   8.542   5.984   9.997  0.0597  0.0106  0.3305
  585DPPI   C2A 9264   8.524   5.975   9.544  0.2884 -0.1796 -0.1510
  585DPPI   C3A 9265   8.538   6.180   9.183 -0.0422  0.0755  0.3256
  585DPPI   C4A 9266   8.520   6.069   8.750  0.2107 -0.1129  0.1094
  585DPPI   C1B 9267   9.004   5.814   9.893 -0.0082 -0.0701  0.0214
  585DPPI   C2B 9268   8.956   5.702   9.511 -0.1561 -0.0286 -0.0060
  585DPPI   C3B 9269   8.906   5.753   9.069  0.1562 -0.1244  0.1653
  585DPPI   C4B 9270   8.951   5.705   8.618 -0.0406  0.2755  0.2238
  586DPPI    C1 9271  13.293  13.686  11.397 -0.1619 -0.2500 -0.0085
  586DPPI    C2 9272  13.144  13.962  11.644 -0.0620 -0.0281 -0.1917
  586DPPI    C3 9273  13.279  13.615  11.790 -0.2034  0.0111  0.0391
  586DPPI   PO4 9274  13.125  13.754  11.159 -0.1959 -0.0515  0.1371
  586DPPI   GL1 9275  12.962  13.547  10.863  0.0523 -0.1004  0.1372
  586DPPI   GL2 9276  12.588  13.469  10.932  0.2390 -0.0804 -0.3414
  586DPPI   C1A 9277  13.044  13.516  10.531 -0.4653 -0.1184 -0.0469
  586DPPI   C2A 9278  13.007  13.606  10.094  0.0292 -0.0498  0.1362
  586DPPI   C3A 9279  13.040  13.545   9.728  0.2359 -0.1034 -0.1303
  586DPPI   C4A 9280  12.982  13.544   9.250  0.1262 -0.1579 -0.1668
  586DPPI   C1B 9281  12.572  13.383  10.383  0.0214 -0.1067 -0.0974
  586DPPI   C2B 9282  12.532  13.374   9.995 -0.1965 -0.0917 -0.2499
  586DPPI   C3B 9283  12.532  13.406   9.584 -0.2044 -0.0329  0.0516
  586DPPI   C4B 9284  12.519  13.329   9.111 -0.0270 -0.3365  0.2411
  587DPPI    C1 9285   8.040   4.445  11.086 -0.1470 -0.1650  0.2335
  587DPPI    C2 9286   8.059   4.463  11.485  0.1020 -0.1450  0.2224
  587DPPI    C3 9287   8.174   4.131  11.294  0.1180 -0.1037  0.1597
  587DPPI   PO4 9288   7.811   4.494  10.940  0.1229 -0.2064  0.0903
  587DPPI   GL1 9289   7.741   4.573  10.491  0.2805  0.1589  0.0120
  587DPPI   GL2 9290   7.714   4.861  10.566  0.1203  0.1680 -0.0633
  587DPPI   C1A 9291   7.624   4.435  10.095  0.1023 -0.0526 -0.3292
  587DPPI   C2A 9292   7.712   4.440   9.657  0.0799 -0.0657 -0.0193
  587DPPI   C3A 9293   7.723   4.404   9.126  0.2413  0.0617  0.2222
  587DPPI   C4A 9294   7.721   4.534   8.657  0.2150 -0.0212 -0.0640
  587DPPI   C1B 9295   7.708   4.970  10.099  0.1295 -0.0970  0.3759
  587DPPI   C2B 9296   7.804   4.984   9.650  0.0490  0.1029 -0.0741
  587DPPI   C3B 9297   7.774   4.941   9.200 -0.1037 -0.0579  0.0742
  587DPPI   C4B 9298   7.805   5.022   8.802  0.0611 -0.0361  0.1727
  588DPPI    C1 9299   6.169  10.701  11.343 -0.0136  0.1214 -0.0595
  588DPPI    C2 9300   6.273  11.023  11.557  0.0267 -0.0294  0.1502
  588DPPI    C3 9301   5.973  10.789  11.680  0.0125 -0.0855  0.0108
  588DPPI   PO4 9302   6.159  10.727  11.115 -0.1505  0.0005  0.3664
  588DPPI   GL1 9303   6.160  10.854  10.742 -0.0876 -0.2547  0.2082
  588DPPI   GL2 9304   6.143  10.548  10.650  0.2895  0.2126  0.0272
  588DPPI   C1A 9305   6.206  11.082  10.359 -0.1292  0.0546  0.2453
  588DPPI   C2A 9306   6.275  11.036   9.953  0.0201  0.1993  0.1050
  588DPPI   C3A 9307   6.126  11.069   9.546  0.0508 -0.1024 -0.1202
  588DPPI   C4A 9308   6.205  11.020   9.143 -0.2757 -0.2280  0.2205
  588DPPI   C1B 9309   6.161  10.546  10.233  0.0286 -0.2841  0.0581
  588DPPI   C2B 9310   6.152  10.560   9.770  0.1804 -0.0105 -0.0358
  588DPPI   C3B 9311   6.071  10.572   9.343  0.0375  0.0608 -0.0467
  588DPPI   C4B 9312   6.118  10.556   8.957  0.1784 -0.1866 -0.1447
  589DPPI    C1 9313   4.428  10.395  11.074 -0.0329 -0.0586  0.1426
  589DPPI    C2 9314   4.095  10.197  10.976 -0.0269 -0.0274  0.0589
  589DPPI    C3 9315   4.145  10.330  11.350 -0.1100 -0.0289  0.0709
  589DPPI   PO4 9316   4.481  10.549  10.880  0.3346  0.1499  0.1703
  589DPPI   GL1 9317   4.439  10.957  10.556  0.1106 -0.2497  0.0587
  589DPPI   GL2 9318   4.107  11.103  10.608  0.0301 -0.2058 -0.0977
  589DPPI   C1A 9319   4.349  10.815  10.207 -0.3267  0.0476 -0.0017
  589DPPI   C2A 9320   4.402  10.873   9.732  0.1005 -0.1722 -0.1059
  589DPPI   C3A 9321   4.325  10.884   9.288  0.0310  0.0959  0.3603
  589DPPI   C4A 9322   4.289  10.842   8.807 -0.0720  0.2359  0.0909
  589DPPI   C1B 9323   3.932  11.114  10.190 -0.0930  0.2314 -0.0748
  589DPPI   C2B 9324   3.973  11.214   9.810 -0.1624  0.1713  0.1670
  589DPPI   C3B 9325   3.930  11.294   9.389 -0.1151 -0.2371  0.0535
  589DPPI   C4B 9326   3.981  11.219   8.920 -0.2241 -0.1232 -0.1317
  590DPPI    C1 9327   2.335   1.577  11.860  0.1258  0.0461  0.0582
  590DPPI    C2 9328   2.604   1.707  12.126  0.1926  0.3597 -0.1572
  590DPPI    C3 9329   2.223   1.825  12.154  0.1029  0.0300  0.0630
  590DPPI   PO4 9330   2.398   1.609  11.574 -0.0990 -0.2002  0.1115
  590DPPI   GL1 9331   2.246   1.418  11.074  0.0435  0.1254  0.1447
  590DPPI   GL2 9332   2.475   1.599  10.836  0.0428 -0.1921 -0.1995
  590DPPI   C1A 9333   1.957   1.193  10.750 -0.0216  0.0127 -0.0884
  590DPPI   C2A 9334   1.963   1.047  10.260 -0.2077 -0.0498  0.0902
  590DPPI   C3A 9335   1.988   0.954   9.850 -0.2022 -0.3272  0.0211
  590DPPI   C4A 9336   2.134   0.885   9.500 -0.0184  0.1135  0.2744
  590DPPI   C1B 9337   2.231   1.593  10.355  0.0619 -0.0126 -0.0764
  590DPPI   C2B 9338   2.246   1.486   9.975  0.0757 -0.0338  0.0202
  590DPPI   C3B 9339   2.140   1.376   9.619  0.2642 -0.0851  0.0291
  590DPPI   C4B 9340   2.135   1.280   9.146 -0.0047  0.2632  0.1073
  591DPPI    C1 9341   1.090   5.432  10.646  0.0791  0.0520 -0.0801
  591DPPI    C2 9342   0.973   5.407  11.028 -0.0153  0.2051 -0.0985
  591DPPI    C3 9343   0.951   5.756  10.834 -0.5109  0.0086 -0.4175
  591DPPI   PO4 9344   0.954   5.249  10.534  0.0732 -0.2110  0.1540
  591DPPI   GL1 9345   0.805   5.262  10.167  0.0180  0.0457 -0.2100
  591DPPI   GL2 9346   0.785   4.958  10.127  0.3002  0.2607  0.2200
  591DPPI   C1A 9347   0.903   5.342   9.846 -0.2832  0.1166  0.1298
  591DPPI   C2A 9348   0.886   5.353   9.297 -0.2383 -0.0066  0.2629
  591DPPI   C3A 9349   0.917   5.453   8.841  0.0318 -0.5845  0.0699
  591DPPI   C4A 9350   0.811   5.547   8.389  0.3598  0.1972  0.0106
  591DPPI   C1B 9351   0.741   4.838   9.701  0.1053 -0.1342 -0.1731
  591DPPI   C2B 9352   0.790   4.818   9.256 -0.4244 -0.1003 -0.1161
  591DPPI   C3B 9353   0.916   4.857   8.794 -0.1776 -0.1769  0.0843
  591DPPI   C4B 9354   0.875   5.007   8.383  0.1641 -0.0231  0.1093
  592DPPI    C1 9355   8.224   1.531  11.071 -0.1732  0.1965 -0.1186
  592DPPI    C2 9356   8.131   1.162  11.196  0.3509  0.0032 -0.2693
  592DPPI    C3 9357   7.951   1.480  11.359  0.0797 -0.3035  0.0464
  592DPPI   PO4 9358   8.100   1.577  10.850  0.0926  0.1254 -0.1820
  592DPPI   GL1 9359   7.945   1.827  10.621  0.1622 -0.1056  0.1578
  592DPPI   GL2 9360   7.681   1.584  10.553 -0.1700  0.0606  0.2119
  592DPPI   C1A 9361   8.061   1.844  10.214 -0.0990  0.1838  0.3621
  592DPPI   C2A 9362   8.121   1.782   9.820  0.0908 -0.2183  0.2327
  592DPPI   C3A 9363   8.076   1.779   9.386  0.0983 -0.0284  0.2968
  592DPPI   C4A 9364   8.141   1.800   8.935 -0.2689  0.2156 -0.1510
  592DPPI   C1B 9365   7.662   1.544  10.202  0.1814 -0.0830 -0.0083
  592DPPI   C2B 9366   7.662   1.545   9.785  0.0020 -0.0583 -0.0524
  592DPPI   C3B 9367   7.614   1.573   9.303 -0.2990 -0.0327  0.0712
  592DPPI   C4B 9368   7.601   1.694   8.804  0.0853  0.0186 -0.1684
  593DPPI    C1 9369   8.641  15.962  10.954 -0.0407 -0.1206  0.0536
  593DPPI    C2 9370   8.694  16.260  11.215  0.0932  0.0109 -0.1213
  593DPPI    C3 9371   8.493  15.932  11.324 -0.1459  0.2077  0.0411
  593DPPI   PO4 9372   8.796  15.968  10.746  0.0322 -0.0126 -0.0087
  593DPPI   GL1 9373   9.145  16.086  10.561  0.0584  0.1950 -0.0018
  593DPPI   GL2 9374   8.893  16.332  10.366  0.0229  0.0504 -0.0306
  593DPPI   C1A 9375   9.281  16.017  10.188  0.1996  0.0456  0.0796
  593DPPI   C2A 9376   9.464  15.969   9.717 -0.2245  0.1157 -0.3373
  593DPPI   C3A 9377   9.361  16.063   9.266  0.2761 -0.2700 -0.0047
  593DPPI   C4A 9378   9.350  15.990   8.789 -0.1771  0.0013 -0.0950
  593DPPI   C1B 9379   8.867  16.341   9.914  0.1471  0.0885 -0.1775
  593DPPI   C2B 9380   9.027  16.427   9.513 -0.1741  0.1076 -0.1247
  593DPPI   C3B 9381   9.023  16.397   9.057  0.1607 -0.1543 -0.1600
  593DPPI   C4B 9382   8.980  16.546   8.656  0.1967 -0.3154 -0.1247
  594PYPI    C1 9383   1.485  10.209  10.533 -0.0381 -0.2262 -0.0594
  594PYPI    C2 9384   1.241  10.202  10.849  0.0342 -0.0958 -0.0001
  594PYPI    C3 9385   1.564   9.967  10.841  0.0181 -0.1184  0.0114
  594PYPI   PO4 9386   1.595  10.432  10.512  0.3677  0.1187  0.0628
  594PYPI   GL1 9387   1.853  10.709  10.219  0.2507 -0.0314  0.2191
  594PYPI   GL2 9388   1.975  10.974  10.195  0.2455  0.2542  0.3709
  594PYPI   C1A 9389   2.111  10.787   9.808 -0.2591 -0.1212  0.0810
  594PYPI   C2A 9390   2.040  10.828   9.377 -0.3136  0.2701  0.1286
  594PYPI   D3A 9391   2.078  10.623   9.006 -0.0579 -0.2833  0.2322
  594PYPI   C4A 9392   2.310  10.302   8.996 -0.1064  0.0788  0.0616
  594PYPI   C1B 9393   1.850  11.263   9.806 -0.1695 -0.1425  0.0640
  594PYPI   C2B 9394   1.848  11.389   9.367  0.0072  0.0339 -0.1190
  594PYPI   C3B 9395   1.797  11.463   8.938 -0.3870 -0.1137  0.0305
  594PYPI   C4B 9396   1.768  11.551   8.481  0.1454 -0.0709  0.0047
  595PYPI    C1 9397  12.785   9.379  10.987 -0.2181 -0.2620  0.1332
  595PYPI    C2 9398  13.043   9.315  11.286  0.0168  0.1118  0.0184
  595PYPI    C3 9399  12.703   9.516  11.354  0.0122  0.0907  0.0584
  595PYPI   PO4 9400  12.868   9.502  10.813 -0.0694 -0.1345  0.3959
  595PYPI   GL1 9401  12.986   9.573  10.405 -0.0418 -0.0292 -0.0536
  595PYPI   GL2 9402  13.233   9.349  10.284  0.2135 -0.0943 -0.0888
  595PYPI   C1A 9403  12.909   9.588  10.004 -0.0119 -0.2057 -0.1072
  595PYPI   C2A 9404  12.836   9.657   9.622 -0.3377  0.1538 -0.0465
  595PYPI   D3A 9405  12.902   9.711   9.313 -0.2485 -0.1263 -0.1914
  595PYPI   C4A 9406  12.844   9.569   8.895 -0.1875  0.0650 -0.0415
  595PYPI   C1B 9407  13.328   9.201  10.051 -0.0276  0.1426 -0.4223
  595PYPI   C2B 9408  13.190   9.240   9.556 -0.0114 -0.2187  0.0566
  595PYPI   C3B 9409  13.221   9.304   9.101  0.2092  0.0105 -0.1990
  595PYPI   C4B 9410  13.338   9.349   8.640  0.1396 -0.2560 -0.2496
  596PYPI    C1 9411   8.306  10.322  10.988  0.1509  0.1416 -0.1667
  596PYPI    C2 9412   8.161  10.521  11.303 -0.0117 -0.1026 -0.0841
  596PYPI    C3 9413   8.356  10.176  11.357 -0.1074 -0.1846 -0.2562
  596PYPI   PO4 9414   8.374  10.446  10.851  0.1646 -0.0176 -0.2555
  596PYPI   GL1 9415   8.322  10.384  10.402 -0.3106 -0.0775  0.0854
  596PYPI   GL2 9416   8.026  10.589  10.362 -0.0204 -0.3105 -0.0067
  596PYPI   C1A 9417   8.478  10.405   9.937  0.0333  0.0603 -0.1223
  596PYPI   C2A 9418   8.473  10.532   9.458  0.3623  0.2797 -0.0808
  596PYPI   D3A 9419   8.372  10.369   9.062  0.1847 -0.0719 -0.3759
  596PYPI   C4A 9420   8.274  10.460   8.590 -0.1534  0.0068 -0.0301
  596PYPI   C1B 9421   8.023  10.756   9.929  0.0933  0.0334 -0.1089
  596PYPI   C2B 9422   8.069  10.821   9.480  0.1238  0.1072 -0.2380
  596PYPI   C3B 9423   7.999  10.713   9.014 -0.0294  0.1062 -0.1130
  596PYPI   C4B 9424   7.832  10.845   8.684  0.0029 -0.1074  0.0347
  597PYPI    C1 9425   1.285   9.087  10.893  0.2404 -0.0698 -0.1465
  597PYPI    C2 9426   1.299   8.687  10.886  0.0817 -0.0755 -0.1745
  597PYPI    C3 9427   1.533   8.891  11.139 -0.0110 -0.1961  0.0106
  597PYPI   PO4 9428   1.275   9.162  10.648  0.0189 -0.1440  0.2055
  597PYPI   GL1 9429   1.425   9.240  10.276 -0.0236  0.0119 -0.2430
  597PYPI   GL2 9430   1.735   9.276  10.155 -0.1643 -0.0225 -0.3885
  597PYPI   C1A 9431   1.373   8.991   9.904 -0.0373  0.1423  0.0621
  597PYPI   C2A 9432   1.540   9.002   9.492  0.1386  0.0784  0.0404
  597PYPI   D3A 9433   1.473   9.173   9.114  0.0424  0.0486  0.0931
  597PYPI   C4A 9434   1.601   9.090   8.818 -0.2105 -0.0360  0.0619
  597PYPI   C1B 9435   2.044   9.238   9.746  0.0770  0.1412  0.0282
  597PYPI   C2B 9436   1.975   9.235   9.351 -0.2365 -0.1192 -0.1596
  597PYPI   C3B 9437   2.086   9.224   8.916 -0.0273 -0.1277  0.1023
  597PYPI   C4B 9438   2.100   9.184   8.420  0.1073  0.2388 -0.2888
  598PYPI    C1 9439   7.710   9.222  10.807 -0.3194 -0.0965  0.0214
  598PYPI    C2 9440   7.571   8.848  10.833 -0.1142 -0.1826 -0.0960
  598PYPI    C3 9441   7.569   9.084  11.156 -0.2782 -0.2716 -0.0302
  598PYPI   PO4 9442   7.648   9.301  10.662 -0.1064 -0.3377 -0.0249
  598PYPI   GL1 9443   7.765   9.306  10.250 -0.0591 -0.2486  0.3102
  598PYPI   GL2 9444   7.646   8.897  10.378 -0.0758  0.2261 -0.1168
  598PYPI   C1A 9445   7.748   9.256   9.810  0.1663 -0.2194 -0.1714
  598PYPI   C2A 9446   7.751   9.229   9.327 -0.2315 -0.0677  0.4416
  598PYPI   D3A 9447   7.736   9.247   8.826 -0.2116  0.0469  0.0704
  598PYPI   C4A 9448   7.815   9.163   8.405  0.0860 -0.2901 -0.1095
  598PYPI   C1B 9449   7.612   8.732   9.985  0.0676  0.0844  0.2211
  598PYPI   C2B 9450   7.613   8.724   9.481  0.2585  0.2119  0.2029
  598PYPI   C3B 9451   7.658   8.743   9.037 -0.1554 -0.1698  0.1495
  598PYPI   C4B 9452   7.643   8.718   8.541 -0.1004 -0.0531  0.0935
  599PYPI    C1 9453   6.333   8.787  10.932 -0.0784 -0.0384  0.1206
  599PYPI    C2 9454   6.634   8.591  11.108  0.1280  0.1892  0.0268
  599PYPI    C3 9455   6.257   8.517  11.217  0.1966 -0.2940 -0.0425
  599PYPI   PO4 9456   6.398   8.719  10.673 -0.1126  0.0102  0.1270
  599PYPI   GL1 9457   6.455   9.016  10.316  0.1395  0.1734  0.0445
  599PYPI   GL2 9458   6.769   8.871  10.226 -0.1789  0.0802 -0.1261
  599PYPI   C1A 9459   6.349   9.162   9.955 -0.0151  0.2413  0.3621
  599PYPI   C2A 9460   6.297   9.300   9.528 -0.2440 -0.0464 -0.0341
  599PYPI   D3A 9461   6.258   9.204   9.102 -0.1487 -0.1244 -0.0748
  599PYPI   C4A 9462   6.118   9.242   8.618  0.0626  0.1517 -0.0211
  599PYPI   C1B 9463   6.790   8.904   9.738 -0.0556  0.1284 -0.1182
  599PYPI   C2B 9464   6.719   8.958   9.351  0.0971  0.1905  0.2562
  599PYPI   C3B 9465   6.636   8.894   9.032  0.2702 -0.2181  0.2382
  599PYPI   C4B 9466   6.527   8.802   8.537 -0.0774  0.0374  0.0535
  600PYPI    C1 9467   6.864  15.273  11.158 -0.1454 -0.0224 -0.0930
  600PYPI    C2 9468   6.969  15.525  11.451 -0.2898  0.0514 -0.1041
  600PYPI    C3 9469   6.585  15.421  11.403 -0.2686  0.0476 -0.2734
  600PYPI   PO4 9470   6.992  15.317  10.997  0.1231  0.2815 -0.0799
  600PYPI   GL1 9471   7.135  15.739  10.742  0.1751  0.2243 -0.1101
  600PYPI   GL2 9472   6.953  15.631  10.513  0.1193  0.0725 -0.2222
  600PYPI   C1A 9473   7.421  15.821  10.320  0.0597  0.1178 -0.0441
  600PYPI   C2A 9474   7.494  15.857   9.862 -0.1108 -0.0026 -0.1281
  600PYPI   D3A 9475   7.481  15.837   9.440 -0.1639 -0.0930  0.0221
  600PYPI   C4A 9476   7.549  15.974   9.055 -0.2298 -0.0179 -0.0413
  600PYPI   C1B 9477   6.932  15.631  10.072 -0.1951  0.3840 -0.1767
  600PYPI   C2B 9478   7.028  15.766   9.583  0.0596  0.0768  0.0728
  600PYPI   C3B 9479   7.093  15.747   9.073  0.1093  0.0514 -0.1006
  600PYPI   C4B 9480   7.184  15.685   8.740  0.0124  0.3490 -0.1691
  601PYPI    C1 9481   7.541  16.356  10.854 -0.0332 -0.2245 -0.1379
  601PYPI    C2 9482   7.380  16.068  11.079 -0.3915  0.1172  0.0557
  601PYPI    C3 9483   7.668  16.302  11.229 -0.2801  0.0263 -0.0146
  601PYPI   PO4 9484   7.272  16.512  10.801 -0.2537  0.2140 -0.3618
  601PYPI   GL1 9485   7.126  16.633  10.384 -0.0828  0.1901  0.1167
  601PYPI   GL2 9486   7.102  16.342  10.385  0.2404  0.2735 -0.0507
  601PYPI   C1A 9487   7.199  16.750  10.021  0.0753  0.0160 -0.0014
  601PYPI   C2A 9488   7.248  16.747   9.520  0.0378 -0.0125  0.2975
  601PYPI   D3A 9489   7.226  16.769   9.110 -0.0070  0.0039 -0.1886
  601PYPI   C4A 9490   7.225  16.955   8.665 -0.0361 -0.2886 -0.2863
  601PYPI   C1B 9491   7.091  16.134  10.010  0.3685  0.1972  0.0773
  601PYPI   C2B 9492   7.206  16.257   9.561 -0.3288 -0.1114  0.0577
  601PYPI   C3B 9493   7.178  16.221   9.197 -0.0430 -0.0895  0.0035
  601PYPI   C4B 9494   7.133  16.271   8.864  0.2414  0.0451 -0.0123
  602PYPI    C1 9495  11.106  16.962  11.104  0.0271  0.1026  0.0476
  602PYPI    C2 9496  11.261  16.613  10.986  0.0597  0.0792  0.1586
  602PYPI    C3 9497  11.289  16.725  11.369 -0.1276  0.1114  0.1637
  602PYPI   PO4 9498  10.904  16.989  10.883  0.0027  0.0272 -0.1741
  602PYPI   GL1 9499  10.873  16.841  10.436  0.2338  0.1541 -0.3184
  602PYPI   GL2 9500  10.880  16.548  10.627 -0.3570 -0.3144 -0.0019
  602PYPI   C1A 9501  10.910  16.947   9.986 -0.2234  0.4356  0.2684
  602PYPI   C2A 9502  10.907  17.038   9.579 -0.0768 -0.2471 -0.0216
  602PYPI   D3A 9503  10.862  16.964   9.170 -0.0690  0.1733  0.1478
  602PYPI   C4A 9504  10.938  17.110   8.804 -0.1544 -0.2200 -0.2407
  602PYPI   C1B 9505  10.752  16.429  10.219  0.1049  0.2613 -0.2236
  602PYPI   C2B 9506  10.815  16.526   9.778 -0.0831  0.0899 -0.1088
  602PYPI   C3B 9507  10.874  16.541   9.376 -0.4537  0.0288  0.1371
  602PYPI   C4B 9508  10.896  16.565   8.845 -0.1204  0.1354 -0.0880
  603PYPI    C1 9509  10.397  13.270  11.255 -0.0361 -0.0362  0.1332
  603PYPI    C2 9510  10.130  13.016  11.412 -0.0765 -0.1847 -0.1674
  603PYPI    C3 9511  10.485  13.069  11.590 -0.0566 -0.4741 -0.1154
  603PYPI   PO4 9512  10.389  13.223  11.042  0.1838  0.2982  0.1902
  603PYPI   GL1 9513  10.613  13.196  10.701 -0.0111 -0.2136  0.1868
  603PYPI   GL2 9514  10.621  13.530  10.656 -0.4957 -0.2571  0.2214
  603PYPI   C1A 9515  10.689  13.140  10.325  0.0989 -0.2167 -0.0476
  603PYPI   C2A 9516  10.681  13.197   9.962  0.0991 -0.0249 -0.2470
  603PYPI   D3A 9517  10.753  13.130   9.584 -0.0125 -0.0513  0.1554
  603PYPI   C4A 9518  10.618  13.206   9.140 -0.0076 -0.2784 -0.0453
  603PYPI   C1B 9519  10.775  13.683  10.216  0.0381 -0.1593 -0.0980
  603PYPI   C2B 9520  10.855  13.669   9.775 -0.1499 -0.0897 -0.3543
  603PYPI   C3B 9521  10.746  13.646   9.365  0.0563  0.3052  0.2795
  603PYPI   C4B 9522  10.814  13.656   8.997 -0.0930  0.2958 -0.2795
  604PYPI    C1 9523   3.003   3.931  10.952  0.1229  0.0280 -0.0874
  604PYPI    C2 9524   3.020   3.754  11.311  0.0308  0.1292 -0.0326
  604PYPI    C3 9525   2.753   4.045  11.243 -0.1540 -0.0919 -0.2743
  604PYPI   PO4 9526   3.087   3.779  10.787  0.0883 -0.0648  0.0793
  604PYPI   GL1 9527   3.292   3.819  10.478 -0.1124  0.2964  0.0399
  604PYPI   GL2 9528   3.508   3.909  10.287 -0.2486 -0.2025  0.1906
  604PYPI   C1A 9529   3.053   3.710  10.029 -0.1658  0.0476 -0.1696
  604PYPI   C2A 9530   3.158   3.662   9.583  0.0303 -0.3139  0.0264
  604PYPI   D3A 9531   3.015   3.769   9.138 -0.1120  0.1344  0.2928
  604PYPI   C4A 9532   3.004   3.656   8.719  0.0815  0.0452 -0.3785
  604PYPI   C1B 9533   3.614   3.830   9.856 -0.0049  0.1657 -0.2476
  604PYPI   C2B 9534   3.592   3.851   9.452 -0.0233 -0.2006  0.0151
  604PYPI   C3B 9535   3.550   3.861   9.034 -0.0689  0.1614  0.2026
  604PYPI   C4B 9536   3.509   3.806   8.573 -0.2304  0.0792  0.3528
  605PYPI    C1 9537   2.258  17.077  11.743  0.2227 -0.2826 -0.0696
  605PYPI    C2 9538   1.947  16.885  11.905 -0.1081  0.0650 -0.2759
  605PYPI    C3 9539   2.197  17.092  12.138  0.1174 -0.4125 -0.0801
  605PYPI   PO4 9540   2.183  17.005  11.439  0.0640  0.0011  0.0748
  605PYPI   GL1 9541   2.357  16.974  11.072 -0.1452 -0.0731  0.2429
  605PYPI   GL2 9542   2.041  16.694  11.054  0.0532  0.0968 -0.2062
  605PYPI   C1A 9543   2.682  16.960  10.667 -0.3779  0.1010 -0.1695
  605PYPI   C2A 9544   2.566  17.032  10.266 -0.0166  0.3192 -0.0958
  605PYPI   D3A 9545   2.732  16.908   9.956 -0.2535 -0.1669  0.2345
  605PYPI   C4A 9546   2.670  16.864   9.495 -0.1717  0.1650  0.0943
  605PYPI   C1B 9547   2.213  16.749  10.549  0.0382 -0.0550  0.0810
  605PYPI   C2B 9548   2.157  16.850  10.141  0.1109 -0.0389 -0.2390
  605PYPI   C3B 9549   2.197  16.739   9.720 -0.4860  0.0145  0.0701
  605PYPI   C4B 9550   2.204  16.795   9.280  0.1311 -0.0898  0.0701
  606PYPI    C1 9551  15.258   0.658  11.513  0.0326 -0.1152 -0.0248
  606PYPI    C2 9552  15.556   0.432  11.656  0.1488 -0.0490 -0.1606
  606PYPI    C3 9553  15.529   0.817  11.760 -0.1544 -0.1663  0.2175
  606PYPI   PO4 9554  15.255   0.519  11.241 -0.0619  0.0231 -0.0006
  606PYPI   GL1 9555  15.425   0.744  10.809 -0.2391  0.0581  0.2334
  606PYPI   GL2 9556  15.522   0.526  10.777  0.2475  0.1581  0.1297
  606PYPI   C1A 9557  15.528   0.828  10.286 -0.0613 -0.3109  0.0878
  606PYPI   C2A 9558  15.536   0.803   9.869  0.2026  0.1924  0.0889
  606PYPI   D3A 9559  15.570   0.835   9.421 -0.2251 -0.1123 -0.3066
  606PYPI   C4A 9560  15.586   0.854   9.019  0.2148 -0.1234  0.2075
  606PYPI   C1B 9561  15.534   0.326  10.398 -0.1746  0.0229  0.3000
  606PYPI   C2B 9562  15.472   0.282   9.949  0.2419 -0.1531  0.4661
  606PYPI   C3B 9563  15.495   0.379   9.519  0.1708  0.0884  0.1172
  606PYPI   C4B 9564  15.530   0.328   9.049 -0.1311  0.0072  0.2472
  607ERGO   ROH 9565   2.406   7.030   9.970  0.1077  0.0683 -0.0055
  607ERGO    R1 9566   2.561   7.013   9.733  0.0735  0.2163 -0.0388
  607ERGO    R2 9567   2.503   6.836   9.530  0.2846  0.0540  0.0426
  607ERGO    R3 9568   2.505   7.060   9.377 -0.0913  0.0069 -0.0433
  607ERGO    R4 9569   2.519   6.838   9.185  0.3439 -0.0545  0.0436
  607ERGO    R5 9570   2.656   7.008   9.198  0.0422  0.2039  0.0060
  607ERGO    C1 9571   2.531   7.051   8.840  0.0256 -0.1620 -0.0365
  607ERGO    C2 9572   2.498   6.870   8.546 -0.5396 -0.0842 -0.1440
  608ERGO   ROH 9573  13.055  11.111  10.428  0.0256  0.1175 -0.0352
  608ERGO    R1 9574  12.972  11.194  10.171  0.1920  0.2382 -0.0507
  608ERGO    R2 9575  13.148  11.292   9.982  0.3870 -0.1182 -0.0529
  608ERGO    R3 9576  13.039  11.097   9.827  0.0264  0.0602 -0.0359
  608ERGO    R4 9577  13.160  11.283   9.636  0.3131 -0.1252 -0.0563
  608ERGO    R5 9578  12.954  11.213   9.636  0.1828  0.2169 -0.0185
  608ERGO    C1 9579  13.064  11.095   9.290 -0.0685  0.0383 -0.0421
  608ERGO    C2 9580  13.040  11.080   8.900  0.3682  0.2177 -0.2184
  609ERGO   ROH 9581   3.045   1.563  10.830 -0.1541 -0.3746  0.1718
  609ERGO    R1 9582   3.006   1.383  10.616 -0.0549 -0.2795  0.0739
  609ERGO    R2 9583   2.823   1.428  10.414 -0.0092 -0.2253  0.0522
  609ERGO    R3 9584   3.039   1.391  10.254  0.0377 -0.0998  0.0838
  609ERGO    R4 9585   2.815   1.421  10.068  0.0190 -0.3162  0.0523
  609ERGO    R5 9586   2.958   1.258  10.073  0.1496 -0.2116  0.1084
  609ERGO    C1 9587   3.014   1.383   9.717  0.0796 -0.2513  0.0819
  609ERGO    C2 9588   3.049   1.417   9.362 -0.0576  0.1193  0.0670
  610ERGO   ROH 9589  11.098   2.647  10.258 -0.1679 -0.0577  0.0950
  610ERGO    R1 9590  11.158   2.498  10.024 -0.0472  0.0358  0.0661
  610ERGO    R2 9591  10.969   2.345   9.893  0.0534 -0.0136 -0.0181
  610ERGO    R3 9592  11.046   2.493   9.678  0.0330  0.0809  0.0386
  610ERGO    R4 9593  10.968   2.234   9.566  0.1133  0.0940 -0.0559
  610ERGO    R5 9594  11.157   2.337   9.535  0.0899  0.1575 -0.0040
  610ERGO    C1 9595  11.039   2.308   9.174  0.1292  0.2452 -0.0248
  610ERGO    C2 9596  10.994   2.277   8.823  0.1758 -0.1566  0.0342
  611ERGO   ROH 9597   0.324  10.042   9.943 -0.3352  0.1711 -0.0178
  611ERGO    R1 9598   0.228  10.113   9.686 -0.1021  0.1988 -0.1007
  611ERGO    R2 9599   0.385  10.242   9.499  0.1012  0.1362  0.0160
  611ERGO    R3 9600   0.311  10.033   9.341  0.1507  0.1541 -0.0292
  611ERGO    R4 9601   0.417  10.234   9.155  0.3546  0.0989  0.0394
  611ERGO    R5 9602   0.222  10.136   9.144  0.3345  0.1664 -0.1023
  611ERGO    C1 9603   0.367  10.034   8.807  0.5485  0.0940  0.0108
  611ERGO    C2 9604   0.485  10.140   8.520 -0.1332 -0.0555  0.2899
  612ERGO   ROH 9605   5.481   0.673  10.868  0.0952 -0.0960  0.1286
  612ERGO    R1 9606   5.535   0.857  10.660  0.1077 -0.1155  0.1160
  612ERGO    R2 9607   5.762   0.840  10.502  0.0476 -0.2092  0.0468
  612ERGO    R3 9608   5.580   0.842  10.300 -0.0131 -0.1246  0.0999
  612ERGO    R4 9609   5.839   0.873  10.167 -0.0479 -0.0536  0.0380
  612ERGO    R5 9610   5.666   1.002  10.144 -0.0626 -0.0478  0.1473
  612ERGO    C1 9611   5.713   0.894   9.781 -0.1606  0.1164  0.0827
  612ERGO    C2 9612   5.701   0.834   9.415 -0.1783  0.0238 -0.0239
  613ERGO   ROH 9613   3.590   8.508  10.150  0.0631 -0.1261  0.0752
  613ERGO    R1 9614   3.607   8.691   9.935  0.0180 -0.0990  0.0949
  613ERGO    R2 9615   3.840   8.732   9.792 -0.0029 -0.0570  0.0724
  613ERGO    R3 9616   3.681   8.674   9.579 -0.0221 -0.0493  0.0843
  613ERGO    R4 9617   3.924   8.790   9.461 -0.0022 -0.1190  0.0613
  613ERGO    R5 9618   3.719   8.855   9.426  0.0122 -0.0784  0.0592
  613ERGO    C1 9619   3.824   8.770   9.069 -0.0197 -0.1480  0.0660
  613ERGO    C2 9620   3.882   8.786   8.762 -0.1325 -0.3112  0.0130
  614ERGO   ROH 9621   6.758   6.030  10.454  0.0745  0.1678  0.0376
  614ERGO    R1 9622   6.781   5.909  10.199  0.0382  0.0787  0.0757
  614ERGO    R2 9623   6.565   5.878  10.029  0.0161  0.0369  0.1074
  614ERGO    R3 9624   6.727   6.009   9.854  0.0089 -0.0335  0.0481
  614ERGO    R4 9625   6.510   5.902   9.688 -0.1062  0.0821  0.1300
  614ERGO    R5 9626   6.724   5.873   9.657 -0.1349 -0.0198  0.0425
  614ERGO    C1 9627   6.630   6.039   9.326 -0.1842  0.0423  0.0877
  614ERGO    C2 9628   6.663   5.997   8.956  0.4000 -0.0177  0.1152
  615ERGO   ROH 9629   7.825  15.079  10.443 -0.1256  0.1859  0.0510
  615ERGO    R1 9630   7.852  14.957  10.189 -0.0071  0.0856  0.1094
  615ERGO    R2 9631   7.665  14.990   9.988  0.0739 -0.0107  0.0148
  615ERGO    R3 9632   7.881  15.070   9.844  0.1286 -0.0497  0.0758
  615ERGO    R4 9633   7.671  15.020   9.644  0.1813 -0.0319  0.0154
  615ERGO    R5 9634   7.872  14.935   9.646  0.1689 -0.0598  0.0813
  615ERGO    C1 9635   7.878  15.112   9.308  0.2951 -0.0806  0.0731
  615ERGO    C2 9636   7.854  15.117   9.008  0.1261  0.2688  0.1394
  616ERGO   ROH 9637  16.612   7.829  10.049  0.0131 -0.2591  0.0180
  616ERGO    R1 9638  16.614   8.022   9.842 -0.2205 -0.2421  0.0296
  616ERGO    R2 9639  16.833   8.063   9.679 -0.2019  0.1516  0.1453
  616ERGO    R3 9640  16.653   8.021   9.480 -0.0309 -0.1599  0.0478
  616ERGO    R4 9641  16.902   8.086   9.341 -0.0547  0.2573  0.1812
  616ERGO    R5 9642  16.709   8.183   9.313 -0.2103 -0.0645  0.0756
  616ERGO    C1 9643  16.773   8.060   8.958  0.1916  0.0263  0.1108
  616ERGO    C2 9644  16.750   8.052   8.639 -0.3340 -0.0176  0.2416
  617ERGO   ROH 9645   3.315   5.321  10.185  0.0082  0.1262  0.0366
  617ERGO    R1 9646   3.358   5.203   9.932  0.0390  0.1456  0.0333
  617ERGO    R2 9647   3.151   5.120   9.768  0.0633 -0.0426  0.0986
  617ERGO    R3 9648   3.274   5.279   9.586 -0.1233  0.0506  0.0502
  617ERGO    R4 9649   3.107   5.100   9.426 -0.0974 -0.0362  0.1176
  617ERGO    R5 9650   3.320   5.134   9.402 -0.1280  0.0948  0.0129
  617ERGO    C1 9651   3.197   5.238   9.056 -0.3662  0.0549  0.0831
  617ERGO    C2 9652   3.234   5.116   8.729  0.1233 -0.0238 -0.2496
  618ERGO   ROH 9653   5.587   2.418  10.742 -0.0305 -0.0915 -0.0127
  618ERGO    R1 9654   5.576   2.248  10.517 -0.3142 -0.0449 -0.0381
  618ERGO    R2 9655   5.365   2.250  10.338 -0.2966  0.3654 -0.0674
  618ERGO    R3 9656   5.563   2.288  10.155 -0.1969  0.0353 -0.0332
  618ERGO    R4 9657   5.321   2.244   9.996 -0.1745  0.1143 -0.0798
  618ERGO    R5 9658   5.510   2.136   9.978 -0.2646 -0.0674  0.0770
  618ERGO    C1 9659   5.481   2.275   9.624 -0.0099 -0.3418 -0.0549
  618ERGO    C2 9660   5.466   2.296   9.289  0.0572 -0.0854  0.0103
  619ERGO   ROH 9661   1.368   2.986  10.789  0.0605 -0.1265  0.0352
  619ERGO    R1 9662   1.477   2.851  10.566  0.1770  0.0689 -0.0275
  619ERGO    R2 9663   1.326   2.687  10.403  0.3729 -0.1912  0.0599
  619ERGO    R3 9664   1.423   2.847  10.206 -0.0149 -0.0188 -0.0018
  619ERGO    R4 9665   1.337   2.601  10.068  0.8057 -0.4361  0.1285
  619ERGO    R5 9666   1.534   2.695  10.056  0.5482  0.1843  0.1715
  619ERGO    C1 9667   1.434   2.701   9.688  0.6938 -0.4170  0.1103
  619ERGO    C2 9668   1.382   2.792   9.304  0.1606  0.3630 -0.0795
  620ERGO   ROH 9669  17.532   8.555  10.053  0.1183  0.1866 -0.0866
  620ERGO    R1 9670  17.662   8.645   9.819  0.1402  0.1166 -0.1001
  620ERGO    R2 9671  17.810   8.478   9.657  0.0511  0.0459 -0.0979
  620ERGO    R3 9672  17.646   8.574   9.463  0.0847  0.1084 -0.0978
  620ERGO    R4 9673  17.864   8.443   9.317 -0.0398 -0.1276 -0.0969
  620ERGO    R5 9674  17.794   8.648   9.290  0.1169 -0.0737 -0.1570
  620ERGO    C1 9675  17.741   8.514   8.937 -0.0612 -0.1702 -0.0963
  620ERGO    C2 9676  17.702   8.433   8.629 -0.1866  0.0364  0.0270
  621ERGO   ROH 9677  13.100   3.377  10.021  0.1834  0.0468 -0.0080
  621ERGO    R1 9678  13.209   3.443   9.769  0.0892  0.0728 -0.0424
  621ERGO    R2 9679  13.286   3.250   9.586  0.0445  0.0922 -0.0800
  621ERGO    R3 9680  13.120   3.388   9.420 -0.0259  0.0853 -0.0160
  621ERGO    R4 9681  13.292   3.233   9.241 -0.0537  0.1268 -0.0836
  621ERGO    R5 9682  13.258   3.448   9.234 -0.0879  0.1244 -0.0514
  621ERGO    C1 9683  13.139   3.352   8.884 -0.1771  0.1404 -0.0257
  621ERGO    C2 9684  12.966   3.326   8.538  0.3075  0.1335 -0.2259
  622ERGO   ROH 9685   5.675  13.638  10.432  0.1147 -0.1340 -0.2070
  622ERGO    R1 9686   5.705  13.780  10.189 -0.0013 -0.0530 -0.1748
  622ERGO    R2 9687   5.886  13.705   9.994 -0.0277  0.0667 -0.2461
  622ERGO    R3 9688   5.666  13.709   9.834 -0.0726  0.0361 -0.1854
  622ERGO    R4 9689   5.893  13.733   9.650 -0.1171 -0.1275 -0.2649
  622ERGO    R5 9690   5.721  13.866   9.662 -0.0784 -0.0738 -0.2894
  622ERGO    C1 9691   5.691  13.753   9.299 -0.2113 -0.2693 -0.2190
  622ERGO    C2 9692   5.684  13.802   8.958 -0.0615 -0.3056 -0.3062
  623ERGO   ROH 9693  12.814   3.752  10.146 -0.0818 -0.0881 -0.1252
  623ERGO    R1 9694  12.891   3.742   9.874 -0.1316 -0.1136 -0.1385
  623ERGO    R2 9695  12.768   3.577   9.691 -0.1919 -0.1004 -0.1091
  623ERGO    R3 9696  12.735   3.809   9.552 -0.1765 -0.1015 -0.1145
  623ERGO    R4 9697  12.747   3.600   9.346 -0.1350 -0.1043 -0.1129
  623ERGO    R5 9698  12.869   3.780   9.356 -0.1418 -0.0991 -0.0924
  623ERGO    C1 9699  12.703   3.830   9.016 -0.0875 -0.1077 -0.1200
  623ERGO    C2 9700  12.708   3.772   8.656 -0.0932  0.0969 -0.2176
  624ERGO   ROH 9701  10.929   3.704  10.079  0.0352 -0.1078  0.0016
  624ERGO    R1 9702  10.843   3.863   9.861 -0.2171 -0.2233  0.0113
  624ERGO    R2 9703  11.014   4.030   9.722 -0.4987  0.1863  0.1208
  624ERGO    R3 9704  10.921   3.891   9.507 -0.1259  0.0329  0.0518
  624ERGO    R4 9705  11.019   4.144   9.396 -0.1972  0.0579  0.0785
  624ERGO    R5 9706  10.821   4.059   9.368 -0.0905 -0.1074 -0.1357
  624ERGO    C1 9707  10.935   4.081   9.004  0.3283 -0.1607 -0.0110
  624ERGO    C2 9708  10.959   4.091   8.649 -0.0994 -0.0246 -0.1642
  625ERGO   ROH 9709   5.418  12.661  10.425  0.1683 -0.1153 -0.0501
  625ERGO    R1 9710   5.574  12.739  10.202  0.2185 -0.3080 -0.0844
  625ERGO    R2 9711   5.617  12.573   9.985 -0.1425 -0.3198 -0.1547
  625ERGO    R3 9712   5.521  12.785   9.845  0.1568 -0.1082 -0.0510
  625ERGO    R4 9713   5.636  12.605   9.642 -0.0888 -0.1750 -0.1381
  625ERGO    R5 9714   5.682  12.817   9.670  0.2105 -0.2479 -0.0297
  625ERGO    C1 9715   5.556  12.823   9.310  0.2235  0.1080 -0.0313
  625ERGO    C2 9716   5.569  12.824   9.018  0.2354 -0.0868  0.4357
  626ERGO   ROH 9717   7.735   6.828  10.350 -0.1291  0.1204 -0.0987
  626ERGO    R1 9718   7.817   6.919  10.095  0.2045 -0.1046 -0.0796
  626ERGO    R2 9719   7.926   6.751   9.905 -0.2244 -0.4370 -0.0580
  626ERGO    R3 9720   7.727   6.851   9.749  0.0812  0.1500 -0.0985
  626ERGO    R4 9721   7.915   6.730   9.560 -0.2069 -0.3573 -0.0626
  626ERGO    R5 9722   7.839   6.934   9.555  0.3639 -0.1337 -0.0596
  626ERGO    C1 9723   7.721   6.812   9.213  0.0902  0.2401 -0.1032
  626ERGO    C2 9724   7.624   6.807   8.824 -0.0244 -0.1720 -0.1440
  627ERGO   ROH 9725  16.874   9.107   9.831  0.1962 -0.3651 -0.0673
  627ERGO    R1 9726  16.808   9.149   9.559  0.1336 -0.3988 -0.0571
  627ERGO    R2 9727  16.954   9.317   9.395 -0.1327 -0.1162 -0.0092
  627ERGO    R3 9728  16.970   9.096   9.237  0.2300 -0.0529 -0.0698
  627ERGO    R4 9729  16.982   9.322   9.050 -0.2104  0.0277 -0.0149
  627ERGO    R5 9730  16.845   9.153   9.042  0.0832 -0.2224 -0.0288
  627ERGO    C1 9731  17.014   9.117   8.702  0.0850  0.1708 -0.0752
  627ERGO    C2 9732  16.976   9.117   8.334  0.3201  0.2117 -0.2205
  628ERGO   ROH 9733   4.673  15.349  10.429  0.0986 -0.2903 -0.0125
  628ERGO    R1 9734   4.712  15.250  10.166  0.0135 -0.2263 -0.0490
  628ERGO    R2 9735   4.521  15.275   9.968 -0.0215 -0.1144  0.0006
  628ERGO    R3 9736   4.725  15.389   9.830 -0.0183 -0.1345 -0.0129
  628ERGO    R4 9737   4.546  15.283   9.624 -0.0223 -0.1504 -0.0011
  628ERGO    R5 9738   4.759  15.243   9.643 -0.0231 -0.1551  0.0018
  628ERGO    C1 9739   4.752  15.395   9.293 -0.0198 -0.1905 -0.0148
  628ERGO    C2 9740   4.774  15.343   8.843 -0.1324  0.4349 -0.0005
  629ERGO   ROH 9741   0.977   1.819  10.832 -0.0240  0.0364  0.0816
  629ERGO    R1 9742   1.142   1.798  10.603 -0.0916 -0.0308  0.0392
  629ERGO    R2 9743   1.141   1.576  10.439 -0.1613 -0.0645  0.0913
  629ERGO    R3 9744   1.094   1.761  10.245 -0.1952 -0.1054  0.0593
  629ERGO    R4 9745   1.210   1.531  10.103 -0.2960 -0.1760  0.0773
  629ERGO    R5 9746   1.280   1.737  10.095 -0.2525 -0.1891 -0.0044
  629ERGO    C1 9747   1.205   1.678   9.725 -0.4061 -0.2792  0.0392
  629ERGO    C2 9748   1.211   1.493   9.447  0.1653 -0.0247 -0.0006
  630ERGO   ROH 9749  15.425   6.268  10.284  0.0636  0.0553  0.0207
  630ERGO    R1 9750  15.521   6.199  10.027  0.1438  0.1036  0.0376
  630ERGO    R2 9751  15.386   6.026   9.859  0.2962 -0.0212  0.0421
  630ERGO    R3 9752  15.404   6.234   9.684  0.1506 -0.0238  0.0220
  630ERGO    R4 9753  15.386   5.995   9.515  0.2662 -0.0488  0.0443
  630ERGO    R5 9754  15.539   6.149   9.505  0.1756  0.0408  0.0100
  630ERGO    C1 9755  15.403   6.171   9.150  0.1121 -0.0673  0.0268
  630ERGO    C2 9756  15.474   6.215   8.800  0.2615  0.2131  0.0576
  631ERGO   ROH 9757  14.671  15.533  10.324  0.1231 -0.1931  0.0333
  631ERGO    R1 9758  14.629  15.653  10.071  0.0302 -0.1256  0.0806
  631ERGO    R2 9759  14.836  15.706   9.895 -0.0210  0.0178  0.0624
  631ERGO    R3 9760  14.683  15.561   9.723  0.0079  0.0117  0.0405
  631ERGO    R4 9761  14.819  15.758   9.554  0.0885 -0.0454  0.0461
  631ERGO    R5 9762  14.604  15.721   9.564  0.0813 -0.0078 -0.0136
  631ERGO    C1 9763  14.665  15.652   9.193  0.1793 -0.0879  0.0160
  631ERGO    C2 9764  14.775  15.591   8.892 -0.1937  0.0613  0.0711
  632ERGO   ROH 9765   3.604  13.814  10.755 -0.1753 -0.0987  0.0984
  632ERGO    R1 9766   3.477  13.790  10.503 -0.1497  0.0349  0.0723
  632ERGO    R2 9767   3.452  14.003  10.328  0.0829  0.0710  0.0794
  632ERGO    R3 9768   3.573  13.832  10.154 -0.0416 -0.0324  0.0931
  632ERGO    R4 9769   3.411  14.010   9.985  0.1934  0.1626  0.0677
  632ERGO    R5 9770   3.407  13.792   9.986 -0.0354  0.1649  0.0368
  632ERGO    C1 9771   3.501  13.854   9.622  0.1409  0.1188  0.0737
  632ERGO    C2 9772   3.538  13.957   9.287 -0.0817  0.0204  0.0361
  633ERGO   ROH 9773   7.208   9.489  10.375 -0.0863 -0.2893  0.0761
  633ERGO    R1 9774   7.230   9.626  10.128 -0.2002 -0.1029  0.1670
  633ERGO    R2 9775   7.425   9.566   9.941 -0.1604  0.1706  0.1126
  633ERGO    R3 9776   7.211   9.539   9.776 -0.1504  0.1210  0.1085
  633ERGO    R4 9777   7.440   9.563   9.596 -0.1492  0.0710  0.1139
  633ERGO    R5 9778   7.259   9.683   9.591 -0.1468  0.0656  0.0698
  633ERGO    C1 9779   7.247   9.536   9.239 -0.1333 -0.0333  0.1109
  633ERGO    C2 9780   7.175   9.495   8.893  0.0627 -0.1969  0.0122
  634ERGO   ROH 9781  15.591  10.210   9.638 -0.0495 -0.0041 -0.0472
  634ERGO    R1 9782  15.724  10.193   9.389  0.0174 -0.0929 -0.0071
  634ERGO    R2 9783  15.635  10.030   9.183 -0.0529 -0.0051 -0.0516
  634ERGO    R3 9784  15.642  10.261   9.041  0.1822  0.0041 -0.0271
  634ERGO    R4 9785  15.664  10.050   8.840 -0.0995  0.0014 -0.0545
  634ERGO    R5 9786  15.799  10.219   8.866  0.0985 -0.1549 -0.0631
  634ERGO    C1 9787  15.688  10.279   8.506  0.0942  0.0137 -0.0330
  634ERGO    C2 9788  15.646  10.244   8.174  0.0473 -0.0874  0.1380
  635ERGO   ROH 9789  10.448  10.057  10.447  0.1895  0.1798 -0.0252
  635ERGO    R1 9790  10.306   9.960  10.222  0.2476  0.0410 -0.0032
  635ERGO    R2 9791  10.141  10.122  10.069 -0.0546 -0.1480  0.1111
  635ERGO    R3 9792  10.296  10.030   9.865  0.0114  0.1495  0.0228
  635ERGO    R4 9793  10.061  10.144   9.733 -0.1863 -0.1176  0.1439
  635ERGO    R5 9794  10.140   9.943   9.706  0.0819  0.0010  0.0350
  635ERGO    C1 9795  10.159  10.071   9.347 -0.2009  0.1793  0.0801
  635ERGO    C2 9796  10.081  10.075   8.960 -0.2896  0.1268  0.0952
  636ERGO   ROH 9797  14.840   4.995  10.064  0.2401  0.1217 -0.0688
  636ERGO    R1 9798  14.832   4.869   9.810  0.1593  0.1151 -0.0623
  636ERGO    R2 9799  14.652   4.942   9.613  0.1814  0.1937 -0.0478
  636ERGO    R3 9800  14.878   4.970   9.464  0.1818  0.0765 -0.0719
  636ERGO    R4 9801  14.661   4.946   9.268  0.1435  0.1668 -0.0499
  636ERGO    R5 9802  14.843   4.826   9.276  0.0904  0.0777 -0.0600
  636ERGO    C1 9803  14.877   4.975   8.926  0.1220  0.0410 -0.0738
  636ERGO    C2 9804  14.768   5.006   8.627 -0.2617  0.0219 -0.0513
  637ERGO   ROH 9805   3.043   8.259  10.201  0.2603 -0.0272  0.0559
  637ERGO    R1 9806   3.203   8.295   9.970  0.1014  0.0751 -0.0402
  637ERGO    R2 9807   3.246   8.093   9.786  0.1590  0.0874 -0.0390
  637ERGO    R3 9808   3.155   8.279   9.610 -0.0912 -0.0062 -0.0123
  637ERGO    R4 9809   3.266   8.066   9.442  0.3411  0.2278 -0.0411
  637ERGO    R5 9810   3.316   8.278   9.433 -0.0138  0.3240  0.0484
  637ERGO    C1 9811   3.192   8.225   9.077  0.2123  0.2218 -0.0173
  637ERGO    C2 9812   3.286   8.144   8.795  0.0826  0.0162 -0.0398
  638ERGO   ROH 9813  14.390  10.191  10.356  0.0567 -0.0626 -0.0876
  638ERGO    R1 9814  14.298  10.086  10.110 -0.1237  0.0607 -0.0751
  638ERGO    R2 9815  14.200  10.245   9.907  0.1444  0.2076 -0.0927
  638ERGO    R3 9816  14.389  10.118   9.759 -0.0672 -0.1324 -0.0797
  638ERGO    R4 9817  14.220  10.255   9.562  0.3084  0.3616 -0.0804
  638ERGO    R5 9818  14.271  10.043   9.564 -0.1594  0.2355 -0.1742
  638ERGO    C1 9819  14.409  10.140   9.222  0.2055  0.1322 -0.0610
  638ERGO    C2 9820  14.357  10.133   8.879 -0.1566  0.1308  0.0817
  639ERGO   ROH 9821  11.844  10.135  10.261 -0.1951  0.1284 -0.0294
  639ERGO    R1 9822  11.884  10.307  10.039 -0.2818  0.1417 -0.0345
  639ERGO    R2 9823  12.098  10.279   9.866 -0.1382  0.3872  0.1025
  639ERGO    R3 9824  11.902  10.270   9.677 -0.0140  0.1006 -0.0199
  639ERGO    R4 9825  12.152  10.285   9.524  0.0772  0.3716  0.1344
  639ERGO    R5 9826  11.980  10.417   9.504 -0.0797  0.1593 -0.0041
  639ERGO    C1 9827  11.999  10.280   9.149  0.3192  0.0935  0.0382
  639ERGO    C2 9828  12.077  10.200   8.733 -0.1223 -0.2965  0.0587
  640ERGO   ROH 9829   1.397   8.027   9.732 -0.2412  0.0320  0.0601
  640ERGO    R1 9830   1.475   8.047   9.460 -0.2396  0.0566  0.0621
  640ERGO    R2 9831   1.431   7.843   9.277 -0.0791 -0.0010  0.0837
  640ERGO    R3 9832   1.309   8.041   9.137 -0.2190 -0.1067  0.0537
  640ERGO    R4 9833   1.448   7.885   8.934 -0.1437 -0.0585  0.0732
  640ERGO    R5 9834   1.465   8.099   8.965 -0.2754 -0.0430  0.0257
  640ERGO    C1 9835   1.344   8.096   8.604 -0.3127 -0.1911  0.0389
  640ERGO    C2 9836   1.322   8.054   8.271 -0.1611  0.1394  0.0653
  641ERGO   ROH 9837  11.796   8.250  10.074  0.1683 -0.2075 -0.2430
  641ERGO    R1 9838  11.702   8.165   9.821  0.1189 -0.0739 -0.2708
  641ERGO    R2 9839  11.619   8.341   9.626  0.0529  0.0293 -0.1520
  641ERGO    R3 9840  11.800   8.209   9.473  0.0331  0.1367 -0.2696
  641ERGO    R4 9841  11.626   8.347   9.281 -0.1705  0.0386 -0.1575
  641ERGO    R5 9842  11.674   8.133   9.284 -0.0443  0.0661 -0.1899
  641ERGO    C1 9843  11.800   8.225   8.936 -0.3190  0.1448 -0.2710
  641ERGO    C2 9844  11.796   8.277   8.547 -0.0573  0.2355  0.0833
  642ERGO   ROH 9845  16.034  14.537  10.579  0.0430 -0.0319 -0.0432
  642ERGO    R1 9846  15.886  14.567  10.339  0.0206 -0.0942 -0.0371
  642ERGO    R2 9847  15.930  14.775  10.162 -0.1365 -0.0233  0.0069
  642ERGO    R3 9848  15.959  14.573   9.982  0.0175  0.0356 -0.0364
  642ERGO    R4 9849  15.915  14.812   9.819  0.0648  0.0764  0.0069
  642ERGO    R5 9850  15.803  14.625   9.809  0.1107  0.0534 -0.1168
  642ERGO    C1 9851  15.933  14.644   9.450  0.3265  0.1896 -0.0338
  642ERGO    C2 9852  15.989  14.821   9.217  0.1122  0.0236  0.1620
  643ERGO   ROH 9853   0.696   3.588  10.476  0.1529 -0.0412  0.0261
  643ERGO    R1 9854   0.737   3.408  10.261  0.2000 -0.0212  0.0184
  643ERGO    R2 9855   0.533   3.330  10.093  0.2117 -0.1007  0.0420
  643ERGO    R3 9856   0.702   3.417   9.899  0.1534 -0.0291  0.0225
  643ERGO    R4 9857   0.488   3.279   9.754  0.1037  0.0341  0.0351
  643ERGO    R5 9858   0.702   3.241   9.736  0.0976  0.0346 -0.0472
  643ERGO    C1 9859   0.621   3.332   9.375 -0.0139  0.1798  0.0126
  643ERGO    C2 9860   0.599   3.317   9.028 -0.1958  0.2143  0.0741
  644ERGO   ROH 9861   9.058   6.522  10.246  0.0510  0.3394 -0.0401
  644ERGO    R1 9862   9.075   6.335  10.034  0.1050  0.2264  0.0623
  644ERGO    R2 9863   8.882   6.315   9.838  0.0632 -0.0031  0.1254
  644ERGO    R3 9864   9.094   6.350   9.671 -0.0023  0.0283  0.0476
  644ERGO    R4 9865   8.866   6.300   9.493 -0.0737  0.0633  0.1277
  644ERGO    R5 9866   9.056   6.193   9.494 -0.0728  0.0622  0.0319
  644ERGO    C1 9867   9.056   6.323   9.135 -0.2147  0.1315  0.0561
  644ERGO    C2 9868   8.886   6.381   8.754  0.2642 -0.0638 -0.2190
  645ERGO   ROH 9869   8.352  13.386  10.621 -0.1531  0.1811  0.1268
  645ERGO    R1 9870   8.449  13.374  10.355 -0.0393  0.1524  0.1688
  645ERGO    R2 9871   8.391  13.164  10.185  0.1409  0.0684  0.2062
  645ERGO    R3 9872   8.305  13.363  10.022  0.0991 -0.0255  0.1131
  645ERGO    R4 9873   8.383  13.147   9.840  0.0517 -0.1305  0.2169
  645ERGO    R5 9874   8.452  13.354   9.833  0.0502 -0.1340  0.0801
  645ERGO    C1 9875   8.298  13.325   9.486 -0.0395 -0.3345  0.1355
  645ERGO    C2 9876   8.321  13.479   9.137 -0.3712  0.0761  0.1149
  646ERGO   ROH 9877   5.145  10.056  10.566 -0.3965  0.0660 -0.0844
  646ERGO    R1 9878   5.115  10.209  10.330 -0.0704  0.0778 -0.1227
  646ERGO    R2 9879   5.290  10.190  10.117  0.0161 -0.1888 -0.0353
  646ERGO    R3 9880   5.063  10.142   9.976  0.0163  0.0984 -0.1386
  646ERGO    R4 9881   5.264  10.206   9.773  0.2169 -0.2687 -0.0556
  646ERGO    R5 9882   5.069  10.301   9.797  0.3424  0.0276 -0.1922
  646ERGO    C1 9883   5.035  10.171   9.440  0.3341 -0.0458 -0.1645
  646ERGO    C2 9884   5.106  10.154   9.129 -0.1813 -0.0310 -0.1272
  647ERGO   ROH 9885   2.214   5.838  10.097 -0.3871 -0.0671 -0.0145
  647ERGO    R1 9886   2.369   5.837   9.861 -0.3038  0.0748  0.0373
  647ERGO    R2 9887   2.328   5.655   9.656 -0.0370 -0.0019  0.0438
  647ERGO    R3 9888   2.308   5.880   9.505 -0.2367 -0.0361  0.0115
  647ERGO    R4 9889   2.351   5.664   9.312  0.3121  0.0077  0.0651
  647ERGO    R5 9890   2.467   5.847   9.329  0.0077  0.2013  0.1790
  647ERGO    C1 9891   2.346   5.880   8.969  0.3280 -0.0189  0.0472
  647ERGO    C2 9892   2.445   5.970   8.639  0.1157 -0.1728 -0.0051
  648ERGO   ROH 9893  12.630   8.035  10.154 -0.0098 -0.0002 -0.1411
  648ERGO    R1 9894  12.563   7.970   9.887  0.0837 -0.0418 -0.1545
  648ERGO    R2 9895  12.439   8.149   9.716 -0.0548 -0.1398 -0.1586
  648ERGO    R3 9896  12.650   8.093   9.556  0.0193  0.0601 -0.1340
  648ERGO    R4 9897  12.435   8.165   9.371  0.0467  0.0934 -0.1512
  648ERGO    R5 9898  12.554   7.983   9.366  0.1253  0.1473 -0.2397
  648ERGO    C1 9899  12.631   8.121   9.019  0.1754  0.4169 -0.1237
  648ERGO    C2 9900  12.652   8.073   8.699  0.0679 -0.1700 -0.4836
  649ERGO   ROH 9901   9.472  11.741  10.539  0.1542 -0.1178 -0.1182
  649ERGO    R1 9902   9.463  11.857  10.281  0.1279 -0.0450 -0.0852
  649ERGO    R2 9903   9.663  11.818  10.094  0.0406 -0.1093 -0.1668
  649ERGO    R3 9904   9.456  11.737   9.937 -0.0618  0.0484 -0.1148
  649ERGO    R4 9905   9.666  11.815   9.748  0.0803 -0.4303 -0.1667
  649ERGO    R5 9906   9.460  11.887   9.751  0.1815 -0.1248 -0.2535
  649ERGO    C1 9907   9.474  11.737   9.400  0.0073 -0.4692 -0.1179
  649ERGO    C2 9908   9.405  11.788   9.102 -0.0415  0.0126  0.0854
  650ERGO   ROH 9909  15.084  16.167  10.844  0.3046  0.0745 -0.0033
  650ERGO    R1 9910  15.087  16.339  10.619  0.4723  0.1167  0.0292
  650ERGO    R2 9911  15.302  16.353  10.446  0.3358 -0.3717 -0.2048
  650ERGO    R3 9912  15.113  16.301  10.258 -0.0123  0.1125 -0.0114
  650ERGO    R4 9913  15.339  16.411  10.108 -0.0005 -0.1904 -0.2145
  650ERGO    R5 9914  15.133  16.481  10.102  0.1123  0.1951  0.1009
  650ERGO    C1 9915  15.183  16.395   9.734 -0.5231  0.3698 -0.0385
  650ERGO    C2 9916  15.146  16.379   9.361 -0.4180 -0.0536  0.0581
  651ERGO   ROH 9917  17.621  14.323  10.512  0.1824  0.0142  0.0704
  651ERGO    R1 9918  17.543  14.391  10.249  0.1526  0.0350  0.0853
  651ERGO    R2 9919  17.700  14.546  10.082  0.2523 -0.1699 -0.0095
  651ERGO    R3 9920  17.670  14.336   9.912 -0.0349 -0.1786  0.0454
  651ERGO    R4 9921  17.723  14.566   9.738  0.1226 -0.2571 -0.0245
  651ERGO    R5 9922  17.555  14.428   9.724 -0.0284 -0.0949  0.0776
  651ERGO    C1 9923  17.709  14.381   9.378 -0.2226 -0.3160  0.0184
  651ERGO    C2 9924  17.728  14.418   9.041  0.3905 -0.1065 -0.1499
  652ERGO   ROH 9925   9.527   0.066  10.420  0.2429 -0.2069 -0.0196
  652ERGO    R1 9926   9.326   0.159  10.243  0.0563 -0.3237  0.1276
  652ERGO    R2 9927   9.375   0.352  10.051 -0.2707 -0.0681  0.2913
  652ERGO    R3 9928   9.272   0.165   9.884 -0.0521 -0.0628  0.1463
  652ERGO    R4 9929   9.284   0.409   9.723 -0.1327  0.0140  0.2661
  652ERGO    R5 9930   9.109   0.284   9.754 -0.0631 -0.1192  0.1119
  652ERGO    C1 9931   9.135   0.267   9.374  0.1528  0.0669  0.1152
  652ERGO    C2 9932   9.217   0.297   9.034  0.1374 -0.0430  0.3215
  653ERGO   ROH 9933   6.330   0.102  10.854  0.0062 -0.2155 -0.0870
  653ERGO    R1 9934   6.204  -0.056  10.656 -0.0924 -0.0858 -0.1296
  653ERGO    R2 9935   5.999   0.040  10.497  0.0423  0.1211 -0.1844
  653ERGO    R3 9936   6.161  -0.042  10.295  0.0223 -0.0265 -0.1413
  653ERGO    R4 9937   5.921   0.060  10.161  0.0998  0.0799 -0.2000
  653ERGO    R5 9938   6.012  -0.136  10.133 -0.0112  0.0192 -0.1368
  653ERGO    C1 9939   6.028  -0.005   9.776  0.1143 -0.0826 -0.1685
  653ERGO    C2 9940   6.018   0.061   9.471  0.0027 -0.0364 -0.0928
  654ERGO   ROH 9941   3.874   6.575  10.338 -0.1305 -0.1671 -0.0871
  654ERGO    R1 9942   3.971   6.467  10.095 -0.0522 -0.0655 -0.1013
  654ERGO    R2 9943   3.807   6.338   9.913  0.0171 -0.0417 -0.1804
  654ERGO    R3 9944   3.910   6.520   9.740  0.0162  0.0379 -0.0984
  654ERGO    R4 9945   3.793   6.313   9.569  0.0175  0.1118 -0.1924
  654ERGO    R5 9946   3.997   6.388   9.560  0.0178  0.1182 -0.1577
  654ERGO    C1 9947   3.881   6.469   9.206  0.0168  0.2760 -0.1223
  654ERGO    C2 9948   3.980   6.376   8.860 -0.0598 -0.1049 -0.1779
  655ERGO   ROH 9949  12.365   5.983  10.268 -0.2509  0.4129  0.0669
  655ERGO    R1 9950  12.338   5.847  10.021  0.0572  0.2087  0.1385
  655ERGO    R2 9951  12.141   5.910   9.837 -0.0975 -0.3361  0.0929
  655ERGO    R3 9952  12.353   5.936   9.668 -0.1411  0.0558  0.0918
  655ERGO    R4 9953  12.119   5.978   9.499 -0.2097 -0.3370  0.1005
  655ERGO    R5 9954  12.280   5.836   9.464  0.0388 -0.0489  0.0830
  655ERGO    C1 9955  12.304   6.041   9.144 -0.3160  0.0305  0.1038
  655ERGO    C2 9956  12.197   6.025   8.778  0.1965  0.1811 -0.4812
  656ERGO   ROH 9957   1.021  17.366  10.956 -0.0262 -0.0111 -0.1231
  656ERGO    R1 9958   0.904  17.260  10.721 -0.0107  0.0581 -0.1623
  656ERGO    R2 9959   0.796  17.421  10.523  0.0784  0.1201 -0.1627
  656ERGO    R3 9960   0.966  17.282  10.363  0.0697  0.0909 -0.1462
  656ERGO    R4 9961   0.763  17.386  10.181 -0.0563 -0.1211 -0.1278
  656ERGO    R5 9962   0.825  17.179  10.200  0.0444 -0.0808 -0.0175
  656ERGO    C1 9963   0.903  17.236   9.831 -0.1428 -0.2891 -0.0920
  656ERGO    C2 9964   0.949  17.247   9.457  0.1861  0.1526  0.0325
  657ERGO   ROH 9965   1.284   5.520  10.135 -0.0649 -0.2954 -0.0082
  657ERGO    R1 9966   1.389   5.601   9.886 -0.0692 -0.1909  0.0241
  657ERGO    R2 9967   1.491   5.423   9.701 -0.1204 -0.1178 -0.0732
  657ERGO    R3 9968   1.314   5.543   9.535 -0.1086  0.0013 -0.0010
  657ERGO    R4 9969   1.530   5.453   9.359  0.0587  0.3955 -0.0168
  657ERGO    R5 9970   1.450   5.655   9.373 -0.0864  0.3291  0.2303
  657ERGO    C1 9971   1.386   5.584   9.004  0.1740  0.8061  0.0839
  657ERGO    C2 9972   1.444   5.615   8.577  0.4267 -0.2778 -0.1525
  658ERGO   ROH 9973   4.571  17.456  10.877  0.0145  0.0520  0.0450
  658ERGO    R1 9974   4.521  17.606  10.642 -0.1761 -0.1552 -0.0495
  658ERGO    R2 9975   4.721  17.680  10.466 -0.2382  0.1388  0.0058
  658ERGO    R3 9976   4.561  17.558  10.284  0.0639 -0.2574 -0.0127
  658ERGO    R4 9977   4.758  17.705  10.124 -0.2496  0.2300  0.0101
  658ERGO    R5 9978   4.541  17.718  10.106 -0.2982 -0.2901 -0.0158
  658ERGO    C1 9979   4.629  17.606   9.753  0.0273 -0.0885 -0.0048
  658ERGO    C2 9980   4.610  17.712   9.430 -0.0447 -0.1527  0.1307
  659ERGO   ROH 9981   0.143   2.337  10.771  0.3106 -0.1354  0.0688
  659ERGO    R1 9982   0.195   2.407  10.502  0.1909 -0.0219  0.0750
  659ERGO    R2 9983   0.441   2.368  10.382  0.1274 -0.0020 -0.0597
  659ERGO    R3 9984   0.293   2.234  10.197  0.0220  0.1014 -0.0524
  659ERGO    R4 9985   0.497   2.377  10.041  0.1449 -0.0712 -0.0592
  659ERGO    R5 9986   0.281   2.385  10.011  0.1480  0.1008 -0.0642
  659ERGO    C1 9987   0.391   2.257   9.669  0.0562 -0.0144 -0.0520
  659ERGO    C2 9988   0.526   2.327   9.331  0.2382 -0.1151  0.1908
  660ERGO   ROH 9989   9.364   3.607  10.292  0.2915  0.2539 -0.0364
  660ERGO    R1 9990   9.347   3.692  10.023  0.2215  0.2019 -0.0485
  660ERGO    R2 9991   9.564   3.687   9.851  0.1703  0.1425 -0.1121
  660ERGO    R3 9992   9.395   3.542   9.694  0.1068  0.1305 -0.0333
  660ERGO    R4 9993   9.546   3.708   9.506  0.2928 -0.1527 -0.1391
  660ERGO    R5 9994   9.329   3.693   9.521  0.2759  0.0275 -0.1905
  660ERGO    C1 9995   9.378   3.583   9.159  0.3046 -0.3358 -0.0808
  660ERGO    C2 9996   9.451   3.568   8.886  0.2512  0.2163  0.0286
  661ERGO   ROH 9997  10.238   5.808  10.087  0.0616  0.0094 -0.1868
  661ERGO    R1 9998  10.286   5.907   9.826 -0.0106  0.1323 -0.1554
  661ERGO    R2 9999  10.472   5.793   9.655  0.0829  0.3286 -0.1948
  661ERGO    R310000  10.260   5.780   9.486  0.0912  0.2190 -0.1952
  661ERGO    R410001  10.487   5.847   9.315  0.1055  0.0212 -0.2448
  661ERGO    R510002  10.298   5.955   9.328  0.1293  0.0680 -0.3510
  661ERGO    C110003  10.296   5.866   8.957  0.1265 -0.2607 -0.2742
  661ERGO    C210004  10.191   5.903   8.598  0.2251 -0.1690 -0.0545
  662ERGO   ROH10005  12.316  11.778  10.372  0.0825  0.0646 -0.0419
  662ERGO    R110006  12.192  11.859  10.131  0.0378  0.0317 -0.0320
  662ERGO    R210007  12.333  11.977   9.924 -0.0295  0.1785 -0.0055
  662ERGO    R310008  12.222  11.777   9.778  0.1195  0.1268 -0.0455
  662ERGO    R410009  12.314  11.972   9.579  0.0416  0.1840 -0.0083
  662ERGO    R510010  12.113  11.888   9.596  0.0934  0.0679 -0.0587
  662ERGO    C110011  12.199  11.780   9.241  0.2230  0.1387 -0.0476
  662ERGO    C210012  12.215  11.826   8.918 -0.2400  0.3874 -0.0886
  663ERGO   ROH10013   7.879  10.162  10.188  0.0666  0.0269  0.0305
  663ERGO    R110014   7.890  10.306   9.945  0.0901 -0.0723 -0.0260
  663ERGO    R210015   8.070  10.246   9.744  0.0717 -0.1846  0.0011
  663ERGO    R310016   7.846  10.231   9.591  0.0714 -0.1993  0.0002
  663ERGO    R410017   8.067  10.238   9.398  0.1025 -0.4328  0.0036
  663ERGO    R510018   7.894  10.370   9.402  0.1514 -0.3494 -0.1002
  663ERGO    C110019   7.854  10.219   9.054  0.1201 -0.5911  0.0045
  663ERGO    C210020   7.837  10.281   8.788  0.2601 -0.0216  0.3628
  664ERGO   ROH10021   3.466   3.402  10.731  0.0383 -0.0001  0.0801
  664ERGO    R110022   3.476   3.288  10.472 -0.2136 -0.0363  0.0847
  664ERGO    R210023   3.294   3.352  10.274 -0.0834  0.3539  0.0888
  664ERGO    R310024   3.519   3.409  10.132  0.0458 -0.1385  0.0774
  664ERGO    R410025   3.325   3.321   9.931 -0.1396  0.1826  0.0982
  664ERGO    R510026   3.525   3.241   9.961 -0.2876 -0.2158  0.1292
  664ERGO    C110027   3.553   3.355   9.598 -0.0512 -0.3793  0.0929
  664ERGO    C210028   3.431   3.428   9.227 -0.0858  0.1898  0.2654
  665ERGO   ROH10029   4.643   8.606  10.197 -0.1790  0.1190 -0.0507
  665ERGO    R110030   4.688   8.739   9.951 -0.2199  0.0133 -0.1158
  665ERGO    R210031   4.880   8.657   9.770 -0.0965  0.0686 -0.0074
  665ERGO    R310032   4.670   8.655   9.598 -0.0439 -0.2103 -0.0752
  665ERGO    R410033   4.906   8.673   9.426 -0.0013  0.1010  0.0008
  665ERGO    R510034   4.734   8.807   9.424 -0.1827 -0.1217 -0.0546
  665ERGO    C110035   4.724   8.682   9.064  0.1036 -0.1421 -0.0580
  665ERGO    C210036   4.739   8.628   8.791 -0.0833 -0.4309 -0.1137
  666ERGO   ROH10037  15.376  11.494  10.114  0.1002 -0.0263  0.0941
  666ERGO    R110038  15.397  11.596   9.851 -0.1630  0.0358  0.0955
  666ERGO    R210039  15.573  11.493   9.664  0.0145  0.4048  0.0572
  666ERGO    R310040  15.348  11.469   9.513  0.0254 -0.0460  0.0965
  666ERGO    R410041  15.563  11.520   9.320 -0.1117  0.5594  0.0712
  666ERGO    R510042  15.376  11.631   9.339 -0.3832  0.1220  0.1703
  666ERGO    C110043  15.346  11.513   8.977 -0.1748  0.2261  0.1162
  666ERGO    C210044  15.498  11.443   8.639 -0.0059 -0.0920 -0.2159
  667ERGO   ROH10045   1.479  15.986  10.941  0.0104  0.1487  0.1462
  667ERGO    R110046   1.537  16.146  10.716 -0.0775  0.0456  0.0500
  667ERGO    R210047   1.725  16.074  10.526 -0.0790  0.0091  0.0674
  667ERGO    R310048   1.518  16.111  10.354 -0.1128 -0.1582  0.0697
  667ERGO    R410049   1.743  16.033  10.183 -0.1060 -0.2025  0.0894
  667ERGO    R510050   1.618  16.210  10.160 -0.1617 -0.2490 -0.0065
  667ERGO    C110051   1.560  16.043   9.822 -0.1535 -0.4828  0.1044
  667ERGO    C210052   1.559  16.114   9.535  0.1011 -0.0174  0.0392
  668ERGO   ROH10053  13.975   4.980  10.077 -0.1194  0.1289  0.1490
  668ERGO    R110054  14.010   5.118   9.833 -0.1234  0.0124  0.0823
  668ERGO    R210055  14.158   5.014   9.623 -0.1648 -0.1064  0.1139
  668ERGO    R310056  13.930   5.059   9.482 -0.1714 -0.1315  0.1159
  668ERGO    R410057  14.142   5.053   9.280 -0.1151  0.2531  0.1479
  668ERGO    R510058  13.996   5.212   9.310 -0.2481  0.1115  0.2923
  668ERGO    C110059  13.919   5.117   8.948 -0.0922  0.4388  0.1696
  668ERGO    C210060  13.847   5.038   8.609 -0.2457 -0.3514  0.0794
  669ERGO   ROH10061   4.233   9.654  10.320 -0.3009  0.1011  0.2151
  669ERGO    R110062   4.063   9.716  10.103 -0.1679  0.1313  0.1192
  669ERGO    R210063   4.114   9.924   9.928 -0.0136  0.0997  0.1258
  669ERGO    R310064   4.092   9.729   9.740  0.0276  0.0881  0.1323
  669ERGO    R410065   4.124   9.977   9.587  0.1713  0.0633  0.1239
  669ERGO    R510066   3.964   9.830   9.565  0.1427  0.1053  0.0580
  669ERGO    C110067   4.108   9.825   9.212  0.3176  0.0312  0.1289
  669ERGO    C210068   4.144   9.755   8.814  0.0532  0.0803  0.0078
  670ERGO   ROH10069  11.854   9.655  10.190  0.2329 -0.0931  0.0511
  670ERGO    R110070  11.831   9.812   9.955  0.0905 -0.1281  0.0409
  670ERGO    R210071  12.029   9.823   9.764  0.0562 -0.0063  0.0109
  670ERGO    R310072  11.828   9.751   9.596  0.0808 -0.1607  0.0465
  670ERGO    R410073  12.035   9.861   9.420 -0.0775  0.1067  0.0205
  670ERGO    R510074  11.826   9.922   9.429 -0.1402 -0.1081  0.0991
  670ERGO    C110075  11.849   9.815   9.063 -0.1323  0.0277  0.0595
  670ERGO    C210076  11.920   9.718   8.736 -0.0294  0.0473 -0.0263
  671ERGO   ROH10077   7.827  15.502  10.390  0.1058 -0.1529  0.0085
  671ERGO    R110078   7.886  15.415  10.128 -0.0071 -0.0911 -0.0407
  671ERGO    R210079   7.710  15.447   9.918  0.0301  0.2648 -0.0398
  671ERGO    R310080   7.923  15.568   9.800  0.2038  0.0486  0.0505
  671ERGO    R410081   7.741  15.506   9.578  0.1436  0.4559  0.0038
  671ERGO    R510082   7.952  15.450   9.593  0.0577  0.1565 -0.0219
  671ERGO    C110083   7.959  15.653   9.270  0.3728  0.3641  0.1137
  671ERGO    C210084   7.898  15.644   8.857 -0.0281  0.0394  0.1384
  672ERGO   ROH10085  15.098   0.243  10.883  0.0682 -0.1427 -0.0854
  672ERGO    R110086  15.100   0.103  10.637 -0.0452 -0.1160 -0.1028
  672ERGO    R210087  14.893   0.120  10.455 -0.0184  0.1022 -0.1199
  672ERGO    R310088  15.093   0.189  10.284  0.0638 -0.0638 -0.0917
  672ERGO    R410089  14.869   0.111  10.110  0.0311  0.1097 -0.1230
  672ERGO    R510090  15.073   0.033  10.103 -0.0316 -0.0528 -0.0884
  672ERGO    C110091  15.042   0.170   9.749  0.1372 -0.0418 -0.0984
  672ERGO    C210092  15.060   0.086   9.430 -0.2349  0.4070  0.2217
  673ERGO   ROH10093   3.576   6.912  10.212  0.0982  0.1722  0.0935
  673ERGO    R110094   3.550   6.757   9.977  0.3671  0.0368  0.1493
  673ERGO    R210095   3.351   6.802   9.790  0.1417 -0.5133  0.2409
  673ERGO    R310096   3.561   6.817   9.618  0.0253 -0.0218  0.1245
  673ERGO    R410097   3.329   6.752   9.449  0.0900 -0.7627  0.2783
  673ERGO    R510098   3.518   6.643   9.458  0.4150 -0.2426  0.2442
  673ERGO    C110099   3.514   6.737   9.089 -0.0493 -0.4464  0.1906
  673ERGO    C210100   3.443   6.891   8.734 -0.0596 -0.1008 -0.3459
  674PSPI    C110101   2.142   2.270   6.786 -0.1927  0.0575  0.1182
  674PSPI    C210102   1.858   2.142   6.535  0.1133 -0.1196 -0.1452
  674PSPI    C310103   2.089   1.878   6.727  0.1103  0.0232  0.0578
  674PSPI   PO410104   2.221   2.420   6.764  0.1225 -0.1681  0.1827
  674PSPI   GL110105   2.512   2.764   6.850  0.3481 -0.3221 -0.1424
  674PSPI   GL210106   2.671   3.055   6.940 -0.1641 -0.1031  0.1935
  674PSPI   C1A10107   2.545   2.686   7.299  0.0343 -0.0254  0.2249
  674PSPI   C2A10108   2.358   2.722   7.727  0.3173  0.0346 -0.5178
  674PSPI   C3A10109   2.247   2.805   8.178  0.1716 -0.1421  0.0933
  674PSPI   C4A10110   1.830   3.012   8.388  0.0074  0.0835  0.1669
  674PSPI   C1B10111   2.585   3.250   7.312  0.3004 -0.0718 -0.1346
  674PSPI   C2B10112   2.681   3.371   7.622  0.0984  0.0898 -0.0871
  674PSPI   C3B10113   2.633   3.790   7.876 -0.4073 -0.0985  0.0560
  674PSPI   C4B10114   2.905   4.175   8.030 -0.0365 -0.0896 -0.0723
  675PSPI    C110115   5.115   3.949   6.081  0.0896  0.0138  0.0453
  675PSPI    C210116   5.083   3.647   5.821  0.0846  0.0137  0.0460
  675PSPI    C310117   4.777   3.900   5.873  0.2260  0.2507 -0.2393
  675PSPI   PO410118   5.193   3.828   6.290  0.0053  0.0776 -0.3373
  675PSPI   GL110119   5.145   3.760   6.679 -0.0698 -0.1097 -0.0563
  675PSPI   GL210120   4.959   3.728   6.913  0.0181 -0.1063 -0.0158
  675PSPI   C1A10121   5.445   3.775   7.013  0.0358 -0.3285 -0.1955
  675PSPI   C2A10122   5.530   3.646   7.396 -0.0825  0.1905  0.0937
  675PSPI   C3A10123   5.487   3.676   7.834 -0.0370  0.2134 -0.0909
  675PSPI   C4A10124   5.411   3.285   8.046  0.0010  0.3221  0.0779
  675PSPI   C1B10125   5.015   3.799   7.369  0.2693  0.0419  0.3735
  675PSPI   C2B10126   5.041   3.925   7.865  0.0116  0.2493 -0.2144
  675PSPI   C3B10127   5.256   4.120   8.089 -0.2742  0.0505 -0.0319
  675PSPI   C4B10128   5.405   4.151   8.516  0.0446 -0.1180  0.1574
  676PSPI    C110129   9.437   0.057   5.874 -0.0766  0.4142  0.1633
  676PSPI    C210130   9.792   0.158   5.721  0.0990 -0.1190  0.1962
  676PSPI    C310131   9.534  -0.057   5.503 -0.2259  0.2925  0.1604
  676PSPI   PO410132   9.300   0.288   5.977  0.2100  0.1551  0.1908
  676PSPI   GL110133   9.296   0.722   6.156 -0.1327 -0.0626  0.1560
  676PSPI   GL210134   9.186   0.605   6.494 -0.2929 -0.1836  0.4239
  676PSPI   C1A10135   9.673   0.819   6.497  0.0950 -0.0373  0.1380
  676PSPI   C2A10136   9.751   1.129   6.769 -0.0483 -0.2113 -0.1482
  676PSPI   C3A10137   9.755   1.338   7.145  0.2105 -0.2213 -0.1003
  676PSPI   C4A10138   9.733   1.381   7.638  0.1901 -0.1577 -0.1479
  676PSPI   C1B10139   9.436   0.612   6.862 -0.1781 -0.1111  0.0918
  676PSPI   C2B10140   9.522   0.580   7.323  0.0442 -0.0844  0.1256
  676PSPI   C3B10141   9.632   0.869   7.674  0.0253 -0.3720 -0.0642
  676PSPI   C4B10142   9.639   1.041   8.024 -0.0968  0.2437  0.1513
  677PSPI    C110143  11.010  15.335   6.285 -0.0043 -0.1117 -0.1406
  677PSPI    C210144  11.111  15.557   5.968 -0.3244 -0.0320 -0.1900
  677PSPI    C310145  11.076  15.161   5.931  0.1741 -0.0896 -0.1194
  677PSPI   PO410146  10.814  15.439   6.377 -0.0319  0.2029  0.1050
  677PSPI   GL110147  10.718  15.357   6.763  0.2314 -0.2860  0.0145
  677PSPI   GL210148  10.805  15.046   6.727  0.0517 -0.0913  0.2932
  677PSPI   C1A10149  10.745  15.415   7.172  0.3452 -0.2182  0.2696
  677PSPI   C2A10150  10.689  15.303   7.512 -0.0873 -0.0557  0.2896
  677PSPI   C3A10151  10.393  15.278   7.870 -0.0455  0.2129  0.1063
  677PSPI   C4A10152  10.312  14.984   8.240 -0.0247  0.2015  0.2179
  677PSPI   C1B10153  10.994  14.993   7.221 -0.0013 -0.1999  0.2974
  677PSPI   C2B10154  10.947  14.826   7.539 -0.0012 -0.1917 -0.3032
  677PSPI   C3B10155  11.180  14.390   7.663 -0.2926 -0.2350 -0.3496
  677PSPI   C4B10156  11.370  14.236   8.036  0.1061  0.1265  0.0313
  678PSPI    C110157  11.421  16.686   6.026 -0.0972 -0.0389  0.0431
  678PSPI    C210158  11.052  16.657   5.874 -0.2645  0.0653  0.4158
  678PSPI    C310159  11.304  16.348   5.847 -0.3245  0.0446  0.0300
  678PSPI   PO410160  11.469  16.750   6.308  0.0364 -0.1869 -0.0597
  678PSPI   GL110161  11.463  17.127   6.620  0.1081  0.0275 -0.0191
  678PSPI   GL210162  11.518  17.368   6.857  0.1781  0.1088 -0.1606
  678PSPI   C1A10163  11.623  16.960   7.085  0.1426 -0.0172  0.0138
  678PSPI   C2A10164  11.603  16.901   7.490 -0.4573  0.2187  0.0027
  678PSPI   C3A10165  11.345  17.042   7.875  0.2343  0.0936 -0.0704
  678PSPI   C4A10166  11.578  17.007   8.133 -0.1546  0.0413  0.1041
  678PSPI   C1B10167  11.311  17.298   7.292 -0.2462 -0.1417 -0.0230
  678PSPI   C2B10168  11.030  17.462   7.541  0.1729  0.1795 -0.0393
  678PSPI   C3B10169  10.895  17.300   7.933 -0.2909  0.1453  0.1381
  678PSPI   C4B10170  11.005  17.026   8.280 -0.3882 -0.1676  0.0776
  679PSPI    C110171   7.682  13.063   5.894 -0.0572  0.1162  0.1353
  679PSPI    C210172   7.731  13.209   5.525 -0.1189  0.2354  0.1739
  679PSPI    C310173   7.363  13.160   5.674 -0.1017 -0.0220  0.1373
  679PSPI   PO410174   7.731  13.220   6.057 -0.0690  0.2731  0.1094
  679PSPI   GL110175   7.635  13.234   6.423 -0.1474  0.0216  0.1506
  679PSPI   GL210176   7.637  12.946   6.497  0.3445  0.4224  0.2560
  679PSPI   C1A10177   7.477  13.506   6.773 -0.4497  0.0381  0.0237
  679PSPI   C2A10178   7.525  13.921   6.799 -0.1712  0.0615  0.0956
  679PSPI   C3A10179   7.723  14.158   7.018 -0.1121  0.2085  0.2049
  679PSPI   C4A10180   7.828  14.275   7.367 -0.0380 -0.0877 -0.0637
  679PSPI   C1B10181   7.561  13.045   6.951  0.1890 -0.0751  0.0921
  679PSPI   C2B10182   7.637  13.010   7.412 -0.1707  0.0205  0.0860
  679PSPI   C3B10183   7.686  13.095   7.803  0.1697 -0.4455  0.0883
  679PSPI   C4B10184   7.944  12.888   8.041 -0.0039  0.3234 -0.1505
  680PSPI    C110185  16.134   2.306   5.996 -0.1144 -0.1924 -0.0564
  680PSPI    C210186  15.899   2.462   5.712 -0.0975 -0.3287 -0.1465
  680PSPI    C310187  15.767   2.159   5.937 -0.1928 -0.0801  0.1403
  680PSPI   PO410188  16.211   2.495   6.194 -0.2074 -0.3363  0.0538
  680PSPI   GL110189  16.211   2.826   6.443  0.1802  0.0745  0.0085
  680PSPI   GL210190  15.949   2.742   6.664  0.1005  0.1639  0.3059
  680PSPI   C1A10191  16.383   2.892   6.865  0.3114 -0.2391 -0.0564
  680PSPI   C2A10192  16.626   2.972   7.261  0.0378 -0.0658 -0.0100
  680PSPI   C3A10193  16.664   2.831   7.612  0.2310  0.1694  0.1815
  680PSPI   C4A10194  16.668   2.967   8.122  0.1414 -0.3062  0.0268
  680PSPI   C1B10195  16.025   2.791   7.206  0.1171 -0.3059 -0.2197
  680PSPI   C2B10196  15.984   2.863   7.668  0.2727 -0.0161 -0.0168
  680PSPI   C3B10197  16.152   2.896   7.992 -0.3460 -0.2081  0.0150
  680PSPI   C4B10198  16.339   2.779   8.497  0.3287 -0.1779 -0.1579
  681PSPI    C110199   6.080   2.357   6.051  0.1410 -0.1173  0.1084
  681PSPI    C210200   6.178   2.669   5.821  0.0748 -0.0896  0.1175
  681PSPI    C310201   5.808   2.519   5.807  0.0547 -0.0533  0.2457
  681PSPI   PO410202   6.352   2.209   6.070  0.0837  0.2806  0.2340
  681PSPI   GL110203   6.573   1.933   6.294 -0.0214 -0.1793  0.0382
  681PSPI   GL210204   6.778   2.227   6.398  0.3829  0.2081  0.1599
  681PSPI   C1A10205   6.425   1.959   6.776 -0.0903  0.1766 -0.2832
  681PSPI   C2A10206   6.511   2.206   7.156 -0.0423 -0.2284  0.1668
  681PSPI   C3A10207   6.531   2.241   7.501  0.0930 -0.0683  0.1062
  681PSPI   C4A10208   6.624   2.487   7.904  0.4074 -0.0834 -0.2706
  681PSPI   C1B10209   6.926   2.158   6.874 -0.1223 -0.3529  0.0539
  681PSPI   C2B10210   7.033   2.129   7.297  0.0515  0.0639 -0.1518
  681PSPI   C3B10211   7.097   2.087   7.727 -0.1479 -0.0092 -0.1467
  681PSPI   C4B10212   6.980   2.062   8.115 -0.1549  0.3875  0.0806
  682PSPI    C110213   2.831  17.145   6.076 -0.0599 -0.2331  0.1028
  682PSPI    C210214   3.156  17.339   5.947 -0.1884 -0.1640 -0.1240
  682PSPI    C310215   2.812  17.537   5.996 -0.1485 -0.1928  0.3143
  682PSPI   PO410216   2.970  17.062   6.377  0.0496  0.0136 -0.1297
  682PSPI   GL110217   3.178  16.918   6.734  0.0366  0.0007 -0.0825
  682PSPI   GL210218   3.324  17.245   6.746 -0.2227  0.2448  0.1282
  682PSPI   C1A10219   3.243  16.865   7.169 -0.0647 -0.2414  0.2330
  682PSPI   C2A10220   3.406  16.850   7.643  0.2254  0.2615 -0.1418
  682PSPI   C3A10221   3.575  16.872   8.029 -0.3154  0.4093  0.0802
  682PSPI   C4A10222   3.714  17.093   8.496 -0.2464 -0.2285  0.0064
  682PSPI   C1B10223   3.465  17.313   7.182  0.0684 -0.0957  0.2900
  682PSPI   C2B10224   3.587  17.370   7.525  0.0413  0.2581  0.2489
  682PSPI   C3B10225   3.647  17.431   7.961  0.0515 -0.1255 -0.0890
  682PSPI   C4B10226   3.891  17.527   8.329  0.0027 -0.2258 -0.1803
  683PSPI    C110227  13.234   5.502   5.481 -0.0049 -0.2163  0.0515
  683PSPI    C210228  13.444   5.190   5.618  0.0749 -0.1945 -0.0204
  683PSPI    C310229  13.111   5.129   5.404  0.0711 -0.2301 -0.0043
  683PSPI   PO410230  13.237   5.659   5.767 -0.1903  0.0877  0.0036
  683PSPI   GL110231  13.041   5.666   6.128 -0.1809  0.0140 -0.2178
  683PSPI   GL210232  12.871   5.471   6.332  0.0136  0.1785  0.1239
  683PSPI   C1A10233  13.338   5.667   6.492 -0.1804 -0.2929  0.2441
  683PSPI   C2A10234  13.759   5.548   6.637 -0.1296  0.5725 -0.0118
  683PSPI   C3A10235  14.089   5.179   6.826  0.1488 -0.1109 -0.3994
  683PSPI   C4A10236  14.209   5.232   7.331 -0.2102 -0.2198  0.2077
  683PSPI   C1B10237  12.847   5.812   6.654 -0.1471 -0.0538  0.0009
  683PSPI   C2B10238  13.060   5.764   6.956  0.3154  0.1082  0.3658
  683PSPI   C3B10239  13.129   5.779   7.467 -0.0433 -0.2982  0.0321
  683PSPI   C4B10240  13.328   5.783   7.887 -0.1844 -0.2579  0.0899
  684PSPI    C110241   7.818  14.498   5.973 -0.1082  0.2017 -0.2043
  684PSPI    C210242   8.158  14.702   6.029 -0.1329  0.1931 -0.0167
  684PSPI    C310243   8.149  14.396   5.772  0.0188  0.1513  0.0268
  684PSPI   PO410244   7.675  14.409   6.239  0.1352  0.0272  0.2703
  684PSPI   GL110245   7.505  14.590   6.671  0.3002  0.2038  0.2833
  684PSPI   GL210246   7.286  14.793   6.663  0.1338 -0.0060  0.1984
  684PSPI   C1A10247   7.654  14.640   7.110 -0.2470 -0.1710  0.1629
  684PSPI   C2A10248   7.821  14.783   7.551  0.0000  0.2372 -0.0933
  684PSPI   C3A10249   8.013  14.837   7.900 -0.0538  0.0298  0.0070
  684PSPI   C4A10250   8.071  15.285   7.969 -0.1516  0.1413  0.2506
  684PSPI   C1B10251   7.262  14.995   7.036  0.0595 -0.1015 -0.1769
  684PSPI   C2B10252   7.193  14.771   7.319  0.0137 -0.0486 -0.0160
  684PSPI   C3B10253   7.312  14.809   7.762 -0.2695  0.1916 -0.4619
  684PSPI   C4B10254   7.446  14.755   8.167 -0.2166 -0.0486 -0.0574
  685PSPI    C110255  11.734   8.617   5.632  0.0483  0.0719  0.0260
  685PSPI    C210256  11.387   8.797   5.549 -0.0479 -0.1244 -0.0023
  685PSPI    C310257  11.485   8.456   5.363  0.2539  0.0374 -0.1467
  685PSPI   PO410258  11.736   8.532   5.855 -0.2592  0.1098  0.1134
  685PSPI   GL110259  11.755   8.601   6.314 -0.2029  0.0797 -0.3601
  685PSPI   GL210260  11.845   8.886   6.455  0.2328  0.1020 -0.2294
  685PSPI   C1A10261  11.526   8.578   6.694  0.1802 -0.0796 -0.1121
  685PSPI   C2A10262  11.512   8.562   7.212  0.2804  0.0472 -0.0346
  685PSPI   C3A10263  11.325   8.479   7.676 -0.1406  0.0565 -0.0770
  685PSPI   C4A10264  11.354   8.347   8.023 -0.1028 -0.2483 -0.0621
  685PSPI   C1B10265  11.435   8.971   6.434  0.3294 -0.0368  0.0679
  685PSPI   C2B10266  11.215   9.251   6.696  0.1534 -0.0766  0.2362
  685PSPI   C3B10267  11.144   9.227   7.105 -0.2801  0.1128  0.0940
  685PSPI   C4B10268  11.176   8.893   7.369  0.1269 -0.1080  0.0409
  686PSPI    C110269  12.533   8.827   5.910  0.2741 -0.0100 -0.0065
  686PSPI    C210270  12.176   8.797   6.089  0.2242  0.2452 -0.0600
  686PSPI    C310271  12.242   8.609   5.742  0.2358 -0.0356  0.0916
  686PSPI   PO410272  12.633   8.934   6.109  0.0282 -0.1035  0.3271
  686PSPI   GL110273  12.674   9.247   6.443 -0.1066  0.1193  0.3367
  686PSPI   GL210274  12.969   9.078   6.523 -0.0388 -0.1778 -0.4323
  686PSPI   C1A10275  12.515   9.002   6.763  0.0626 -0.2191  0.0626
  686PSPI   C2A10276  12.522   8.962   7.274  0.2064  0.2867  0.1006
  686PSPI   C3A10277  12.661   8.912   7.688  0.1228 -0.1603  0.0547
  686PSPI   C4A10278  12.478   8.862   8.050 -0.0439 -0.1378 -0.1559
  686PSPI   C1B10279  12.954   8.978   7.010  0.3403 -0.0622  0.1954
  686PSPI   C2B10280  12.991   9.234   7.377  0.0033 -0.3061  0.1576
  686PSPI   C3B10281  12.919   9.281   7.879 -0.1675  0.0784  0.2216
  686PSPI   C4B10282  12.621   9.281   8.233 -0.1856 -0.1934  0.0077
  687PSPI    C110283   9.139   1.161   5.927  0.0259  0.0483  0.0376
  687PSPI    C210284   8.962   1.500   5.809  0.0688  0.0011 -0.1659
  687PSPI    C310285   9.028   1.206   5.546 -0.3424 -0.3337  0.0924
  687PSPI   PO410286   9.113   1.164   6.228  0.3651  0.1397  0.0426
  687PSPI   GL110287   8.751   1.168   6.533 -0.0205 -0.1843  0.1097
  687PSPI   GL210288   9.115   1.023   6.711 -0.2293 -0.0413  0.0875
  687PSPI   C1A10289   8.834   1.553   6.746 -0.0486  0.0860 -0.0168
  687PSPI   C2A10290   8.881   1.823   7.168 -0.0282  0.0129 -0.1296
  687PSPI   C3A10291   8.758   1.874   7.626  0.0618 -0.1585  0.0472
  687PSPI   C4A10292   8.421   1.844   7.945 -0.0889 -0.0011 -0.1117
  687PSPI   C1B10293   8.801   1.152   7.050  0.1518  0.0526 -0.2634
  687PSPI   C2B10294   8.927   1.294   7.459 -0.0126 -0.1608 -0.0780
  687PSPI   C3B10295   9.193   1.232   7.803  0.1865  0.1744  0.2803
  687PSPI   C4B10296   9.074   0.943   8.023  0.2346  0.2261 -0.1132
  688PSPI    C110297  17.565  13.149   6.113 -0.1139  0.0765  0.0097
  688PSPI    C210298  17.188  13.203   5.990 -0.0713  0.1741 -0.0793
  688PSPI    C310299  17.471  13.467   5.890 -0.0423  0.2763  0.2586
  688PSPI   PO410300  17.516  13.088   6.368 -0.2710  0.0069 -0.2421
  688PSPI   GL110301  17.244  12.913   6.706 -0.0603  0.2914 -0.0095
  688PSPI   GL210302  17.134  12.603   6.695 -0.1662 -0.0885 -0.2125
  688PSPI   C1A10303  17.178  12.915   7.133 -0.1197 -0.0879  0.2741
  688PSPI   C2A10304  17.312  12.710   7.522  0.2188  0.0923  0.0887
  688PSPI   C3A10305  17.358  12.413   7.818  0.1065 -0.4135  0.1825
  688PSPI   C4A10306  17.729  12.115   7.896 -0.1232  0.1354  0.0754
  688PSPI   C1B10307  16.924  12.465   7.016 -0.1464  0.1433 -0.1307
  688PSPI   C2B10308  16.931  12.464   7.419  0.3313 -0.1405  0.1091
  688PSPI   C3B10309  16.837  12.460   7.877 -0.2107  0.0677  0.1669
  688PSPI   C4B10310  17.176  12.279   8.217  0.2762  0.0044 -0.1567
  689PSPI    C110311   8.898  12.441   6.152  0.0976  0.0212  0.0327
  689PSPI    C210312   9.128  12.121   6.224  0.0100  0.0008  0.2291
  689PSPI    C310313   9.066  12.243   5.848  0.3527  0.0158  0.1739
  689PSPI   PO410314   8.915  12.545   6.466  0.0587 -0.0795 -0.1825
  689PSPI   GL110315   9.073  12.548   6.798  0.1471  0.4931  0.0223
  689PSPI   GL210316   9.098  12.860   6.850  0.2543  0.0135 -0.1418
  689PSPI   C1A10317   9.117  12.449   7.242  0.3894 -0.0742 -0.1858
  689PSPI   C2A10318   9.116  12.323   7.635 -0.1612  0.3058 -0.1061
  689PSPI   C3A10319   9.091  12.202   8.077 -0.1389  0.0415 -0.2027
  689PSPI   C4A10320   9.192  11.944   8.414 -0.0059 -0.3136 -0.2271
  689PSPI   C1B10321   9.059  12.939   7.261  0.0347 -0.2212  0.1228
  689PSPI   C2B10322   9.129  12.800   7.711 -0.3117 -0.2148  0.0334
  689PSPI   C3B10323   9.203  12.706   8.151  0.1479  0.2455  0.1547
  689PSPI   C4B10324   9.479  12.764   8.460 -0.0467 -0.0242 -0.0078
  690PSPI    C110325  12.236  15.411   6.098 -0.0134 -0.0350  0.1126
  690PSPI    C210326  12.050  15.084   6.233 -0.0754 -0.1398 -0.2164
  690PSPI    C310327  12.419  15.055   6.082 -0.0395 -0.0388 -0.1492
  690PSPI   PO410328  12.096  15.610   6.339 -0.0574  0.1000  0.0100
  690PSPI   GL110329  12.172  15.747   6.765 -0.2380 -0.0825  0.2538
  690PSPI   GL210330  12.397  15.593   6.817 -0.4149  0.1999 -0.1172
  690PSPI   C1A10331  12.447  16.007   7.062 -0.0421 -0.0871  0.0053
  690PSPI   C2A10332  12.573  16.218   7.458  0.2804 -0.1099  0.3357
  690PSPI   C3A10333  12.892  16.074   7.710 -0.2601  0.1371 -0.1803
  690PSPI   C4A10334  12.949  16.216   8.084 -0.1968  0.0104 -0.1683
  690PSPI   C1B10335  12.265  15.566   7.224  0.5023  0.1456  0.0390
  690PSPI   C2B10336  12.349  15.782   7.552  0.0452 -0.0033  0.2654
  690PSPI   C3B10337  12.492  15.886   7.887  0.0625 -0.0044  0.2271
  690PSPI   C4B10338  12.782  15.655   8.109 -0.2964  0.1468  0.1742
  691PSPI    C110339   7.015  17.166   5.913  0.0797  0.1193 -0.0056
  691PSPI    C210340   6.866  17.313   5.572  0.1183  0.0808 -0.0393
  691PSPI    C310341   7.221  17.130   5.572  0.1488  0.1397  0.0339
  691PSPI   PO410342   6.919  17.379   6.143  0.3551 -0.0046 -0.2884
  691PSPI   GL110343   7.023  17.365   6.560  0.0923 -0.0649  0.1483
  691PSPI   GL210344   6.770  17.420   6.764 -0.1285  0.1155 -0.0174
  691PSPI   C1A10345   7.253  17.179   6.901 -0.0830  0.2908 -0.1390
  691PSPI   C2A10346   7.106  17.148   7.310 -0.3999 -0.0969 -0.0300
  691PSPI   C3A10347   7.200  17.088   7.760  0.5552 -0.1250 -0.1974
  691PSPI   C4A10348   7.164  16.941   8.152  0.1605  0.1604  0.2886
  691PSPI   C1B10349   6.664  17.429   7.119  0.2372  0.1042  0.4344
  691PSPI   C2B10350   6.845  17.489   7.589  0.1104 -0.0501 -0.1448
  691PSPI   C3B10351   6.896  17.393   8.059 -0.1738 -0.2890  0.1806
  691PSPI   C4B10352   6.752  17.051   8.411 -0.1576  0.1051  0.2381
  692PSPI    C110353   2.332   6.629   5.741  0.2379 -0.2293  0.2481
  692PSPI    C210354   2.662   6.809   5.879  0.2554 -0.0217 -0.0554
  692PSPI    C310355   2.514   6.909   5.521 -0.0697 -0.1998  0.0252
  692PSPI   PO410356   2.116   6.625   5.946 -0.1839 -0.2367  0.1791
  692PSPI   GL110357   1.982   6.900   6.308 -0.0170 -0.1331  0.0683
  692PSPI   GL210358   1.688   6.731   6.276  0.0369 -0.1898 -0.0267
  692PSPI   C1A10359   2.024   7.121   6.740  0.0812 -0.2460 -0.1083
  692PSPI   C2A10360   2.155   7.109   7.110  0.2600 -0.1794 -0.2195
  692PSPI   C3A10361   2.223   7.226   7.529 -0.1345 -0.0103 -0.1904
  692PSPI   C4A10362   2.004   7.419   7.859  0.4095 -0.1938 -0.0858
  692PSPI   C1B10363   1.591   6.946   6.639 -0.1690  0.1500 -0.0927
  692PSPI   C2B10364   1.442   7.032   7.065 -0.0456 -0.1600 -0.3664
  692PSPI   C3B10365   1.281   7.324   7.377  0.0403 -0.2414 -0.1532
  692PSPI   C4B10366   1.107   7.656   7.496  0.0010 -0.0532 -0.1288
  693PSPI    C110367   2.705   3.007   6.302 -0.0280  0.0456  0.0890
  693PSPI    C210368   2.423   2.724   6.324  0.1762 -0.1797 -0.1204
  693PSPI    C310369   2.471   2.932   5.985 -0.0063  0.1463  0.0488
  693PSPI   PO410370   2.912   2.944   6.464  0.0313  0.2135  0.1585
  693PSPI   GL110371   3.255   3.109   6.793 -0.0788  0.3860 -0.0766
  693PSPI   GL210372   3.465   2.803   6.839  0.1807 -0.1514  0.0480
  693PSPI   C1A10373   3.091   3.051   7.261 -0.2131  0.0515  0.0251
  693PSPI   C2A10374   2.998   2.976   7.643  0.0424  0.3139 -0.2266
  693PSPI   C3A10375   2.783   2.946   8.048  0.1561  0.0977 -0.0491
  693PSPI   C4A10376   2.563   3.269   8.359 -0.2157 -0.0101 -0.1923
  693PSPI   C1B10377   3.533   2.969   7.221 -0.0785  0.1039 -0.2506
  693PSPI   C2B10378   3.517   3.112   7.629  0.1922 -0.0115 -0.0749
  693PSPI   C3B10379   3.316   3.057   7.996 -0.2618  0.0512  0.2035
  693PSPI   C4B10380   3.133   3.269   8.308  0.1621  0.0212 -0.1987
  694POPI    C110381  15.414  15.633   6.138  0.2131 -0.1395 -0.0208
  694POPI    C210382  15.511  15.996   6.275 -0.3008 -0.0425  0.1068
  694POPI    C310383  15.376  15.952   5.901  0.0779 -0.1551 -0.0210
  694POPI   PO410384  15.466  15.507   6.454  0.0916 -0.1362 -0.2477
  694POPI   GL110385  15.401  15.423   6.869 -0.1043 -0.0726 -0.1214
  694POPI   GL210386  15.458  15.203   7.070 -0.2313 -0.2149 -0.1051
  694POPI   C1A10387  15.030  15.561   6.992 -0.3412  0.0856  0.2052
  694POPI   D2A10388  14.757  15.615   7.247  0.3234 -0.1586  0.3848
  694POPI   C3A10389  14.728  15.527   7.683  0.1117 -0.0573 -0.2107
  694POPI   C4A10390  14.911  15.669   7.973  0.1845  0.0077 -0.0589
  694POPI   C1B10391  15.500  15.110   7.520 -0.1138 -0.0798  0.0275
  694POPI   C2B10392  15.348  14.968   7.953  0.0119 -0.1414  0.2093
  694POPI   C3B10393  15.169  14.814   8.237  0.1725  0.0646  0.3262
  694POPI   C4B10394  15.195  14.649   8.633 -0.0458 -0.1131 -0.0622
  695POPI    C110395   1.677  15.233   6.373 -0.2273  0.0538  0.0212
  695POPI    C210396   1.899  15.526   6.215  0.2467 -0.0942  0.3864
  695POPI    C310397   1.606  15.614   6.473 -0.0816  0.0972 -0.0383
  695POPI   PO410398   1.821  15.041   6.473 -0.3057  0.0698  0.0354
  695POPI   GL110399   1.634  14.965   6.880  0.1989  0.4486  0.0021
  695POPI   GL210400   1.733  14.938   7.081  0.1473  0.0766 -0.1009
  695POPI   C1A10401   1.346  14.603   7.056  0.1027  0.1509  0.2273
  695POPI   D2A10402   1.349  14.398   7.550 -0.1493 -0.1812 -0.2402
  695POPI   C3A10403   1.311  14.666   7.869 -0.3855  0.4560  0.2793
  695POPI   C4A10404   0.988  14.767   8.132 -0.2365  0.0407  0.1313
  695POPI   C1B10405   1.650  14.745   7.488  0.0174 -0.3351 -0.0299
  695POPI   C2B10406   1.855  14.726   7.869  0.1482  0.0094  0.2427
  695POPI   C3B10407   1.827  14.760   8.265 -0.1104 -0.0306 -0.1012
  695POPI   C4B10408   1.778  14.598   8.628 -0.0059 -0.2227  0.2139
  696POPI    C110409   6.611   4.032   6.063  0.1171 -0.0101 -0.2260
  696POPI    C210410   6.422   4.370   6.165 -0.0450 -0.2183  0.1863
  696POPI    C310411   6.395   4.231   5.791  0.1510  0.3014 -0.0303
  696POPI   PO410412   6.805   4.014   6.305  0.0208  0.0483  0.2824
  696POPI   GL110413   6.620   4.091   6.693  0.0821 -0.0542  0.0284
  696POPI   GL210414   6.406   4.335   6.704  0.2500 -0.1547  0.0934
  696POPI   C1A10415   6.898   4.154   6.936 -0.2306  0.1093 -0.2003
  696POPI   D2A10416   6.997   4.214   7.380 -0.1744 -0.0262  0.0629
  696POPI   C3A10417   6.811   4.021   7.752 -0.0526  0.1458 -0.1890
  696POPI   C4A10418   6.785   4.020   8.205  0.2289  0.2210  0.2209
  696POPI   C1B10419   6.344   4.166   7.162  0.2229 -0.3477  0.2096
  696POPI   C2B10420   6.335   4.072   7.544  0.0496  0.0545  0.0053
  696POPI   C3B10421   6.271   3.952   8.005 -0.0959 -0.2736  0.3422
  696POPI   C4B10422   6.351   3.746   8.326 -0.0594 -0.0023 -0.1572
  697POPI    C110423   7.291   4.559   5.957 -0.1586  0.1127 -0.1448
  697POPI    C210424   7.190   4.370   6.295  0.0318  0.0338 -0.1310
  697POPI    C310425   6.912   4.445   6.017 -0.0944 -0.0410 -0.0260
  697POPI   PO410426   7.563   4.451   5.934  0.1812 -0.1278 -0.1581
  697POPI   GL110427   7.718   4.342   6.241  0.1163 -0.1297  0.2646
  697POPI   GL210428   7.640   4.495   6.484 -0.1171  0.3589  0.0921
  697POPI   C1A10429   7.833   4.019   6.526 -0.0667  0.0301  0.0413
  697POPI   D2A10430   8.180   3.785   6.698  0.2724  0.0115  0.0611
  697POPI   C3A10431   8.176   3.552   7.096 -0.1750 -0.3038  0.0197
  697POPI   C4A10432   8.430   3.317   7.325  0.0382  0.0930  0.1076
  697POPI   C1B10433   7.705   4.666   6.923 -0.1754  0.2737 -0.2061
  697POPI   C2B10434   7.811   4.601   7.363 -0.0120  0.1605  0.0648
  697POPI   C3B10435   7.555   4.442   7.724 -0.2919  0.0796  0.0949
  697POPI   C4B10436   7.323   4.125   7.873  0.0572  0.1367 -0.0169
  698POPI    C110437   0.657   2.373   6.106  0.0615 -0.0792  0.0025
  698POPI    C210438   0.790   2.079   6.342  0.0064 -0.2831 -0.2170
  698POPI    C310439   1.050   2.298   6.132  0.0408 -0.2371 -0.1271
  698POPI   PO410440   0.526   2.546   6.301 -0.0145 -0.1179 -0.1595
  698POPI   GL110441   0.466   2.613   6.772 -0.0215 -0.3730 -0.2127
  698POPI   GL210442   0.670   2.680   6.942 -0.2952 -0.0119 -0.2485
  698POPI   C1A10443   0.284   2.606   7.299  0.1243 -0.1685  0.3009
  698POPI   D2A10444   0.230   2.773   7.609  0.0119  0.0625 -0.3432
  698POPI   C3A10445   0.435   2.665   7.935  0.1357  0.1475  0.0688
  698POPI   C4A10446   0.466   2.782   8.319 -0.0419  0.0101 -0.0114
  698POPI   C1B10447   0.455   3.013   7.029 -0.2475 -0.0415  0.0027
  698POPI   C2B10448   0.332   3.400   7.162 -0.1357  0.0051 -0.2763
  698POPI   C3B10449   0.358   3.908   6.991  0.1985  0.0259 -0.0994
  698POPI   C4B10450   0.501   4.237   6.689 -0.0132 -0.1151 -0.1303
  699POPI    C110451  12.716   1.443   6.162 -0.1183  0.0275 -0.0705
  699POPI    C210452  13.038   1.530   6.382 -0.1655  0.2164 -0.0739
  699POPI    C310453  13.074   1.301   6.056 -0.0628  0.1006  0.0178
  699POPI   PO410454  12.471   1.466   6.365 -0.1062  0.3295 -0.1122
  699POPI   GL110455  12.453   1.674   6.701 -0.0360 -0.2965 -0.1383
  699POPI   GL210456  12.788   1.716   6.740  0.1058  0.1761 -0.1565
  699POPI   C1A10457  12.370   1.733   7.057  0.1518 -0.1698 -0.1390
  699POPI   D2A10458  12.354   1.815   7.427 -0.1824  0.0969 -0.2225
  699POPI   C3A10459  12.539   1.690   7.852  0.0558  0.0378 -0.3229
  699POPI   C4A10460  12.417   1.700   8.275  0.1992  0.0941 -0.1034
  699POPI   C1B10461  12.823   1.892   7.155  0.1055 -0.0154 -0.3959
  699POPI   C2B10462  12.951   1.932   7.605  0.0994  0.0429 -0.3541
  699POPI   C3B10463  12.760   2.100   8.010  0.0846  0.1205 -0.0862
  699POPI   C4B10464  12.761   1.948   8.497 -0.2197  0.1853  0.3237
  700POPI    C110465  15.054  16.303   6.131  0.5338 -0.0941 -0.0713
  700POPI    C210466  15.316  16.562   5.975 -0.0989  0.3360 -0.4679
  700POPI    C310467  15.079  16.348   5.734 -0.3798  0.2384 -0.1134
  700POPI   PO410468  15.102  16.241   6.351 -0.3399  0.0923  0.1986
  700POPI   GL110469  15.375  16.117   6.733 -0.0515 -0.0544  0.1921
  700POPI   GL210470  15.339  16.323   7.008  0.1044 -0.0024  0.0137
  700POPI   C1A10471  15.413  15.821   7.132 -0.0502  0.2219 -0.0167
  700POPI   D2A10472  15.291  15.587   7.385 -0.2079  0.0494 -0.0141
  700POPI   C3A10473  15.289  15.506   7.804  0.0689 -0.1588  0.1841
  700POPI   C4A10474  15.310  15.371   8.228 -0.3478 -0.0225  0.2132
  700POPI   C1B10475  15.392  16.227   7.412 -0.2637 -0.0840 -0.0948
  700POPI   C2B10476  15.412  16.093   7.828  0.0874  0.0831  0.0060
  700POPI   C3B10477  15.226  16.042   8.225  0.1053  0.3160 -0.0176
  700POPI   C4B10478  15.360  15.940   8.609 -0.2876 -0.4188  0.0287
  701POPI    C110479   9.701  16.353   6.178  0.1669 -0.0975 -0.0758
  701POPI    C210480   9.800  16.595   5.874  0.4987 -0.1455 -0.0090
  701POPI    C310481   9.509  16.324   5.828  0.0630  0.3162 -0.0588
  701POPI   PO410482   9.613  16.481   6.392 -0.1577 -0.2573  0.0951
  701POPI   GL110483   9.151  16.557   6.524 -0.2991  0.0152 -0.2456
  701POPI   GL210484   9.236  16.835   6.610  0.2054 -0.1595 -0.1671
  701POPI   C1A10485   9.197  16.513   6.959  0.1717 -0.1614 -0.1220
  701POPI   D2A10486   9.046  16.548   7.343 -0.0537 -0.1876  0.2977
  701POPI   C3A10487   9.234  16.307   7.629 -0.6671  0.0531  0.3093
  701POPI   C4A10488   9.247  15.969   7.931  0.2788  0.1046 -0.0931
  701POPI   C1B10489   9.219  17.010   6.974 -0.0966  0.0483  0.0195
  701POPI   C2B10490   8.972  17.051   7.320 -0.1058 -0.5420 -0.0509
  701POPI   C3B10491   9.023  16.868   7.817  0.1081  0.0206 -0.3228
  701POPI   C4B10492   9.010  16.611   8.179  0.0992  0.0842 -0.1297
  702POPI    C110493   0.696   9.355   6.115 -0.2314  0.1777 -0.0045
  702POPI    C210494   0.520   9.714   6.108  0.0872  0.3364 -0.0682
  702POPI    C310495   0.903   9.682   6.217  0.0058 -0.0112  0.1290
  702POPI   PO410496   0.402   9.152   6.075 -0.4378 -0.0312 -0.1599
  702POPI   GL110497   0.308   8.807   6.327  0.1295  0.1640 -0.1005
  702POPI   GL210498   0.056   8.645   6.225  0.0431 -0.0881 -0.0134
  702POPI   C1A10499   0.339   9.067   6.704  0.2600 -0.3129  0.0519
  702POPI   D2A10500   0.651   9.103   6.982  0.1371  0.1547  0.2648
  702POPI   C3A10501   0.701   9.148   7.344  0.0975 -0.2128 -0.0922
  702POPI   C4A10502   0.949   9.494   7.640  0.0501 -0.4527 -0.0237
  702POPI   C1B10503  -0.121   8.712   6.667 -0.0009 -0.0962 -0.0667
  702POPI   C2B10504  -0.148   8.813   7.127  0.1405  0.0326  0.0871
  702POPI   C3B10505  -0.255   9.079   7.542 -0.1005 -0.0865 -0.0771
  702POPI   C4B10506  -0.529   9.203   7.845  0.0760  0.0261  0.1835
  703POPI    C110507   9.841  14.396   5.974 -0.0207  0.1103 -0.0633
  703POPI    C210508   9.683  14.042   5.873 -0.1841  0.1103  0.1843
  703POPI    C310509   9.592  14.370   5.661 -0.2716  0.0560  0.1371
  703POPI   PO410510   9.966  14.394   6.290  0.2726  0.1395 -0.0756
  703POPI   GL110511  10.142  14.383   6.607 -0.1294 -0.0051  0.1477
  703POPI   GL210512   9.884  14.521   6.774  0.0081  0.2960  0.1076
  703POPI   C1A10513  10.352  14.800   6.701  0.0207 -0.3230  0.2062
  703POPI   D2A10514  10.444  15.037   7.049  0.2122 -0.1207 -0.2395
  703POPI   C3A10515  10.437  14.817   7.413 -0.0726  0.0942  0.0079
  703POPI   C4A10516  10.498  14.740   7.850 -0.1481  0.0047 -0.1650
  703POPI   C1B10517  10.102  14.514   7.197 -0.0004 -0.1419 -0.0221
  703POPI   C2B10518  10.054  14.458   7.668 -0.3398  0.1910 -0.0171
  703POPI   C3B10519  10.061  14.471   8.102  0.0840  0.1924  0.3628
  703POPI   C4B10520  10.139  14.636   8.593  0.1401  0.1438  0.0477
  704POPI    C110521   5.702  15.639   6.250  0.0083  0.0128  0.0027
  704POPI    C210522   5.704  16.002   6.082  0.3491 -0.0761 -0.1939
  704POPI    C310523   5.457  15.719   5.945  0.0105  0.1068  0.0253
  704POPI   PO410524   5.617  15.649   6.511 -0.3256  0.1333  0.1365
  704POPI   GL110525   5.890  15.666   6.889  0.0287 -0.0600  0.2354
  704POPI   GL210526   6.189  15.652   6.736  0.1619 -0.0400 -0.0722
  704POPI   C1A10527   6.010  15.670   7.270 -0.0202  0.2235  0.2032
  704POPI   D2A10528   6.378  15.420   7.454  0.1130 -0.1395 -0.2251
  704POPI   C3A10529   6.437  15.287   7.915  0.1521 -0.1530 -0.1726
  704POPI   C4A10530   6.604  15.127   8.277  0.4043 -0.0103 -0.0330
  704POPI   C1B10531   6.563  15.611   7.013 -0.3265  0.1917  0.0064
  704POPI   C2B10532   6.850  15.758   7.347 -0.0871  0.2073  0.2578
  704POPI   C3B10533   6.758  15.712   7.789  0.2161  0.1134 -0.0020
  704POPI   C4B10534   6.859  15.593   8.242 -0.1820  0.1196  0.3580
  705POPI    C110535   5.253  17.440   5.991 -0.0016  0.1778 -0.0460
  705POPI    C210536   5.605  17.414   6.179 -0.0473  0.0682  0.0257
  705POPI    C310537   5.536  17.194   5.851  0.0435  0.2822 -0.1397
  705POPI   PO410538   5.112  17.569   6.179  0.0934 -0.0902  0.1341
  705POPI   GL110539   5.300  17.859   6.478 -0.1321 -0.0858 -0.0228
  705POPI   GL210540   5.506  17.628   6.586  0.0612  0.0574 -0.1415
  705POPI   C1A10541   5.277  18.006   6.921  0.2730 -0.0381 -0.4291
  705POPI   D2A10542   5.435  17.929   7.307 -0.0757 -0.3684  0.0633
  705POPI   C3A10543   5.461  17.806   7.721  0.0373 -0.1972  0.1698
  705POPI   C4A10544   5.443  17.818   8.127  0.0301  0.1891  0.0322
  705POPI   C1B10545   5.638  17.593   7.021  0.3066 -0.0198 -0.0441
  705POPI   C2B10546   5.530  17.335   7.297  0.2238  0.0725  0.0168
  705POPI   C3B10547   5.431  17.214   7.698  0.1892  0.3753 -0.1867
  705POPI   C4B10548   5.716  17.372   7.981  0.3983  0.3444 -0.0569
  706POPI    C110549   4.147   8.672   5.868  0.2357 -0.0650 -0.1161
  706POPI    C210550   3.895   8.869   5.628  0.3176  0.0806 -0.0839
  706POPI    C310551   4.117   8.569   5.483 -0.0563 -0.2169 -0.0553
  706POPI   PO410552   4.223   8.835   6.070 -0.2330 -0.1272  0.3438
  706POPI   GL110553   4.116   9.034   6.458  0.1846  0.0875 -0.2894
  706POPI   GL210554   4.037   9.327   6.404  0.0896  0.0273  0.1003
  706POPI   C1A10555   3.969   8.907   6.884 -0.1461  0.1425  0.2295
  706POPI   D2A10556   3.954   8.816   7.255  0.0218 -0.0118 -0.2136
  706POPI   C3A10557   4.020   9.010   7.680  0.1062 -0.0164 -0.1950
  706POPI   C4A10558   4.183   9.268   7.882  0.1404  0.0580  0.0903
  706POPI   C1B10559   4.193   9.467   6.766 -0.1687 -0.0979 -0.1705
  706POPI   C2B10560   4.206   9.351   7.213  0.0221 -0.3689  0.1649
  706POPI   C3B10561   3.895   9.529   7.410  0.0348  0.2005 -0.2331
  706POPI   C4B10562   3.748   9.657   7.788 -0.0563  0.0770 -0.0423
  707POPI    C110563  17.554  11.079   5.878 -0.0234 -0.0675 -0.1039
  707POPI    C210564  17.199  11.101   6.062  0.0391 -0.0194  0.0122
  707POPI    C310565  17.276  11.333   5.745  0.0233  0.0855  0.0847
  707POPI   PO410566  17.703  11.061   6.047 -0.0888 -0.2620 -0.0761
  707POPI   GL110567  17.619  10.857   6.431 -0.1246 -0.0121 -0.1576
  707POPI   GL210568  17.617  10.470   6.639 -0.0853  0.0798  0.3070
  707POPI   C1A10569  17.608  10.920   6.818 -0.0185 -0.3994 -0.1883
  707POPI   D2A10570  17.709  10.870   7.176 -0.2068 -0.0449  0.1818
  707POPI   C3A10571  17.707  10.683   7.511 -0.0160  0.0657 -0.0941
  707POPI   C4A10572  17.811  10.620   7.843 -0.0779 -0.0219 -0.0774
  707POPI   C1B10573  17.712  10.357   7.162 -0.1585 -0.0274  0.0687
  707POPI   C2B10574  17.751  10.207   7.575 -0.0884  0.1939  0.0301
  707POPI   C3B10575  17.597   9.922   7.868  0.1618 -0.0987 -0.0072
  707POPI   C4B10576  17.756   9.644   8.193 -0.0742 -0.0678  0.3738
  708POPI    C110577  16.231   1.820   5.806 -0.0781 -0.0226 -0.1977
  708POPI    C210578  16.481   2.096   5.658  0.1145 -0.1874 -0.1852
  708POPI    C310579  16.562   1.707   5.612 -0.0239 -0.2426  0.0173
  708POPI   PO410580  16.169   1.793   6.028 -0.0755  0.0098 -0.3598
  708POPI   GL110581  16.076   1.984   6.403 -0.0857  0.0149  0.1315
  708POPI   GL210582  15.879   2.191   6.562  0.3190  0.0718  0.2109
  708POPI   C1A10583  16.134   1.933   6.872  0.2894 -0.0812 -0.0091
  708POPI   D2A10584  16.127   1.952   7.273  0.2752 -0.2442  0.1869
  708POPI   C3A10585  16.010   1.599   7.579  0.0243 -0.0475  0.0046
  708POPI   C4A10586  15.958   1.467   7.988  0.0339  0.0489 -0.2112
  708POPI   C1B10587  15.816   2.301   7.003  0.0354  0.0338  0.0841
  708POPI   C2B10588  15.807   2.437   7.504 -0.1479  0.1624 -0.2082
  708POPI   C3B10589  15.979   2.398   7.859  0.0256  0.1978  0.1851
  708POPI   C4B10590  15.970   2.427   8.285  0.2774 -0.2152 -0.0305
  709POPI    C110591  13.382   6.179   5.864  0.0790  0.2944  0.1403
  709POPI    C210592  13.647   6.368   5.632  0.2687  0.0376  0.1431
  709POPI    C310593  13.638   5.968   5.640 -0.1265  0.0427  0.1375
  709POPI   PO410594  13.218   6.529   5.933 -0.3277 -0.0413 -0.2411
  709POPI   GL110595  13.216   6.893   6.184 -0.0564 -0.1760 -0.1164
  709POPI   GL210596  13.154   7.244   6.266  0.1377  0.2081 -0.1349
  709POPI   C1A10597  13.205   6.753   6.578 -0.1025  0.2433  0.1142
  709POPI   D2A10598  13.298   6.629   7.014 -0.0398  0.2641 -0.0313
  709POPI   C3A10599  13.512   6.411   7.165  0.1289 -0.0260  0.0616
  709POPI   C4A10600  13.536   6.139   7.452  0.3830  0.0577  0.0282
  709POPI   C1B10601  13.273   7.255   6.607  0.3086 -0.0153  0.0712
  709POPI   C2B10602  13.332   7.109   6.958  0.0073  0.1005 -0.0286
  709POPI   C3B10603  13.387   6.897   7.440 -0.1024 -0.2136 -0.2650
  709POPI   C4B10604  13.203   6.922   7.912 -0.2850  0.1810  0.1435
  710POPI    C110605   3.187  15.113   6.244  0.0128  0.4724 -0.0419
  710POPI    C210606   3.335  15.281   5.912  0.2547  0.1963 -0.0775
  710POPI    C310607   3.458  14.917   6.024 -0.1300  0.1149  0.0945
  710POPI   PO410608   3.048  15.315   6.440  0.1935 -0.2233  0.0458
  710POPI   GL110609   2.850  15.399   6.820  0.2135 -0.1136 -0.0722
  710POPI   GL210610   2.690  15.722   6.874  0.0028 -0.0269  0.0522
  710POPI   C1A10611   2.740  15.118   7.051  0.0530  0.0253  0.2160
  710POPI   D2A10612   2.980  14.844   7.325 -0.1921  0.2334  0.1617
  710POPI   C3A10613   2.935  14.578   7.069  0.1555  0.0207 -0.0076
  710POPI   C4A10614   3.072  14.340   6.788 -0.1610 -0.1335 -0.0364
  710POPI   C1B10615   2.783  15.666   7.320  0.2407 -0.1148 -0.2526
  710POPI   C2B10616   2.848  15.595   7.721  0.0566  0.1421 -0.1985
  710POPI   C3B10617   3.035  15.524   8.121  0.1716  0.0050  0.0166
  710POPI   C4B10618   3.094  15.101   8.317  0.0699  0.0492 -0.0905
  711POPI    C110619  12.105   0.944   5.977  0.1814  0.0690  0.1958
  711POPI    C210620  11.942   1.278   5.828 -0.2962 -0.0709  0.3846
  711POPI    C310621  12.335   1.261   5.898 -0.1621  0.2237 -0.2286
  711POPI   PO410622  12.062   0.947   6.214  0.0966 -0.0830  0.1639
  711POPI   GL110623  12.121   0.980   6.584 -0.0969 -0.3056  0.2986
  711POPI   GL210624  12.391   1.063   6.727  0.4250 -0.0128 -0.0995
  711POPI   C1A10625  12.010   0.809   6.945  0.0366  0.2673  0.2314
  711POPI   D2A10626  12.138   0.942   7.393  0.2917  0.0915 -0.1834
  711POPI   C3A10627  12.373   0.690   7.664 -0.3705 -0.0077 -0.0168
  711POPI   C4A10628  12.413   0.410   7.949 -0.3673  0.1948 -0.5099
  711POPI   C1B10629  12.079   1.325   6.947 -0.5024  0.1895 -0.0495
  711POPI   C2B10630  11.978   1.505   7.378  0.1259 -0.2853  0.3436
  711POPI   C3B10631  11.978   1.744   7.754 -0.1761 -0.0760  0.2497
  711POPI   C4B10632  11.883   1.816   8.249 -0.0078  0.2249  0.2649
  712POPI    C110633  11.890  10.026   5.647 -0.0396 -0.0217  0.0919
  712POPI    C210634  12.147   9.720   5.630 -0.0402 -0.0114 -0.1507
  712POPI    C310635  12.237  10.065   5.451 -0.1329  0.0612 -0.0586
  712POPI   PO410636  11.868  10.096   5.915  0.0342 -0.0579 -0.1187
  712POPI   GL110637  12.029  10.261   6.237 -0.2813  0.4848  0.0421
  712POPI   GL210638  11.768  10.419   6.331 -0.1662 -0.2931  0.3143
  712POPI   C1A10639  12.240  10.067   6.541  0.0064 -0.2804 -0.2805
  712POPI   D2A10640  12.599   9.933   6.784  0.1262 -0.1287  0.0197
  712POPI   C3A10641  12.519  10.058   7.233  0.0009 -0.1111 -0.1697
  712POPI   C4A10642  12.394  10.100   7.691  0.0835  0.0760 -0.1570
  712POPI   C1B10643  11.593  10.180   6.736 -0.2631  0.0846 -0.0911
  712POPI   C2B10644  11.458  10.197   7.157 -0.0756  0.3573 -0.0679
  712POPI   C3B10645  11.261  10.093   7.572 -0.1355  0.1600 -0.0153
  712POPI   C4B10646  10.996  10.192   8.026 -0.0319 -0.1333 -0.0601
  713POPI    C110647  16.944   9.721   5.698 -0.1801  0.0199 -0.1458
  713POPI    C210648  16.595   9.566   5.580 -0.1671 -0.0727 -0.0644
  713POPI    C310649  16.634   9.962   5.621 -0.2229 -0.0523 -0.2007
  713POPI   PO410650  16.971   9.609   5.957  0.1047  0.1923  0.0839
  713POPI   GL110651  16.592   9.642   6.162  0.0392  0.3695  0.1396
  713POPI   GL210652  16.499   9.976   6.112  0.0072  0.2334  0.1125
  713POPI   C1A10653  16.336   9.744   6.558 -0.1242 -0.0548 -0.0455
  713POPI   D2A10654  16.376  10.010   6.886  0.0739  0.1615  0.1298
  713POPI   C3A10655  16.187  10.098   7.313 -0.0411  0.1747  0.1317
  713POPI   C4A10656  15.924  10.014   7.652  0.2568  0.0488 -0.0214
  713POPI   C1B10657  16.555  10.253   6.414  0.0100  0.0409  0.3218
  713POPI   C2B10658  16.723  10.382   6.745  0.2344 -0.1130  0.0865
  713POPI   C3B10659  16.746  10.238   7.106  0.1199 -0.0177 -0.4048
  713POPI   C4B10660  16.723   9.825   7.340 -0.1146  0.2607  0.0404
  714POPI    C110661  13.662  14.814   6.251  0.0125  0.1344  0.0477
  714POPI    C210662  13.690  15.096   5.968  0.1064 -0.0627 -0.1423
  714POPI    C310663  13.392  14.829   5.956  0.0040  0.0414  0.0503
  714POPI   PO410664  13.676  15.038   6.468 -0.0685 -0.2874 -0.0796
  714POPI   GL110665  13.306  15.096   6.743 -0.1903 -0.0615  0.1379
  714POPI   GL210666  13.266  14.786   6.571 -0.1099 -0.0684 -0.1869
  714POPI   C1A10667  13.266  15.136   7.121  0.0942  0.0694 -0.1945
  714POPI   D2A10668  13.439  15.350   7.504  0.2896 -0.1471  0.2867
  714POPI   C3A10669  13.256  15.469   7.888 -0.0188  0.0626 -0.1979
  714POPI   C4A10670  13.444  15.328   8.287 -0.1868 -0.3256  0.1322
  714POPI   C1B10671  13.446  14.595   6.899 -0.2750  0.1039 -0.0837
  714POPI   C2B10672  13.397  14.679   7.403 -0.1220  0.2394  0.1791
  714POPI   C3B10673  13.313  14.950   7.778 -0.2666 -0.1089 -0.0298
  714POPI   C4B10674  13.143  14.929   8.167 -0.3165  0.2237  0.1842
  715POPI    C110675   3.876   8.042   6.244 -0.2036 -0.2688  0.0524
  715POPI    C210676   3.590   8.074   5.966 -0.0228 -0.0025 -0.1075
  715POPI    C310677   3.790   7.730   6.008 -0.2580 -0.1408 -0.0983
  715POPI   PO410678   4.010   8.244   6.178  0.0752  0.0876  0.2508
  715POPI   GL110679   4.295   8.561   6.460 -0.0260  0.0990  0.1164
  715POPI   GL210680   4.573   8.517   6.642 -0.2353  0.0159  0.2796
  715POPI   C1A10681   4.147   8.407   6.858  0.4450 -0.0515 -0.4402
  715POPI   D2A10682   4.115   8.331   7.349  0.0184  0.2348  0.0761
  715POPI   C3A10683   3.868   8.160   7.726 -0.5340  0.0563  0.1618
  715POPI   C4A10684   3.690   7.765   7.909  0.1917 -0.1164 -0.0963
  715POPI   C1B10685   4.585   8.292   6.995  0.1277 -0.0829 -0.0373
  715POPI   C2B10686   4.645   8.353   7.420 -0.0207  0.2736  0.0445
  715POPI   C3B10687   4.820   8.433   7.911  0.5364 -0.1478  0.3113
  715POPI   C4B10688   5.077   8.612   8.041  0.1818 -0.1626 -0.0497
  716POPI    C110689   4.972   6.869   5.956  0.0070  0.1021 -0.2191
  716POPI    C210690   4.619   6.799   6.131  0.1217  0.1279  0.0266
  716POPI    C310691   4.716   6.607   5.794 -0.0453 -0.0270  0.0648
  716POPI   PO410692   5.105   6.912   6.173 -0.1642 -0.1527 -0.0639
  716POPI   GL110693   5.010   6.973   6.643  0.1101 -0.1105  0.1672
  716POPI   GL210694   4.703   7.083   6.533  0.0067  0.0610  0.0053
  716POPI   C1A10695   4.985   7.091   7.132 -0.2636  0.2916  0.2542
  716POPI   D2A10696   5.010   7.157   7.541 -0.1292 -0.0216 -0.4161
  716POPI   C3A10697   5.387   7.199   7.680 -0.0699  0.2182  0.0561
  716POPI   C4A10698   5.713   7.406   7.883 -0.1398 -0.3408  0.2487
  716POPI   C1B10699   4.560   7.036   6.891 -0.1811  0.1410 -0.2032
  716POPI   C2B10700   4.533   6.991   7.324 -0.2009 -0.1096 -0.1158
  716POPI   C3B10701   4.354   7.069   7.626 -0.2650 -0.3115 -0.2499
  716POPI   C4B10702   4.178   7.009   7.990 -0.1337  0.2030 -0.0671
  717POPI    C110703  10.307   6.859   5.715  0.2656  0.3207 -0.0873
  717POPI    C210704  10.588   6.673   5.500  0.1452  0.0345 -0.0035
  717POPI    C310705  10.236   6.763   5.334  0.1125 -0.0377  0.0266
  717POPI   PO410706  10.190   6.768   5.872  0.2377  0.1536  0.0634
  717POPI   GL110707  10.085   6.713   6.256 -0.1185 -0.1160  0.1164
  717POPI   GL210708   9.947   6.351   6.382  0.3313  0.3164 -0.2056
  717POPI   C1A10709  10.244   6.797   6.735 -0.1652 -0.0535 -0.3043
  717POPI   D2A10710  10.319   6.593   7.137 -0.1901  0.0540 -0.2230
  717POPI   C3A10711  10.221   6.670   7.464  0.0837  0.1251 -0.0921
  717POPI   C4A10712  10.077   6.555   7.868 -0.3634 -0.2815 -0.1084
  717POPI   C1B10713   9.902   6.391   6.866 -0.0782  0.1200  0.0804
  717POPI   C2B10714   9.822   6.437   7.312  0.0471  0.0835  0.0358
  717POPI   C3B10715   9.586   6.588   7.708  0.1760  0.1869 -0.0875
  717POPI   C4B10716   9.545   6.917   7.993 -0.1158  0.2298  0.1573
  718POPI    C110717   8.611   5.365   5.586  0.0566  0.0237  0.1508
  718POPI    C210718   8.991   5.489   5.603  0.0735 -0.0147  0.0611
  718POPI    C310719   8.693   5.756   5.603  0.1048  0.0205  0.0050
  718POPI   PO410720   8.605   5.183   5.863 -0.0958 -0.1802 -0.1252
  718POPI   GL110721   8.498   5.232   6.302 -0.2126  0.1575 -0.0007
  718POPI   GL210722   8.399   5.512   6.433  0.2128  0.1314  0.1592
  718POPI   C1A10723   8.491   5.048   6.702 -0.0390 -0.1762  0.0091
  718POPI   D2A10724   8.398   5.272   7.101  0.1358 -0.0331  0.2051
  718POPI   C3A10725   8.540   5.117   7.366  0.1006  0.0463  0.1588
  718POPI   C4A10726   8.829   4.678   7.388  0.0089  0.2888  0.3895
  718POPI   C1B10727   8.761   5.495   6.691 -0.1484 -0.5630 -0.1395
  718POPI   C2B10728   8.812   5.580   7.120 -0.1546  0.1318  0.0521
  718POPI   C3B10729   8.876   5.477   7.523  0.3736 -0.0001 -0.0947
  718POPI   C4B10730   9.042   5.742   7.932  0.1784  0.0594 -0.1700
  719POPI    C110731  13.602   1.035   6.262 -0.0490  0.1919  0.0078
  719POPI    C210732  13.439   1.024   5.897 -0.1748 -0.0747  0.0695
  719POPI    C310733  13.515   0.684   6.092 -0.1166  0.0664  0.2964
  719POPI   PO410734  13.496   1.231   6.371 -0.0561  0.1318  0.1608
  719POPI   GL110735  13.323   1.266   6.765  0.0743  0.0071  0.0923
  719POPI   GL210736  13.218   1.529   6.842  0.1068  0.1533 -0.1568
  719POPI   C1A10737  13.677   1.306   7.082 -0.3031 -0.0939  0.2383
  719POPI   D2A10738  13.495   1.254   7.458  0.3476  0.1142 -0.1063
  719POPI   C3A10739  13.402   0.971   7.843  0.0210 -0.1174  0.0256
  719POPI   C4A10740  13.255   0.775   8.128 -0.1317  0.0255  0.1424
  719POPI   C1B10741  13.256   1.632   7.273 -0.0266  0.0316 -0.1325
  719POPI   C2B10742  13.441   1.729   7.651 -0.1311 -0.0854  0.1820
  719POPI   C3B10743  13.601   1.810   8.117  0.0663  0.2433 -0.2577
  719POPI   C4B10744  13.769   1.809   8.475  0.1779 -0.2384  0.1412
  720POPI    C110745  14.538  14.104   6.148 -0.0521 -0.1131 -0.1979
  720POPI    C210746  14.464  14.485   6.245 -0.2128 -0.2128  0.0843
  720POPI    C310747  14.799  14.390   6.049 -0.0579  0.0437  0.2193
  720POPI   PO410748  14.549  13.950   6.406 -0.0216  0.1122  0.0523
  720POPI   GL110749  14.429  13.758   6.806  0.1110  0.0085  0.2039
  720POPI   GL210750  14.541  13.459   6.705  0.0922 -0.0732  0.2481
  720POPI   C1A10751  14.253  13.497   7.110  0.1566 -0.2700 -0.2472
  720POPI   D2A10752  14.453  13.348   7.445  0.2072 -0.0229 -0.0254
  720POPI   C3A10753  14.334  13.377   7.886  0.0615  0.0204  0.0577
  720POPI   C4A10754  14.148  13.361   8.313 -0.1114 -0.0150  0.1488
  720POPI   C1B10755  14.745  13.484   7.035 -0.0011  0.0494 -0.1335
  720POPI   C2B10756  14.918  13.360   7.537  0.2017  0.1355 -0.0473
  720POPI   C3B10757  14.910  13.267   7.980  0.3502 -0.1930 -0.0295
  720POPI   C4B10758  15.048  13.295   8.442  0.1582  0.0332  0.0292
  721POPI    C110759  10.487  14.436   6.220 -0.0080  0.2459  0.0702
  721POPI    C210760  10.315  14.363   5.865  0.3678  0.2240 -0.1122
  721POPI    C310761  10.272  14.721   6.039  0.0290  0.1747 -0.0883
  721POPI   PO410762  10.800  14.267   6.126  0.1050 -0.1075  0.1237
  721POPI   GL110763  11.042  14.329   6.474 -0.2607 -0.0919 -0.0614
  721POPI   GL210764  10.871  14.594   6.611  0.0438  0.1438 -0.0570
  721POPI   C1A10765  11.107  13.980   6.715  0.3537 -0.2212 -0.2282
  721POPI   D2A10766  10.840  13.591   6.727 -0.2476 -0.1358  0.2382
  721POPI   C3A10767  10.779  13.546   7.120 -0.3595  0.1048 -0.0986
  721POPI   C4A10768  10.696  13.538   7.520  0.0249  0.3292  0.1247
  721POPI   C1B10769  10.777  14.610   7.057 -0.2416  0.2257  0.1236
  721POPI   C2B10770  10.696  14.353   7.461 -0.1972 -0.0087  0.1822
  721POPI   C3B10771  10.431  14.206   7.911  0.2641 -0.2498  0.0224
  721POPI   C4B10772  10.471  14.327   8.362  0.0769 -0.0927 -0.2477
  722POPI    C110773   7.442  15.716   6.405 -0.0054 -0.1797  0.0635
  722POPI    C210774   7.797  15.541   6.461  0.0933 -0.1414 -0.4024
  722POPI    C310775   7.519  15.362   6.236 -0.1089 -0.0741 -0.2105
  722POPI   PO410776   7.478  15.986   6.471 -0.1993  0.1837  0.1850
  722POPI   GL110777   7.537  16.023   6.801  0.0061 -0.0052  0.0617
  722POPI   GL210778   7.809  16.271   6.897  0.0174  0.1998  0.1729
  722POPI   C1A10779   7.209  16.036   7.114  0.1133 -0.2480 -0.0652
  722POPI   D2A10780   7.271  16.187   7.507 -0.0994  0.1846 -0.0385
  722POPI   C3A10781   7.125  16.010   7.870  0.3370 -0.0945  0.2942
  722POPI   C4A10782   7.166  16.117   8.368  0.0570  0.0162 -0.0522
  722POPI   C1B10783   7.559  16.458   7.288 -0.1538 -0.1971  0.1147
  722POPI   C2B10784   7.527  16.709   7.590  0.1217 -0.1637  0.0609
  722POPI   C3B10785   7.709  16.975   7.857  0.3076 -0.0366 -0.0746
  722POPI   C4B10786   7.917  17.232   8.163  0.0319  0.0098  0.0666
  723POPI    C110787   5.015   5.635   5.750  0.1763  0.0349  0.0943
  723POPI    C210788   5.365   5.798   5.645  0.1457 -0.0916 -0.2132
  723POPI    C310789   5.034   6.022   5.651  0.2326  0.0332  0.0982
  723POPI   PO410790   5.022   5.496   5.984 -0.0571  0.2212  0.0325
  723POPI   GL110791   5.045   5.536   6.416  0.1206 -0.3135 -0.1251
  723POPI   GL210792   4.700   5.761   6.534 -0.0187 -0.0304  0.1745
  723POPI   C1A10793   5.189   5.370   6.869  0.0754 -0.1390 -0.2347
  723POPI   D2A10794   5.380   5.251   7.284  0.0585  0.2139 -0.3727
  723POPI   C3A10795   5.253   4.970   7.680  0.3241 -0.0218  0.0956
  723POPI   C4A10796   5.397   4.912   8.086 -0.1584 -0.0962 -0.1449
  723POPI   C1B10797   4.660   5.551   6.925 -0.0969  0.0480  0.0463
  723POPI   C2B10798   4.538   5.687   7.332 -0.0078  0.1530  0.0332
  723POPI   C3B10799   4.527   5.711   7.733 -0.1570 -0.0255  0.4280
  723POPI   C4B10800   4.497   5.589   8.109  0.2980  0.1631 -0.3208
  724POPI    C110801  15.267   5.991   5.743  0.0117  0.0784 -0.0731
  724POPI    C210802  14.958   5.811   5.564 -0.0891  0.1606  0.0172
  724POPI    C310803  15.203   6.045   5.352 -0.0143 -0.0044 -0.0805
  724POPI   PO410804  15.060   6.073   5.964 -0.2768  0.1204  0.0002
  724POPI   GL110805  15.163   5.939   6.382 -0.0945 -0.0065 -0.1865
  724POPI   GL210806  15.129   5.629   6.513 -0.1755 -0.1501  0.1968
  724POPI   C1A10807  15.098   6.029   6.828  0.2674  0.1250 -0.1298
  724POPI   D2A10808  15.094   6.156   7.272  0.1941  0.1573 -0.0235
  724POPI   C3A10809  14.777   5.863   7.539 -0.1326 -0.0201 -0.0953
  724POPI   C4A10810  14.685   5.771   7.953  0.1216  0.1178  0.0767
  724POPI   C1B10811  15.026   5.494   6.948 -0.0584  0.0991 -0.1136
  724POPI   C2B10812  15.101   5.614   7.234  0.0551  0.3662 -0.1185
  724POPI   C3B10813  15.055   5.501   7.674 -0.0740 -0.0619  0.0646
  724POPI   C4B10814  15.320   5.295   8.072  0.0196 -0.1125  0.0139
  725POPI    C110815   4.247  11.640   6.109 -0.1620  0.1175  0.2289
  725POPI    C210816   3.918  11.447   5.989 -0.0561 -0.0639  0.2263
  725POPI    C310817   4.009  11.804   5.832 -0.0763 -0.1635 -0.0156
  725POPI   PO410818   4.244  11.611   6.334  0.1300 -0.2304  0.2982
  725POPI   GL110819   4.539  11.593   6.685  0.3228 -0.0980  0.0580
  725POPI   GL210820   4.724  11.835   6.433 -0.0239 -0.1188 -0.2270
  725POPI   C1A10821   4.779  11.740   7.074 -0.0259 -0.1888 -0.0388
  725POPI   D2A10822   4.977  11.757   7.439  0.0920 -0.0198 -0.3130
  725POPI   C3A10823   4.910  12.175   7.793 -0.1008 -0.1265  0.0385
  725POPI   C4A10824   5.019  12.310   8.166 -0.1104  0.0658 -0.1594
  725POPI   C1B10825   5.068  11.737   6.709  0.0379 -0.0285 -0.1319
  725POPI   C2B10826   5.287  11.971   7.106  0.0601  0.1395  0.1112
  725POPI   C3B10827   5.360  12.079   7.599  0.0797 -0.0189 -0.2086
  725POPI   C4B10828   5.493  12.226   7.947 -0.0374 -0.1477 -0.3652
  726POPI    C110829  14.395   2.166   6.122  0.1295 -0.0694 -0.2489
  726POPI    C210830  14.106   2.331   5.900 -0.0794 -0.1654 -0.0535
  726POPI    C310831  14.419   2.155   5.723 -0.1061 -0.0031 -0.2666
  726POPI   PO410832  14.565   2.431   6.270 -0.1061 -0.1363 -0.1869
  726POPI   GL110833  14.696   2.662   6.620 -0.2126  0.3495 -0.0007
  726POPI   GL210834  14.918   2.368   6.791  0.1686 -0.0979 -0.0410
  726POPI   C1A10835  14.574   2.971   7.006 -0.1771 -0.1764 -0.1170
  726POPI   D2A10836  14.595   3.188   7.408  0.1301 -0.0574  0.5729
  726POPI   C3A10837  14.640   3.017   7.791  0.0579 -0.1305 -0.2554
  726POPI   C4A10838  14.511   2.633   7.971  0.1195 -0.1005 -0.2766
  726POPI   C1B10839  14.846   2.382   7.192  0.1504  0.1346  0.2351
  726POPI   C2B10840  14.796   2.418   7.665 -0.1008  0.0388  0.0540
  726POPI   C3B10841  14.975   2.375   8.129  0.0161  0.3701 -0.1082
  726POPI   C4B10842  15.016   2.381   8.615  0.0794 -0.0700  0.1932
  727POPI    C110843   6.300   0.068   6.041 -0.1730  0.0041 -0.1400
  727POPI    C210844   6.415  -0.232   5.802 -0.1949 -0.0771 -0.0496
  727POPI    C310845   6.340   0.130   5.648  0.1801 -0.0219 -0.1108
  727POPI   PO410846   6.197  -0.025   6.232  0.0666 -0.0522 -0.1771
  727POPI   GL110847   5.994  -0.269   6.497 -0.0714 -0.2016  0.0687
  727POPI   GL210848   6.210  -0.545   6.688  0.1907  0.0378 -0.0011
  727POPI   C1A10849   5.714  -0.517   6.837 -0.0445 -0.0473 -0.0898
  727POPI   D2A10850   6.027  -0.549   7.181  0.2170  0.0911 -0.1667
  727POPI   C3A10851   6.399  -0.469   7.495  0.1800 -0.3306 -0.0748
  727POPI   C4A10852   6.630  -0.605   7.831 -0.1587  0.0998 -0.0074
  727POPI   C1B10853   6.428  -0.660   6.964 -0.0513  0.1644  0.2119
  727POPI   C2B10854   6.697  -0.769   7.275 -0.0091 -0.0998  0.1768
  727POPI   C3B10855   7.009  -0.995   7.642 -0.1874  0.3235 -0.2170
  727POPI   C4B10856   7.296  -1.186   7.949 -0.1615  0.0577  0.2957
  728POPI    C110857   6.718  10.912   6.010 -0.3371  0.0640 -0.0002
  728POPI    C210858   6.728  11.312   6.026 -0.1801  0.0554  0.1445
  728POPI    C310859   6.976  11.115   5.781 -0.1369  0.0402  0.2000
  728POPI   PO410860   6.515  10.757   6.264 -0.0473 -0.0569  0.0031
  728POPI   GL110861   6.616  10.765   6.746 -0.0228 -0.1004 -0.0664
  728POPI   GL210862   6.664  10.464   6.720  0.0562  0.1084  0.3531
  728POPI   C1A10863   6.507  10.979   7.087  0.0060  0.0851 -0.0731
  728POPI   D2A10864   6.546  10.793   7.546  0.0322 -0.0261 -0.0682
  728POPI   C3A10865   6.487  11.092   7.976  0.3175  0.3616  0.2247
  728POPI   C4A10866   6.137  11.432   7.945 -0.0346 -0.4446 -0.1365
  728POPI   C1B10867   6.797  10.034   6.963  0.1648 -0.0806  0.2814
  728POPI   C2B10868   7.043   9.784   7.279 -0.0861  0.2330  0.0962
  728POPI   C3B10869   7.087   9.458   7.620  0.0430 -0.2879 -0.5239
  728POPI   C4B10870   7.094   9.330   7.990 -0.1522 -0.0408  0.2307
  729POPI    C110871   4.162   5.994   6.285 -0.0717  0.1208  0.0279
  729POPI    C210872   3.879   5.779   6.102  0.2143 -0.2355 -0.0074
  729POPI    C310873   4.206   5.891   5.901  0.2399 -0.0864  0.1153
  729POPI   PO410874   4.180   5.840   6.519  0.2162 -0.0983  0.0071
  729POPI   GL110875   4.118   5.630   6.942  0.0671 -0.0165 -0.2654
  729POPI   GL210876   4.259   5.371   6.745 -0.2083 -0.1186  0.0301
  729POPI   C1A10877   3.985   5.532   7.339 -0.1483 -0.0485  0.0951
  729POPI   D2A10878   4.050   5.593   7.789  0.1975  0.0413  0.2858
  729POPI   C3A10879   3.925   5.315   8.145 -0.2657  0.1337  0.1546
  729POPI   C4A10880   3.925   4.885   8.260 -0.0330  0.0042  0.0871
  729POPI   C1B10881   4.294   5.111   7.097 -0.1342 -0.0732 -0.0755
  729POPI   C2B10882   4.380   5.246   7.564  0.2079 -0.0394  0.1478
  729POPI   C3B10883   4.306   5.043   7.843 -0.1638 -0.1452 -0.0863
  729POPI   C4B10884   4.398   4.757   8.333 -0.2437  0.0283  0.0187
  730POPI    C110885  15.601   7.384   5.658  0.1660  0.1378  0.1133
  730POPI    C210886  15.971   7.499   5.556  0.1895 -0.0719 -0.0447
  730POPI    C310887  15.807   7.176   5.385  0.0246 -0.1205  0.2001
  730POPI   PO410888  15.595   7.416   5.972  0.0571  0.0317 -0.1107
  730POPI   GL110889  15.415   7.623   6.305 -0.1051 -0.4032  0.1230
  730POPI   GL210890  15.683   7.795   6.366  0.0178 -0.1542 -0.1948
  730POPI   C1A10891  15.329   7.447   6.747 -0.1234 -0.1605  0.0337
  730POPI   D2A10892  15.308   7.422   7.242  0.1505  0.0056 -0.1988
  730POPI   C3A10893  15.377   7.843   7.513 -0.0342 -0.2500  0.1299
  730POPI   C4A10894  15.457   8.187   7.823 -0.5061  0.0825  0.2205
  730POPI   C1B10895  15.818   7.694   6.783 -0.1142  0.0982  0.2163
  730POPI   C2B10896  15.780   7.581   7.228  0.1104 -0.1022 -0.1595
  730POPI   C3B10897  15.878   7.814   7.544 -0.0061  0.0908  0.0016
  730POPI   C4B10898  15.982   7.902   7.913 -0.0293  0.0476  0.1460
  731POPI    C110899   3.419   7.492   5.725 -0.0701 -0.1418  0.1066
  731POPI    C210900   3.468   7.154   5.517 -0.2360  0.0367 -0.2305
  731POPI    C310901   3.757   7.430   5.520 -0.0303 -0.1740  0.1817
  731POPI   PO410902   3.296   7.386   5.942  0.1526 -0.0996  0.1590
  731POPI   GL110903   3.120   7.451   6.396 -0.1458 -0.0920 -0.3904
  731POPI   GL210904   2.752   7.393   6.570 -0.1988  0.0349 -0.0875
  731POPI   C1A10905   3.264   7.814   6.630 -0.1566  0.1943 -0.2073
  731POPI   D2A10906   3.664   7.895   6.747  0.0261  0.1972 -0.1365
  731POPI   C3A10907   3.834   8.024   7.070  0.0513 -0.3949 -0.0919
  731POPI   C4A10908   3.816   7.815   7.356 -0.3745  0.3592  0.2607
  731POPI   C1B10909   2.630   7.283   6.970  0.1415 -0.2423 -0.5504
  731POPI   C2B10910   2.723   7.173   7.294 -0.0628 -0.0267 -0.2687
  731POPI   C3B10911   2.890   7.397   7.589 -0.1170  0.1083 -0.0308
  731POPI   C4B10912   2.893   7.302   8.000 -0.1504  0.1401 -0.0724
  732POPI    C110913  16.485   0.728   6.366 -0.1336 -0.0831 -0.1520
  732POPI    C210914  16.749   0.862   6.098 -0.2286  0.1996 -0.1077
  732POPI    C310915  16.365   0.972   6.073 -0.2167  0.3218  0.2097
  732POPI   PO410916  16.627   0.759   6.566  0.0987 -0.0975 -0.1855
  732POPI   GL110917  16.721   0.471   6.882  0.3018 -0.0999  0.2928
  732POPI   GL210918  16.582   0.232   7.062 -0.1396 -0.0410  0.0380
  732POPI   C1A10919  16.813   0.519   7.359  0.1592  0.1504  0.2755
  732POPI   D2A10920  16.895   0.562   7.826 -0.1488  0.1046 -0.1418
  732POPI   C3A10921  16.776   0.696   8.287 -0.0103 -0.1411 -0.0828
  732POPI   C4A10922  16.687   0.422   8.606  0.1153  0.1238 -0.1854
  732POPI   C1B10923  16.585   0.084   7.502 -0.2971  0.1602 -0.3474
  732POPI   C2B10924  16.646   0.040   7.821  0.2229  0.0581  0.2016
  732POPI   C3B10925  16.796   0.150   8.235 -0.0774  0.2384 -0.1023
  732POPI   C4B10926  17.080   0.001   8.608  0.3452 -0.1819 -0.0543
  733POPI    C110927   6.654   7.963   5.750 -0.1596  0.1054  0.2294
  733POPI    C210928   6.313   8.126   5.619 -0.1251  0.0279  0.0387
  733POPI    C310929   6.450   7.789   5.453 -0.0309 -0.0214  0.2139
  733POPI   PO410930   6.628   8.037   6.014  0.1462 -0.2350  0.1583
  733POPI   GL110931   6.506   7.868   6.474  0.2605  0.1678 -0.1872
  733POPI   GL210932   6.587   7.650   6.672  0.0200 -0.1468 -0.0304
  733POPI   C1A10933   6.237   8.132   6.755 -0.2862 -0.0496 -0.0598
  733POPI   D2A10934   6.316   8.441   7.084 -0.1348  0.0354  0.3735
  733POPI   C3A10935   6.231   8.392   7.544 -0.1463 -0.3229  0.2568
  733POPI   C4A10936   6.062   8.309   7.917 -0.1507 -0.0234 -0.1612
  733POPI   C1B10937   6.325   7.617   7.053  0.1404 -0.0407  0.1236
  733POPI   C2B10938   5.877   7.501   7.017 -0.2055 -0.1391 -0.0790
  733POPI   C3B10939   5.550   7.451   7.273 -0.1698  0.2349  0.0924
  733POPI   C4B10940   5.158   7.609   7.056 -0.2051  0.2902 -0.0957
  734POPI    C110941   8.374   7.034   5.796  0.2407  0.2556  0.0447
  734POPI    C210942   8.478   6.901   5.433 -0.1075  0.0138  0.0282
  734POPI    C310943   8.540   7.284   5.532  0.3878 -0.0190 -0.1282
  734POPI   PO410944   8.554   6.889   5.970  0.1497  0.0273 -0.1866
  734POPI   GL110945   8.767   6.994   6.410 -0.1758 -0.0526  0.1061
  734POPI   GL210946   8.447   7.066   6.500 -0.1690  0.1977 -0.1438
  734POPI   C1A10947   8.624   6.672   6.752  0.3861  0.1100 -0.0718
  734POPI   D2A10948   8.585   6.632   7.096 -0.0003  0.0098  0.2777
  734POPI   C3A10949   8.854   6.484   7.433 -0.1203  0.3788 -0.3014
  734POPI   C4A10950   9.098   6.588   7.840  0.2137  0.1336  0.0558
  734POPI   C1B10951   8.131   7.298   6.626 -0.1430 -0.1795 -0.0903
  734POPI   C2B10952   7.781   7.534   6.893 -0.3309 -0.1464 -0.1540
  734POPI   C3B10953   7.981   7.726   7.334  0.1571 -0.2748  0.0901
  734POPI   C4B10954   8.154   7.635   7.641 -0.0978 -0.2291 -0.0984
  735POPI    C110955   2.256   4.629   6.244  0.1216  0.0415 -0.1039
  735POPI    C210956   2.496   4.319   6.323 -0.0564 -0.0393  0.1320
  735POPI    C310957   2.575   4.559   6.013  0.0510 -0.3527 -0.0886
  735POPI   PO410958   2.029   4.564   6.191 -0.2294 -0.0231  0.0913
  735POPI   GL110959   1.644   4.426   6.382  0.1731 -0.0226  0.2929
  735POPI   GL210960   1.357   4.578   6.435  0.0402 -0.0353  0.0047
  735POPI   C1A10961   1.588   4.447   6.857  0.0648  0.0383  0.1711
  735POPI   D2A10962   1.630   4.598   7.321  0.2056  0.2453 -0.1037
  735POPI   C3A10963   1.658   4.777   7.704 -0.0813  0.2039  0.0967
  735POPI   C4A10964   1.658   4.862   8.269 -0.4596 -0.0128 -0.1607
  735POPI   C1B10965   1.363   4.873   6.857 -0.4916 -0.2093 -0.0746
  735POPI   C2B10966   1.176   4.755   7.202  0.1260  0.2110 -0.0880
  735POPI   C3B10967   1.222   4.549   7.568  0.4223 -0.0483 -0.0572
  735POPI   C4B10968   1.098   4.213   7.714  0.0940  0.0917 -0.0711
  736POPI    C110969   7.175   5.637   5.664 -0.1138  0.1185  0.3139
  736POPI    C210970   7.383   5.978   5.635  0.1475 -0.0621 -0.0138
  736POPI    C310971   7.026   5.946   5.458  0.1187  0.0432  0.0244
  736POPI   PO410972   7.228   5.609   5.954 -0.4932  0.1313  0.1681
  736POPI   GL110973   7.407   5.379   6.290 -0.2828 -0.1585 -0.0500
  736POPI   GL210974   7.221   5.507   6.567 -0.3868 -0.1988 -0.3238
  736POPI   C1A10975   7.495   5.076   6.723 -0.1868  0.0135 -0.0068
  736POPI   D2A10976   7.416   5.004   7.181  0.1566 -0.0861 -0.2266
  736POPI   C3A10977   7.563   4.960   7.610 -0.1091  0.0674  0.0153
  736POPI   C4A10978   7.811   4.882   7.883  0.1367  0.0781  0.0052
  736POPI   C1B10979   7.425   5.486   7.010 -0.2367 -0.0528  0.1749
  736POPI   C2B10980   7.579   5.442   7.427 -0.0697  0.2854 -0.0164
  736POPI   C3B10981   7.774   5.564   7.800 -0.2492  0.2531 -0.1100
  736POPI   C4B10982   8.099   5.373   8.070  0.1885  0.0190  0.3064
  737POPI    C110983  10.352  10.883   5.957  0.2016 -0.0104 -0.0137
  737POPI    C210984  10.468  11.045   5.611  0.1796  0.0807  0.0213
  737POPI    C310985  10.093  10.912   5.653  0.1691  0.1109  0.0249
  737POPI   PO410986  10.493  10.632   6.040  0.0318 -0.2085  0.0783
  737POPI   GL110987  10.706  10.552   6.471  0.0214 -0.3239  0.2918
  737POPI   GL210988  10.942  10.586   6.298  0.3574  0.2573  0.0050
  737POPI   C1A10989  10.541  10.706   6.847 -0.3114 -0.1538 -0.3130
  737POPI   D2A10990  10.561  10.734   7.366  0.0806  0.3456 -0.0423
  737POPI   C3A10991  10.343  10.697   7.780 -0.0651  0.3171 -0.0374
  737POPI   C4A10992  10.185  10.712   8.242  0.0519  0.1023 -0.0369
  737POPI   C1B10993  11.201  10.479   6.636  0.2201  0.1729  0.3890
  737POPI   C2B10994  10.964  10.440   6.997 -0.1316 -0.0165 -0.1220
  737POPI   C3B10995  10.920  10.373   7.421 -0.0533  0.2622  0.2273
  737POPI   C4B10996  10.919  10.582   7.717  0.1403 -0.1325  0.0493
  738POPI    C110997   8.984  16.960   6.019 -0.1363  0.0055 -0.0511
  738POPI    C210998   9.149  16.597   5.995  0.0436  0.0986 -0.2563
  738POPI    C310999   8.828  16.685   5.774  0.0654  0.0982 -0.2883
  738POPI   PO411000   8.938  17.003   6.218  0.0029  0.4126  0.0443
  738POPI   GL111001   8.643  16.930   6.514  0.0255  0.2571 -0.1598
  738POPI   GL211002   8.658  16.557   6.687 -0.0340  0.0568  0.0706
  738POPI   C1A11003   8.678  17.068   6.907  0.0262 -0.0403 -0.3986
  738POPI   D2A11004   8.458  16.969   7.250  0.0409 -0.2256  0.0228
  738POPI   C3A11005   8.580  16.767   7.559 -0.2239  0.0485  0.0463
  738POPI   C4A11006   8.497  16.698   7.872  0.0110  0.2831  0.0927
  738POPI   C1B11007   8.694  16.469   7.051  0.2396 -0.0262  0.4071
  738POPI   C2B11008   8.600  16.262   7.378  0.3467  0.0173 -0.1752
  738POPI   C3B11009   8.762  16.286   7.811  0.0913 -0.0122 -0.1230
  738POPI   C4B11010   8.366  16.294   8.137 -0.0078  0.2396 -0.0900
  739POPI    C111011  14.300   9.619   5.550 -0.0212  0.0385  0.1026
  739POPI    C211012  14.330   9.485   5.174  0.0214 -0.2304  0.1991
  739POPI    C311013  13.976   9.608   5.316  0.0536  0.1114 -0.0051
  739POPI   PO411014  14.464   9.364   5.668  0.0058  0.0489 -0.0029
  739POPI   GL111015  14.653   9.207   6.023 -0.3052 -0.1207  0.0593
  739POPI   GL211016  14.892   9.447   6.131  0.0501 -0.3654 -0.1423
  739POPI   C1A11017  14.935   8.966   6.242  0.2557 -0.1688 -0.0255
  739POPI   D2A11018  15.164   8.695   6.606  0.0793  0.0244 -0.2993
  739POPI   C3A11019  15.164   8.669   7.100 -0.2497  0.1704  0.1310
  739POPI   C4A11020  15.250   8.652   7.426 -0.2960 -0.1895  0.2348
  739POPI   C1B11021  14.718   9.392   6.579  0.2041 -0.3242 -0.4722
  739POPI   C2B11022  14.856   9.315   7.021 -0.3592  0.0536  0.0045
  739POPI   C3B11023  14.872   9.434   7.458 -0.1307  0.0499  0.1230
  739POPI   C4B11024  15.108   9.394   7.934  0.2322 -0.0606  0.0699
  740POPI    C111025   9.387  12.577   6.193 -0.1115  0.1438 -0.1916
  740POPI    C211026   9.591  12.287   6.008  0.1639  0.1486  0.0952
  740POPI    C311027   9.480  12.614   5.806  0.1455 -0.0040 -0.1465
  740POPI   PO411028   9.450  12.557   6.427 -0.0078  0.3040 -0.1663
  740POPI   GL111029   9.564  12.312   6.833 -0.2210 -0.2206 -0.3159
  740POPI   GL211030   9.846  12.312   6.886  0.2650 -0.2914 -0.1435
  740POPI   C1A11031   9.555  12.160   7.255  0.0729 -0.1461 -0.0881
  740POPI   D2A11032   9.307  11.875   7.144  0.0546 -0.0154 -0.1710
  740POPI   C3A11033   9.415  11.480   7.334 -0.1112 -0.3061  0.0880
  740POPI   C4A11034   9.607  11.279   7.638  0.2385  0.0436 -0.0366
  740POPI   C1B11035  10.056  12.230   7.298  0.3761 -0.2748  0.1814
  740POPI   C2B11036  10.162  12.101   7.576 -0.1372  0.0304 -0.0084
  740POPI   C3B11037  10.237  11.847   7.959 -0.0523 -0.0950 -0.3214
  740POPI   C4B11038  10.426  11.644   8.218  0.2272 -0.2778 -0.2052
  741POPS   CNO11039   2.763  14.885   6.504  0.2469  0.1079 -0.0403
  741POPS   PO411040   2.418  14.756   6.328 -0.1794  0.1337  0.2021
  741POPS   GL111041   2.175  14.632   6.629 -0.0781 -0.0281 -0.3089
  741POPS   GL211042   2.157  14.905   6.843  0.0289  0.4716  0.2579
  741POPS   C1A11043   2.425  14.532   7.073  0.2288  0.3628 -0.4390
  741POPS   D2A11044   2.540  14.389   7.414 -0.0403  0.1309 -0.0528
  741POPS   C3A11045   2.893  14.239   7.434 -0.1448  0.4127 -0.2502
  741POPS   C4A11046   3.227  13.941   7.441 -0.0612  0.1031  0.1595
  741POPS   C1B11047   2.185  14.952   7.338  0.3328  0.0415 -0.1894
  741POPS   C2B11048   2.288  14.767   7.631 -0.2240 -0.0181  0.1547
  741POPS   C3B11049   2.335  14.532   7.927 -0.0392  0.0208  0.1595
  741POPS   C4B11050   2.700  14.249   8.119 -0.1506 -0.1523 -0.0281
  742POPS   CNO11051   5.567  13.707   6.347 -0.0049  0.0232 -0.3426
  742POPS   PO411052   5.534  13.335   6.172  0.2766  0.1258  0.1200
  742POPS   GL111053   5.387  13.228   6.570 -0.0939  0.2560  0.0222
  742POPS   GL211054   5.102  13.379   6.554 -0.1153  0.2908 -0.1596
  742POPS   C1A11055   5.532  13.376   7.032  0.0732 -0.1913  0.0167
  742POPS   D2A11056   5.781  13.209   7.506 -0.0466  0.0378  0.2258
  742POPS   C3A11057   5.522  13.044   7.835 -0.2300  0.2512  0.1859
  742POPS   C4A11058   5.707  12.959   8.271 -0.0291 -0.1155 -0.2115
  742POPS   C1B11059   5.033  13.488   7.028 -0.2172 -0.0532 -0.1663
  742POPS   C2B11060   4.841  13.469   7.428  0.0439 -0.0260 -0.1230
  742POPS   C3B11061   4.987  13.679   7.878 -0.0503  0.2455 -0.0335
  742POPS   C4B11062   5.183  13.764   8.245 -0.2411  0.2685 -0.2161
  743POPS   CNO11063  11.280   2.726   5.847 -0.3745 -0.0592  0.0790
  743POPS   PO411064  11.380   2.516   6.050 -0.3927  0.1256  0.0059
  743POPS   GL111065  11.537   2.685   6.465  0.0959 -0.3310  0.1728
  743POPS   GL211066  11.638   2.439   6.673 -0.0323 -0.1679  0.1012
  743POPS   C1A11067  11.542   2.896   6.971  0.1752  0.2495  0.0416
  743POPS   D2A11068  11.669   3.004   7.314 -0.0531  0.0666  0.2038
  743POPS   C3A11069  11.389   3.071   7.678  0.0626 -0.1770  0.2277
  743POPS   C4A11070  11.346   2.842   8.036  0.0640 -0.2091  0.2583
  743POPS   C1B11071  11.428   2.398   7.070  0.0153  0.0802 -0.2304
  743POPS   C2B11072  11.479   2.569   7.534  0.0803  0.3144  0.0782
  743POPS   C3B11073  11.205   2.401   7.881 -0.3331 -0.0892 -0.0250
  743POPS   C4B11074  10.901   2.179   8.283 -0.2041  0.2251 -0.1856
  744POPS   CNO11075  10.497   8.288   5.908 -0.1068 -0.2461 -0.0298
  744POPS   PO411076  10.883   8.562   5.916 -0.2191 -0.1443 -0.2181
  744POPS   GL111077  10.858   8.585   6.251 -0.1929  0.2340  0.1844
  744POPS   GL211078  11.094   8.434   6.427  0.0881  0.0595 -0.0515
  744POPS   C1A11079  10.793   8.829   6.583  0.0629 -0.1041  0.0459
  744POPS   D2A11080  11.100   8.758   6.842 -0.2375  0.1696 -0.1295
  744POPS   C3A11081  11.594   9.016   6.997  0.1835  0.1090  0.0394
  744POPS   C4A11082  11.706   9.006   7.380  0.0056  0.1406  0.1526
  744POPS   C1B11083  11.154   8.271   6.805 -0.0695 -0.1904 -0.0902
  744POPS   C2B11084  11.148   8.262   7.178  0.2581  0.1079  0.3822
  744POPS   C3B11085  11.062   8.050   7.610  0.0156 -0.0015  0.0401
  744POPS   C4B11086  11.064   7.953   8.082  0.1782  0.2229  0.1310
  745POPS   CNO11087  13.526  12.448   6.325  0.2123 -0.0797  0.0933
  745POPS   PO411088  13.852  12.550   6.531  0.0995  0.1503 -0.0761
  745POPS   GL111089  13.567  12.799   6.912  0.1682 -0.1127 -0.1366
  745POPS   GL211090  13.407  13.059   6.898 -0.0232 -0.3284 -0.0211
  745POPS   C1A11091  13.589  13.060   7.351 -0.0493  0.0630 -0.0697
  745POPS   D2A11092  13.926  13.281   7.571 -0.0781  0.2016 -0.3979
  745POPS   C3A11093  13.852  13.522   7.884 -0.0456  0.2028 -0.0987
  745POPS   C4A11094  13.635  13.521   8.280 -0.2351  0.0727  0.0036
  745POPS   C1B11095  13.203  12.739   7.170  0.0775  0.1556 -0.1120
  745POPS   C2B11096  13.279  12.493   7.525  0.1132  0.1316 -0.0074
  745POPS   C3B11097  13.593  12.266   7.754  0.1141 -0.0228  0.3451
  745POPS   C4B11098  13.601  12.113   8.046  0.2782  0.1585 -0.3181
  746POPS   CNO11099   5.352  16.193   5.737  0.2020 -0.1395  0.1349
  746POPS   PO411100   5.525  16.448   6.044  0.1996 -0.0276 -0.1109
  746POPS   GL111101   5.507  16.511   6.481  0.1516  0.1166 -0.0009
  746POPS   GL211102   5.374  16.754   6.589 -0.1663  0.2218 -0.1407
  746POPS   C1A11103   5.466  16.357   6.971  0.2775 -0.1979  0.0900
  746POPS   D2A11104   5.649  16.492   7.380  0.0294  0.1090  0.1109
  746POPS   C3A11105   5.729  16.770   7.566 -0.1025  0.0344 -0.0041
  746POPS   C4A11106   5.950  17.033   7.678 -0.0668 -0.1599  0.0527
  746POPS   C1B11107   5.442  16.861   7.077  0.2955  0.0584  0.3198
  746POPS   C2B11108   5.181  16.706   7.340  0.0135 -0.1381 -0.0288
  746POPS   C3B11109   5.028  16.786   7.713  0.1244 -0.2212  0.2509
  746POPS   C4B11110   4.937  17.095   7.919 -0.2489  0.1326 -0.1972
  747POPS   CNO11111  16.939   4.894   5.503 -0.0445 -0.2946  0.1602
  747POPS   PO411112  16.841   4.642   5.793 -0.2839 -0.5047  0.0607
  747POPS   GL111113  16.981   4.614   6.199 -0.3407 -0.0790 -0.0802
  747POPS   GL211114  17.368   4.523   6.212  0.2423  0.3820  0.1491
  747POPS   C1A11115  16.950   4.696   6.628  0.1350  0.1088  0.1779
  747POPS   D2A11116  16.744   4.799   7.051  0.2596 -0.1022  0.3030
  747POPS   C3A11117  16.947   4.701   7.409  0.0360  0.0046 -0.0820
  747POPS   C4A11118  17.173   4.873   7.845 -0.3938 -0.0366  0.1336
  747POPS   C1B11119  17.354   4.315   6.555  0.1221 -0.0212  0.2045
  747POPS   C2B11120  17.661   4.223   6.836 -0.1217 -0.2570 -0.1886
  747POPS   C3B11121  17.551   4.300   7.275  0.2553 -0.0961 -0.0405
  747POPS   C4B11122  17.563   4.429   7.757  0.0146 -0.1280  0.3345
  748POPS   CNO11123  12.689   2.253   5.921 -0.1808 -0.1025  0.2964
  748POPS   PO411124  13.105   1.990   6.089 -0.0484  0.1577  0.0027
  748POPS   GL111125  12.990   2.123   6.553  0.1180 -0.2908 -0.0089
  748POPS   GL211126  12.686   2.207   6.722  0.1254 -0.1901  0.0073
  748POPS   C1A11127  13.193   2.078   6.874 -0.0100  0.0685 -0.1001
  748POPS   D2A11128  13.543   1.877   6.992  0.3129  0.2189  0.1334
  748POPS   C3A11129  13.707   2.037   7.315 -0.0610  0.0428 -0.0444
  748POPS   C4A11130  13.797   2.115   7.665 -0.1105 -0.1921 -0.1847
  748POPS   C1B11131  12.850   2.347   7.135 -0.1555 -0.2687  0.1180
  748POPS   C2B11132  12.880   2.452   7.579  0.1558  0.0857  0.0778
  748POPS   C3B11133  13.029   2.584   7.979  0.0860 -0.0773 -0.2399
  748POPS   C4B11134  13.085   2.288   8.296  0.2912  0.2899 -0.3409
  749POPS   CNO11135   0.684   1.312   6.882  0.1174 -0.3064  0.0193
  749POPS   PO411136   0.518   1.711   6.558  0.3273 -0.2078  0.1391
  749POPS   GL111137   0.678   1.875   6.879  0.2316  0.0950  0.0855
  749POPS   GL211138   0.807   2.203   6.803  0.1981 -0.4516  0.0457
  749POPS   C1A11139   0.731   1.807   7.343 -0.0404  0.3182 -0.2068
  749POPS   D2A11140   0.585   1.638   7.697 -0.1135  0.1141  0.0002
  749POPS   C3A11141   0.653   1.756   8.044 -0.3012 -0.1024 -0.1272
  749POPS   C4A11142   0.740   2.021   8.392 -0.2365  0.2043 -0.0526
  749POPS   C1B11143   0.771   2.290   7.256  0.1463  0.2538  0.4009
  749POPS   C2B11144   0.724   2.473   7.528 -0.1938 -0.3408  0.0757
  749POPS   C3B11145   0.675   3.034   7.572 -0.0944  0.0455 -0.2095
  749POPS   C4B11146   0.760   3.408   7.493  0.2005  0.1822 -0.1149
  750POPS   CNO11147   9.188   5.954   5.801  0.2452  0.1084  0.2500
  750POPS   PO411148   8.748   6.075   5.999  0.3023 -0.1876 -0.1161
  750POPS   GL111149   9.102   5.963   6.324 -0.2032  0.0349 -0.1724
  750POPS   GL211150   9.144   5.674   6.442 -0.0556 -0.2436 -0.5017
  750POPS   C1A11151   8.959   6.233   6.690 -0.5578  0.5662  0.0733
  750POPS   D2A11152   8.730   6.142   7.063  0.2200 -0.0680 -0.0487
  750POPS   C3A11153   8.807   5.991   7.504  0.0929  0.1047 -0.1738
  750POPS   C4A11154   8.742   6.151   7.845 -0.0872  0.0637  0.0591
  750POPS   C1B11155   9.567   5.722   6.510  0.0135 -0.0710 -0.3231
  750POPS   C2B11156   9.612   5.916   6.893  0.0294  0.2413  0.4279
  750POPS   C3B11157   9.625   5.961   7.295 -0.0937  0.1446  0.1100
  750POPS   C4B11158   9.339   5.712   7.501 -0.2059 -0.0387  0.2378
  751POPS   CNO11159  14.821   0.535   6.121  0.0631  0.2726  0.0195
  751POPS   PO411160  15.151   0.533   6.491  0.3239  0.0570 -0.2862
  751POPS   GL111161  15.044   0.623   6.919 -0.0244  0.4612  0.1207
  751POPS   GL211162  14.752   0.537   7.033  0.2125 -0.3326 -0.1483
  751POPS   C1A11163  15.163   0.827   7.281 -0.3215 -0.3028 -0.3165
  751POPS   D2A11164  15.233   0.991   7.661 -0.1769 -0.1549 -0.1187
  751POPS   C3A11165  15.364   1.072   8.067 -0.2293 -0.4182  0.0201
  751POPS   C4A11166  15.401   0.961   8.538 -0.1402  0.3416 -0.0843
  751POPS   C1B11167  14.679   0.546   7.440  0.0185  0.0770 -0.2273
  751POPS   C2B11168  14.854   0.703   7.776  0.2958  0.1437 -0.0546
  751POPS   C3B11169  14.852   0.933   8.146 -0.3838 -0.3319 -0.0285
  751POPS   C4B11170  14.626   1.147   8.498 -0.0571 -0.2776 -0.0789
  752POPS   CNO11171  15.041  12.905   6.115 -0.0014 -0.2264  0.0640
  752POPS   PO411172  14.614  12.976   6.207 -0.0788 -0.1076 -0.1382
  752POPS   GL111173  14.438  12.957   6.650 -0.0386 -0.0681 -0.0832
  752POPS   GL211174  14.260  12.703   6.701 -0.1171  0.0672 -0.2530
  752POPS   C1A11175  14.494  13.065   6.996 -0.1093 -0.0753  0.1400
  752POPS   D2A11176  14.768  12.979   7.264 -0.0112 -0.1213 -0.2045
  752POPS   C3A11177  14.718  12.891   7.702 -0.0579  0.2486  0.0642
  752POPS   C4A11178  14.490  12.633   8.149  0.1163  0.0487  0.2298
  752POPS   C1B11179  14.169  12.514   7.092  0.3723  0.1028  0.1505
  752POPS   C2B11180  13.812  12.609   7.423  0.0915 -0.0412 -0.0347
  752POPS   C3B11181  13.633  12.776   7.771  0.0009  0.3312  0.1314
  752POPS   C4B11182  13.359  12.557   8.110  0.0044  0.0202 -0.0684
  753POPS   CNO11183  16.773  16.311   6.251  0.2446  0.1810 -0.0603
  753POPS   PO411184  16.974  16.345   6.512 -0.2052 -0.4346 -0.0350
  753POPS   GL111185  16.736  16.232   6.910  0.1726  0.0893 -0.1917
  753POPS   GL211186  16.895  15.993   7.150  0.3956 -0.0683  0.0939
  753POPS   C1A11187  16.700  16.468   7.402  0.2606 -0.0587  0.0966
  753POPS   D2A11188  16.472  16.423   7.794 -0.1113 -0.0558 -0.1848
  753POPS   C3A11189  16.563  16.260   8.127 -0.0054  0.1842 -0.1128
  753POPS   C4A11190  16.633  15.915   8.306 -0.1211  0.2245  0.1713
  753POPS   C1B11191  16.882  16.072   7.623 -0.0556  0.0067 -0.1909
  753POPS   C2B11192  17.035  16.232   8.008  0.3030 -0.1473 -0.0072
  753POPS   C3B11193  17.061  16.206   8.486  0.1869 -0.3553  0.1281
  753POPS   C4B11194  16.989  16.071   8.935  0.0871  0.2006 -0.0678
  754POPS   CNO11195   4.907  10.061   6.055 -0.1045 -0.2630  0.0884
  754POPS   PO411196   4.902  10.444   6.227  0.0314 -0.0256  0.0839
  754POPS   GL111197   5.013  10.347   6.544 -0.2229 -0.2094  0.3641
  754POPS   GL211198   4.790  10.318   6.729  0.0410  0.0831  0.0214
  754POPS   C1A11199   5.185  10.312   7.035 -0.2443  0.0595 -0.2841
  754POPS   D2A11200   5.320  10.419   7.445 -0.1245 -0.2188 -0.1421
  754POPS   C3A11201   5.514  10.714   7.737 -0.2133  0.2492  0.3505
  754POPS   C4A11202   5.457  11.047   8.071 -0.0254  0.0649 -0.1169
  754POPS   C1B11203   4.758  10.491   7.170  0.1262 -0.0763  0.2917
  754POPS   C2B11204   4.901  10.769   7.489 -0.1116  0.0045  0.1460
  754POPS   C3B11205   5.038  10.739   7.897  0.1233  0.1452 -0.2177
  754POPS   C4B11206   5.234  10.644   8.244 -0.0514  0.1472 -0.5042
  755POPS   CNO11207   5.867   2.800   6.210  0.2997 -0.0025 -0.4089
  755POPS   PO411208   5.611   2.450   6.334 -0.1276  0.1401 -0.1235
  755POPS   GL111209   5.925   2.392   6.625  0.0570 -0.1115  0.0353
  755POPS   GL211210   6.281   2.407   6.533  0.1722 -0.0668 -0.0003
  755POPS   C1A11211   5.982   2.133   7.039 -0.1541  0.0638 -0.2846
  755POPS   D2A11212   6.071   2.034   7.437  0.2560 -0.0022  0.0652
  755POPS   C3A11213   5.886   1.831   7.706 -0.0613 -0.0840 -0.0578
  755POPS   C4A11214   5.998   1.832   8.156 -0.3932  0.3371  0.0279
  755POPS   C1B11215   6.303   2.646   7.000  0.0988  0.0701 -0.1529
  755POPS   C2B11216   6.384   2.717   7.406  0.0773  0.2674  0.1135
  755POPS   C3B11217   6.206   2.668   7.827  0.2817 -0.2039 -0.1549
  755POPS   C4B11218   6.162   2.240   7.913  0.1836 -0.0457  0.0604
  756POPS   CNO11219  10.379   5.385   5.371  0.0766 -0.2105  0.0577
  756POPS   PO411220  10.340   5.211   5.708 -0.0651  0.0472 -0.1116
  756POPS   GL111221  10.610   5.240   6.087 -0.1224  0.2277  0.2198
  756POPS   GL211222  10.831   5.011   6.263 -0.2159 -0.0247  0.0214
  756POPS   C1A11223  10.484   5.518   6.413 -0.1610 -0.1525  0.1301
  756POPS   D2A11224  10.444   5.500   6.847 -0.3724 -0.5922  0.0785
  756POPS   C3A11225  10.483   5.443   7.323 -0.2610 -0.1379 -0.1175
  756POPS   C4A11226  10.392   5.351   7.775  0.1317 -0.3587  0.0970
  756POPS   C1B11227  10.885   4.876   6.574 -0.1944  0.1701  0.0500
  756POPS   C2B11228  10.934   4.940   6.984 -0.1578  0.0349 -0.1688
  756POPS   C3B11229  10.919   5.100   7.302 -0.2863 -0.1523 -0.4485
  756POPS   C4B11230  10.915   5.370   7.732 -0.2223  0.4156  0.1612
  757POPS   CNO11231  12.783  12.249   5.969 -0.1594  0.0009  0.0967
  757POPS   PO411232  12.906  12.442   6.310 -0.0149 -0.0174 -0.0565
  757POPS   GL111233  12.628  12.258   6.655  0.0812 -0.4162 -0.0039
  757POPS   GL211234  12.795  12.430   6.923  0.1306 -0.2729 -0.0828
  757POPS   C1A11235  12.454  12.040   7.103 -0.1145 -0.3784  0.3018
  757POPS   D2A11236  12.311  12.004   7.499  0.1060 -0.1011  0.0017
  757POPS   C3A11237  12.473  11.689   7.832  0.0079 -0.1661  0.0818
  757POPS   C4A11238  12.498  11.401   8.070 -0.1773  0.1564  0.1848
  757POPS   C1B11239  12.645  12.379   7.409  0.1480  0.0932 -0.1421
  757POPS   C2B11240  12.585  12.201   7.883  0.0986 -0.0324  0.0269
  757POPS   C3B11241  12.456  12.233   8.313  0.1174 -0.1085  0.1553
  757POPS   C4B11242  12.788  12.303   8.710  0.0023 -0.1343 -0.0817
  758POPS   CNO11243  14.595   5.536   5.687  0.2396 -0.0531 -0.2277
  758POPS   PO411244  14.378   5.311   6.026 -0.0972  0.1816 -0.2679
  758POPS   GL111245  14.525   5.469   6.362  0.1844 -0.0038 -0.2174
  758POPS   GL211246  14.604   5.792   6.293  0.2561 -0.0201  0.1034
  758POPS   C1A11247  14.417   5.611   6.732  0.0029 -0.0787  0.2427
  758POPS   D2A11248  14.555   5.615   7.129  0.2211  0.3054  0.1177
  758POPS   C3A11249  14.330   5.635   7.510  0.0737 -0.2503  0.1255
  758POPS   C4A11250  14.170   5.702   8.005 -0.1211 -0.1268  0.0712
  758POPS   C1B11251  14.643   6.052   6.654  0.3021  0.1361 -0.1654
  758POPS   C2B11252  14.608   6.217   7.129 -0.2258  0.1670  0.0534
  758POPS   C3B11253  14.444   6.236   7.481  0.0390 -0.0492 -0.3795
  758POPS   C4B11254  14.251   6.186   7.933  0.3318 -0.1065 -0.0084
  759POPS   CNO11255  16.791   3.749   5.871 -0.1898  0.1131 -0.0117
  759POPS   PO411256  16.749   3.869   6.300 -0.0780 -0.1614  0.0624
  759POPS   GL111257  16.875   4.197   6.538  0.4227 -0.0482  0.1705
  759POPS   GL211258  16.525   4.331   6.627  0.1127  0.0126 -0.3490
  759POPS   C1A11259  16.871   4.310   6.989 -0.0215 -0.0355 -0.1303
  759POPS   D2A11260  16.727   4.303   7.509 -0.1823  0.0652  0.0415
  759POPS   C3A11261  17.023   4.391   7.807 -0.0801 -0.0750  0.0699
  759POPS   C4A11262  16.969   4.588   8.239 -0.1670  0.0096  0.2382
  759POPS   C1B11263  16.405   4.219   7.090 -0.0184  0.3122 -0.2482
  759POPS   C2B11264  16.237   4.255   7.551  0.0473  0.1489  0.1193
  759POPS   C3B11265  16.484   4.288   7.924 -0.2331  0.2092  0.1982
  759POPS   C4B11266  16.460   4.471   8.297 -0.1791 -0.2052 -0.3275
  760POPS   CNO11267  14.037   7.930   5.850  0.1547  0.1652 -0.4485
  760POPS   PO411268  14.014   8.332   5.775 -0.1777  0.0542  0.2023
  760POPS   GL111269  14.211   8.607   6.084 -0.0692 -0.1753  0.1456
  760POPS   GL211270  13.959   8.778   6.301 -0.1101  0.1505  0.1722
  760POPS   C1A11271  14.453   8.949   6.404  0.1505  0.0476  0.0030
  760POPS   D2A11272  14.760   8.795   6.800  0.0174  0.0607 -0.0977
  760POPS   C3A11273  14.737   8.830   7.273  0.0993  0.0378  0.0265
  760POPS   C4A11274  14.633   8.529   7.578  0.4416  0.2407 -0.1076
  760POPS   C1B11275  14.046   8.862   6.663  0.1841 -0.0462  0.1691
  760POPS   C2B11276  13.914   9.058   7.032  0.1611  0.1034 -0.0446
  760POPS   C3B11277  13.915   9.287   7.415 -0.1662  0.0978 -0.1127
  760POPS   C4B11278  13.933   9.315   7.797  0.1789  0.2005 -0.0346
  761POPS   CNO11279   7.050  13.216   6.515 -0.1832  0.2123 -0.0804
  761POPS   PO411280   6.754  12.966   6.263 -0.0264  0.1882 -0.1029
  761POPS   GL111281   6.576  13.063   6.681  0.1093  0.1642 -0.0236
  761POPS   GL211282   6.630  12.762   6.837 -0.0752  0.1534 -0.3024
  761POPS   C1A11283   6.844  13.287   6.985  0.4633 -0.0647 -0.2204
  761POPS   D2A11284   7.200  13.371   7.164  0.0723  0.1258  0.0276
  761POPS   C3A11285   7.329  13.353   7.594  0.0790  0.0334 -0.0462
  761POPS   C4A11286   7.334  13.463   7.989 -0.0649  0.2272 -0.4498
  761POPS   C1B11287   6.566  12.973   7.215  0.0521 -0.5763 -0.0377
  761POPS   C2B11288   6.542  13.009   7.617 -0.2237 -0.0817 -0.2802
  761POPS   C3B11289   6.357  13.219   8.019 -0.0623  0.0285 -0.1365
  761POPS   C4B11290   6.030  13.347   8.436  0.2842 -0.2743  0.1077
  762POPS   CNO11291   6.698   1.335   5.988  0.1180 -0.1192 -0.0269
  762POPS   PO411292   6.931   1.636   6.304  0.0003 -0.1844 -0.3362
  762POPS   GL111293   6.827   1.501   6.757  0.2986 -0.0921 -0.0358
  762POPS   GL211294   7.126   1.238   6.916  0.4086  0.2603  0.1676
  762POPS   C1A11295   6.801   1.701   7.129 -0.1654  0.0017  0.1180
  762POPS   D2A11296   6.918   1.630   7.560  0.0465 -0.2138 -0.1256
  762POPS   C3A11297   6.820   1.566   7.955  0.2952 -0.0485 -0.1972
  762POPS   C4A11298   6.571   1.567   8.356 -0.1713  0.0219 -0.1867
  762POPS   C1B11299   7.140   1.248   7.323 -0.1158  0.2759 -0.2531
  762POPS   C2B11300   7.232   1.248   7.754  0.0091  0.3831  0.0920
  762POPS   C3B11301   7.281   0.884   8.050  0.0268  0.1104  0.1385
  762POPS   C4B11302   7.318   0.465   8.089 -0.1801 -0.1059 -0.0498
  763POPS   CNO11303   0.274  10.673   6.113 -0.1640  0.0543  0.0354
  763POPS   PO411304   0.614  10.895   6.192 -0.1393  0.1433 -0.0734
  763POPS   GL111305   0.860  11.081   6.550  0.0288  0.0909  0.0357
  763POPS   GL211306   0.779  11.399   6.323 -0.0576 -0.0896  0.0785
  763POPS   C1A11307   0.985  10.969   6.981 -0.3199 -0.1602 -0.0126
  763POPS   D2A11308   0.878  11.102   7.391 -0.0801 -0.0200  0.1617
  763POPS   C3A11309   1.049  11.013   7.679  0.0586  0.0396 -0.0018
  763POPS   C4A11310   1.078  10.885   8.135 -0.0317 -0.0827  0.2539
  763POPS   C1B11311   0.919  11.534   6.760  0.0836 -0.1952 -0.0239
  763POPS   C2B11312   0.809  11.529   7.174  0.1373 -0.0725 -0.4760
  763POPS   C3B11313   0.842  11.516   7.651  0.2355 -0.1722  0.1012
  763POPS   C4B11314   0.965  11.355   8.049  0.1843 -0.1753  0.0460
  764POPS   CNO11315   2.061   2.958   6.740 -0.3407  0.2151  0.1426
  764POPS   PO411316   1.649   3.036   6.620  0.0883 -0.0619 -0.2600
  764POPS   GL111317   1.723   3.092   7.080  0.3777  0.0119  0.0873
  764POPS   GL211318   1.590   2.853   7.205  0.1305  0.0655 -0.0245
  764POPS   C1A11319   1.734   3.479   7.326  0.2376  0.2752  0.2484
  764POPS   D2A11320   1.708   3.615   7.772 -0.0994 -0.0833  0.0543
  764POPS   C3A11321   1.644   3.416   8.130  0.0893 -0.2910  0.0719
  764POPS   C4A11322   1.380   3.316   8.365  0.0105 -0.1139  0.0420
  764POPS   C1B11323   1.570   3.086   7.582  0.4909  0.0705 -0.0874
  764POPS   C2B11324   1.579   2.977   7.974  0.2646 -0.1341  0.3375
  764POPS   C3B11325   1.492   2.651   8.335  0.1776 -0.1277 -0.1931
  764POPS   C4B11326   1.475   2.556   8.864  0.0275 -0.2286 -0.0117
  765POPS   CNO11327  14.593  15.405   5.900  0.0665  0.0909 -0.1199
  765POPS   PO411328  14.518  15.511   6.296 -0.3790 -0.0974  0.1308
  765POPS   GL111329  14.343  15.273   6.575  0.1128 -0.2448 -0.0751
  765POPS   GL211330  14.007  15.416   6.628 -0.1194  0.2756  0.1327
  765POPS   C1A11331  14.368  15.326   6.998  0.0345 -0.0362 -0.0822
  765POPS   D2A11332  14.325  15.386   7.385 -0.0264  0.2224  0.2122
  765POPS   C3A11333  14.308  15.280   7.879  0.0935  0.0086 -0.0939
  765POPS   C4A11334  14.219  14.973   8.239 -0.0525  0.0374 -0.0442
  765POPS   C1B11335  13.781  15.400   7.071 -0.0910 -0.4037  0.0763
  765POPS   C2B11336  13.841  15.704   7.393 -0.0596  0.1143 -0.2818
  765POPS   C3B11337  13.958  15.654   7.796  0.0535  0.1985 -0.0999
  765POPS   C4B11338  13.935  15.476   8.195  0.0663 -0.2095  0.0910
  766POPS   CNO11339  11.989   2.657   6.290 -0.0220  0.1272 -0.2388
  766POPS   PO411340  11.744   3.011   6.055  0.0854  0.1294  0.2098
  766POPS   GL111341  11.743   3.185   6.457  0.1299 -0.0700  0.1989
  766POPS   GL211342  11.913   3.046   6.627  0.1166 -0.1134  0.0438
  766POPS   C1A11343  11.521   3.354   6.805  0.1453 -0.1092  0.1383
  766POPS   D2A11344  11.388   3.385   7.210  0.1765  0.0974  0.2270
  766POPS   C3A11345  11.132   3.705   7.275 -0.0138 -0.3100 -0.0560
  766POPS   C4A11346  11.130   3.990   7.657 -0.0129 -0.0830 -0.0104
  766POPS   C1B11347  12.153   3.014   6.899  0.1772 -0.2800  0.0115
  766POPS   C2B11348  12.177   3.054   7.244 -0.0050 -0.2354  0.0913
  766POPS   C3B11349  12.055   3.174   7.678 -0.0996 -0.1741 -0.0645
  766POPS   C4B11350  12.245   3.013   8.027  0.1872  0.1746  0.0496
  767POPS   CNO11351   4.274  12.236   5.829  0.0984 -0.0209  0.2093
  767POPS   PO411352   3.872  12.274   6.024 -0.1485 -0.0948 -0.3750
  767POPS   GL111353   3.751  12.262   6.462 -0.3865 -0.0147  0.0010
  767POPS   GL211354   4.024  12.375   6.712  0.0227 -0.2326  0.0824
  767POPS   C1A11355   3.516  12.179   6.793 -0.0808 -0.3091 -0.0228
  767POPS   D2A11356   3.496  12.018   7.181  0.0837  0.0300  0.0717
  767POPS   C3A11357   3.060  11.997   7.276 -0.1598  0.1461 -0.3009
  767POPS   C4A11358   2.941  11.704   7.480 -0.2376 -0.0082 -0.2689
  767POPS   C1B11359   4.079  12.320   7.077  0.1027 -0.2558 -0.2348
  767POPS   C2B11360   3.961  12.206   7.411 -0.0445  0.1831 -0.0088
  767POPS   C3B11361   3.694  12.164   7.861  0.1867 -0.0021  0.1722
  767POPS   C4B11362   3.342  11.920   7.665 -0.0662  0.1004  0.1682
  768POPS   CNO11363   0.422  12.310   6.366  0.0619 -0.0554  0.3861
  768POPS   PO411364   0.643  12.519   6.127  0.1531 -0.0264 -0.1003
  768POPS   GL111365   0.859  12.591   6.540 -0.0332  0.1314  0.3465
  768POPS   GL211366   0.896  12.877   6.722  0.1139  0.1835 -0.1522
  768POPS   C1A11367   0.596  12.525   6.843 -0.1668 -0.3194  0.0935
  768POPS   D2A11368   0.405  12.710   7.087  0.1938 -0.1593 -0.0073
  768POPS   C3A11369   0.628  12.768   7.526  0.0554  0.1900 -0.5628
  768POPS   C4A11370   0.760  12.684   7.904 -0.0257 -0.0658 -0.2957
  768POPS   C1B11371   0.949  12.929   7.157  0.4085 -0.3117  0.3994
  768POPS   C2B11372   1.077  12.938   7.627  0.0881  0.0383  0.1914
  768POPS   C3B11373   1.174  13.112   8.028 -0.0435  0.0323 -0.2056
  768POPS   C4B11374   0.952  12.862   8.372  0.0618  0.3759  0.1652
  769POPS   CNO11375   2.778  10.447   6.032 -0.0031 -0.2921  0.1561
  769POPS   PO411376   3.088  10.253   6.223  0.1856 -0.0051  0.0801
  769POPS   GL111377   3.105  10.614   6.578  0.0526 -0.1008  0.0374
  769POPS   GL211378   3.034  11.003   6.536  0.1591  0.2178 -0.2141
  769POPS   C1A11379   3.435  10.630   6.907 -0.1109 -0.1725  0.0472
  769POPS   D2A11380   3.763  10.846   6.658 -0.1922  0.1462  0.1794
  769POPS   C3A11381   3.999  10.794   7.005 -0.1872  0.1472 -0.2478
  769POPS   C4A11382   4.037  11.105   7.320  0.1680 -0.0175  0.0144
  769POPS   C1B11383   3.013  10.914   6.989 -0.0508 -0.0013 -0.2903
  769POPS   C2B11384   3.052  10.733   7.349 -0.0794 -0.2223 -0.0663
  769POPS   C3B11385   3.170  10.870   7.768  0.3077  0.0475  0.0230
  769POPS   C4B11386   2.946  11.216   8.045  0.1925  0.2586  0.0315
  770POPS   CNO11387  12.726  11.456   6.396  0.0095 -0.0279 -0.0406
  770POPS   PO411388  12.378  11.617   6.173  0.0576 -0.3884 -0.2854
  770POPS   GL111389  12.165  11.407   6.498  0.0648 -0.3109 -0.0980
  770POPS   GL211390  11.987  11.568   6.740  0.0817  0.0956 -0.0835
  770POPS   C1A11391  11.992  11.035   6.698 -0.0281  0.0684 -0.1986
  770POPS   D2A11392  11.835  11.048   7.189  0.0283  0.1302 -0.0146
  770POPS   C3A11393  11.345  11.237   7.121  0.0412  0.2924 -0.1004
  770POPS   C4A11394  11.542  11.317   6.719 -0.1409  0.1932 -0.0420
  770POPS   C1B11395  11.937  11.590   7.191  0.1028 -0.0515  0.4331
  770POPS   C2B11396  12.059  11.602   7.588 -0.1086 -0.1620 -0.2868
  770POPS   C3B11397  11.992  11.411   7.991  0.2253 -0.2000  0.1466
  770POPS   C4B11398  11.726  11.187   8.189 -0.2671 -0.1514 -0.0806
  771POPS   CNO11399  15.258  16.949   6.351 -0.1873 -0.2545  0.0399
  771POPS   PO411400  14.762  17.106   6.466 -0.0753  0.0430 -0.0416
  771POPS   GL111401  14.878  17.480   6.658  0.0611  0.3284 -0.1401
  771POPS   GL211402  14.518  17.679   6.840  0.1768 -0.2971  0.1452
  771POPS   C1A11403  14.993  17.772   6.895  0.0246 -0.1144  0.1090
  771POPS   D2A11404  15.102  17.967   7.349  0.2996  0.1269 -0.0614
  771POPS   C3A11405  14.997  17.928   7.816  0.2473  0.0997 -0.2568
  771POPS   C4A11406  14.715  18.070   8.123 -0.3764 -0.1723  0.1297
  771POPS   C1B11407  14.412  17.780   7.218  0.5630  0.1747 -0.0700
  771POPS   C2B11408  14.336  17.813   7.622  0.3153  0.0635 -0.3997
  771POPS   C3B11409  14.176  17.847   7.991  0.1313  0.0270  0.1591
  771POPS   C4B11410  14.041  17.560   8.272  0.1262 -0.1401 -0.1767
  772POPS   CNO11411   7.400  14.118   5.951 -0.1098 -0.0543  0.3182
  772POPS   PO411412   7.070  13.859   5.935 -0.0901 -0.0790 -0.1576
  772POPS   GL111413   6.972  13.772   6.363  0.1233  0.0796  0.0024
  772POPS   GL211414   6.691  13.567   6.527  0.1513 -0.2087  0.1606
  772POPS   C1A11415   7.025  13.835   6.842 -0.3358  0.0531  0.0913
  772POPS   D2A11416   7.277  13.870   7.264  0.1503 -0.0030  0.2353
  772POPS   C3A11417   7.121  13.887   7.640  0.2885 -0.0015  0.2783
  772POPS   C4A11418   6.988  13.821   8.041  0.2044 -0.0649  0.0458
  772POPS   C1B11419   6.581  13.694   6.844 -0.0551  0.0394 -0.0903
  772POPS   C2B11420   6.746  13.711   7.310  0.2836  0.0626  0.1684
  772POPS   C3B11421   6.847  13.408   7.613 -0.1603 -0.1376 -0.1899
  772POPS   C4B11422   6.875  13.149   8.030 -0.1303  0.0038 -0.2010
  773POPS   CNO11423  15.645   0.226   6.165  0.0616 -0.0197 -0.1528
  773POPS   PO411424  15.831   0.030   6.342 -0.0819 -0.1055  0.2420
  773POPS   GL111425  15.649   0.222   6.699 -0.0140  0.2480  0.3560
  773POPS   GL211426  15.586   0.602   6.654 -0.2213 -0.4199  0.2646
  773POPS   C1A11427  15.555   0.269   7.120 -0.1576  0.0747  0.0570
  773POPS   D2A11428  15.746   0.375   7.467  0.0835  0.1048 -0.1602
  773POPS   C3A11429  15.441   0.414   7.865 -0.0793  0.2009  0.0840
  773POPS   C4A11430  15.227   0.554   8.247  0.0305  0.1441 -0.3464
  773POPS   C1B11431  15.803   0.767   6.968  0.1010 -0.1545 -0.2022
  773POPS   C2B11432  15.637   0.831   7.367  0.0152  0.0763 -0.2407
  773POPS   C3B11433  15.707   0.866   7.798  0.1109  0.0902  0.0580
  773POPS   C4B11434  15.737   0.701   8.202 -0.1636  0.0411 -0.1169
  774POPS   CNO11435  11.708   9.047   6.027  0.0584  0.0278 -0.0810
  774POPS   PO411436  12.110   9.294   6.026  0.0376 -0.0150 -0.0570
  774POPS   GL111437  12.110   9.265   6.396  0.0220  0.0061  0.0841
  774POPS   GL211438  12.149   9.538   6.525  0.1276  0.2114 -0.0235
  774POPS   C1A11439  12.059   9.153   6.921 -0.0436  0.0369  0.0469
  774POPS   D2A11440  12.106   9.293   7.320  0.1123 -0.3008  0.0915
  774POPS   C3A11441  11.866   9.353   7.687 -0.1591 -0.1418 -0.2292
  774POPS   C4A11442  11.555   9.266   8.034  0.1133  0.1031  0.0560
  774POPS   C1B11443  12.225   9.708   7.007  0.0769 -0.2094  0.4818
  774POPS   C2B11444  12.216   9.699   7.470 -0.2810 -0.0071 -0.0223
  774POPS   C3B11445  12.074   9.763   7.869 -0.0588 -0.1003  0.1896
  774POPS   C4B11446  11.785   9.745   8.265  0.0699 -0.0630 -0.2234
  775POPS   CNO11447   9.593   8.905   5.764 -0.1260  0.0162  0.1142
  775POPS   PO411448   9.537   9.272   6.088 -0.2239 -0.1536  0.4153
  775POPS   GL111449   9.649   9.027   6.535  0.0773 -0.0423 -0.0551
  775POPS   GL211450   9.885   8.777   6.614  0.0027 -0.0785  0.3388
  775POPS   C1A11451   9.735   8.977   7.031  0.0132  0.0041  0.1821
  775POPS   D2A11452   9.732   8.901   7.436 -0.2476 -0.0867 -0.0449
  775POPS   C3A11453   9.847   8.885   7.839  0.1107  0.1401  0.1687
  775POPS   C4A11454   9.970   9.176   8.211  0.2106 -0.1826 -0.1577
  775POPS   C1B11455   9.895   8.465   6.839 -0.0642 -0.0617  0.0278
  775POPS   C2B11456  10.049   8.162   7.071  0.0198  0.2854 -0.0038
  775POPS   C3B11457  10.002   7.992   7.429  0.0198 -0.0085  0.1902
  775POPS   C4B11458  10.014   7.874   7.841  0.0888 -0.0710  0.2814
  776POPS   CNO11459  16.415  14.434   6.159 -0.2220 -0.2762  0.0079
  776POPS   PO411460  16.514  14.571   6.564 -0.4526  0.2224  0.0412
  776POPS   GL111461  16.691  14.354   6.898  0.0281  0.0798  0.2318
  776POPS   GL211462  17.053  14.449   6.785 -0.2457  0.1788 -0.5097
  776POPS   C1A11463  16.673  14.449   7.347 -0.0527  0.0802 -0.1633
  776POPS   D2A11464  16.823  14.356   7.803  0.3037 -0.1487  0.0448
  776POPS   C3A11465  16.431  14.342   8.088 -0.3189  0.0432  0.1374
  776POPS   C4A11466  16.157  14.038   8.231  0.0088 -0.4706  0.1733
  776POPS   C1B11467  17.129  14.276   7.222  0.3212 -0.0899 -0.1149
  776POPS   C2B11468  17.322  14.374   7.648 -0.0193  0.1483 -0.0339
  776POPS   C3B11469  17.303  14.419   8.057  0.1369  0.0106 -0.2031
  776POPS   C4B11470  17.453  14.322   8.609  0.0533 -0.0350 -0.0330
  777POPS   CNO11471  14.283  10.036   5.887 -0.1106 -0.0775  0.0360
  777POPS   PO411472  13.798  10.079   5.834  0.2852 -0.4506  0.0190
  777POPS   GL111473  13.828   9.946   6.202 -0.0831  0.0945 -0.1466
  777POPS   GL211474  14.048  10.043   6.328  0.3331  0.0444  0.1676
  777POPS   C1A11475  13.644   9.742   6.543  0.1119  0.3227  0.0238
  777POPS   D2A11476  13.791   9.536   6.897 -0.3163  0.0252  0.2244
  777POPS   C3A11477  14.073   9.616   7.115  0.1280 -0.0793 -0.0208
  777POPS   C4A11478  14.248   9.593   7.478 -0.2576 -0.2001  0.0115
  777POPS   C1B11479  14.230   9.774   6.660 -0.0367  0.1114  0.1001
  777POPS   C2B11480  14.555   9.684   6.993  0.1776  0.2436 -0.1717
  777POPS   C3B11481  14.670   9.885   7.340 -0.0313 -0.1735 -0.2667
  777POPS   C4B11482  14.703   9.875   7.799  0.1012 -0.1828 -0.1723
  778POPS   CNO11483   2.138  12.096   5.602 -0.0990 -0.3379  0.3899
  778POPS   PO411484   2.023  12.225   5.943 -0.0934  0.0903 -0.1830
  778POPS   GL111485   2.254  12.238   6.388 -0.1207  0.1606  0.3738
  778POPS   GL211486   2.140  11.968   6.520 -0.2287  0.3341  0.0484
  778POPS   C1A11487   2.553  12.352   6.759  0.2539 -0.1085 -0.0251
  778POPS   D2A11488   2.727  12.330   7.168 -0.1906 -0.0412 -0.0994
  778POPS   C3A11489   2.729  12.472   7.571  0.3752  0.2933  0.0973
  778POPS   C4A11490   2.732  12.610   7.925 -0.0758  0.3208 -0.1176
  778POPS   C1B11491   2.085  12.034   6.927  0.1036  0.2407 -0.0325
  778POPS   C2B11492   2.044  12.060   7.363  0.0136  0.0228  0.1026
  778POPS   C3B11493   1.962  11.920   7.698 -0.0050  0.2176 -0.0446
  778POPS   C4B11494   2.132  11.719   8.078  0.0903 -0.1414 -0.1744
  779POPS   CNO11495  15.345   7.826   5.853  0.2418 -0.1402 -0.3537
  779POPS   PO411496  14.864   7.666   5.835 -0.1500 -0.2071 -0.2800
  779POPS   GL111497  14.919   7.743   6.216  0.1880  0.0675  0.0387
  779POPS   GL211498  14.908   7.461   6.367 -0.3984 -0.0882 -0.1336
  779POPS   C1A11499  14.824   7.910   6.579  0.0086  0.2660 -0.1542
  779POPS   D2A11500  14.973   7.787   7.022  0.1831  0.1292 -0.2328
  779POPS   C3A11501  14.813   7.513   7.286  0.3222  0.0158  0.0951
  779POPS   C4A11502  14.515   7.232   7.363  0.1880 -0.2200  0.1296
  779POPS   C1B11503  14.757   7.394   6.744 -0.1867  0.0006  0.1110
  779POPS   C2B11504  14.461   7.012   6.872 -0.1552 -0.0854 -0.3241
  779POPS   C3B11505  14.537   6.763   7.201 -0.0469 -0.1989  0.1327
  779POPS   C4B11506  14.326   6.727   7.598  0.1190 -0.0666  0.1330
  780POPS   CNO11507   1.912  10.573   6.222  0.0935  0.2412 -0.1660
  780POPS   PO411508   1.596  10.835   6.047  0.2467  0.1215  0.0397
  780POPS   GL111509   1.579  10.901   6.526 -0.0089  0.3330 -0.3300
  780POPS   GL211510   1.225  10.733   6.618  0.0583 -0.0876 -0.1006
  780POPS   C1A11511   1.472  10.847   7.017  0.1702 -0.3333  0.1142
  780POPS   D2A11512   1.321  10.742   7.364 -0.0335  0.1604  0.1607
  780POPS   C3A11513   1.470  10.756   7.702  0.1815  0.1713  0.3194
  780POPS   C4A11514   1.707  10.807   8.074  0.1112  0.0222 -0.0204
  780POPS   C1B11515   1.119  10.492   6.996  0.0138 -0.0806  0.0558
  780POPS   C2B11516   1.143  10.208   7.351 -0.2571 -0.3478 -0.2291
  780POPS   C3B11517   1.131  10.394   7.746 -0.1157 -0.0372 -0.0751
  780POPS   C4B11518   1.380  10.455   8.158 -0.0723  0.1495 -0.0945
  781POPS   CNO11519   8.724  15.445   5.994  0.0584  0.0521 -0.1449
  781POPS   PO411520   8.550  15.082   6.078 -0.3320 -0.1017 -0.2053
  781POPS   GL111521   8.280  15.107   6.586  0.1182  0.0648  0.2450
  781POPS   GL211522   8.219  15.464   6.639 -0.1813  0.1251 -0.1897
  781POPS   C1A11523   8.243  14.915   6.877  0.0955 -0.1771  0.1998
  781POPS   D2A11524   8.194  14.851   7.227  0.2496 -0.0927 -0.1865
  781POPS   C3A11525   8.259  15.041   7.532  0.0517 -0.3238 -0.0184
  781POPS   C4A11526   8.473  15.381   7.676 -0.1401 -0.2590  0.2316
  781POPS   C1B11527   8.224  15.402   7.186 -0.3740  0.0505 -0.3951
  781POPS   C2B11528   8.030  15.686   7.541  0.2296  0.0706  0.0393
  781POPS   C3B11529   7.798  15.652   7.799  0.1104 -0.1049 -0.3676
  781POPS   C4B11530   7.412  15.681   8.121  0.0655 -0.0187 -0.2741
  782POPS   CNO11531  15.470   6.875   5.655 -0.1856 -0.0054  0.1609
  782POPS   PO411532  15.818   6.632   5.986 -0.0622 -0.0492 -0.2775
  782POPS   GL111533  15.892   6.616   6.413 -0.1756  0.1507 -0.0391
  782POPS   GL211534  15.679   6.345   6.551 -0.1617  0.3128  0.1013
  782POPS   C1A11535  16.010   6.543   6.841 -0.2727  0.1896  0.0699
  782POPS   D2A11536  16.175   6.702   7.199 -0.0048  0.1443  0.0470
  782POPS   C3A11537  15.989   6.651   7.578  0.0520 -0.2785  0.2674
  782POPS   C4A11538  16.160   6.434   7.847  0.0298  0.3240  0.0424
  782POPS   C1B11539  15.543   6.325   6.994 -0.0904  0.0900 -0.0110
  782POPS   C2B11540  15.563   6.392   7.373 -0.3031  0.0785  0.0912
  782POPS   C3B11541  15.670   6.445   7.877  0.0624  0.1887  0.0582
  782POPS   C4B11542  15.581   6.321   8.315  0.0581  0.0738 -0.0845
  783POPS   CNO11543  17.295  14.767   6.423  0.1354  0.2354 -0.0406
  783POPS   PO411544  17.011  15.078   6.409  0.2144  0.1506 -0.0296
  783POPS   GL111545  17.008  14.981   6.783 -0.0846 -0.0412 -0.0158
  783POPS   GL211546  17.051  15.254   7.025  0.0057  0.0226  0.0581
  783POPS   C1A11547  16.952  14.763   7.102  0.3076 -0.2692  0.1652
  783POPS   D2A11548  16.965  14.815   7.556 -0.0207  0.0102 -0.4291
  783POPS   C3A11549  16.927  14.822   8.077 -0.3695  0.2029  0.1879
  783POPS   C4A11550  17.077  14.585   8.435 -0.1274  0.0921 -0.1673
  783POPS   C1B11551  17.143  15.276   7.431  0.3308  0.0714  0.0666
  783POPS   C2B11552  17.309  15.375   7.820  0.0413  0.2600  0.1382
  783POPS   C3B11553  17.537  15.363   8.283  0.3377  0.3262  0.1708
  783POPS   C4B11554  17.562  15.309   8.706  0.0327 -0.0120  0.0784
  784POPS   CNO11555   8.618   3.140   5.899  0.1699  0.2575 -0.1554
  784POPS   PO411556   8.615   3.475   5.663 -0.3034  0.0656 -0.0210
  784POPS   GL111557   8.494   3.610   6.091  0.0844  0.1186  0.0374
  784POPS   GL211558   8.157   3.523   6.189  0.0094 -0.1507  0.0046
  784POPS   C1A11559   8.551   3.463   6.534  0.0253  0.4511 -0.2954
  784POPS   D2A11560   8.612   3.130   6.889  0.1180  0.0460  0.1365
  784POPS   C3A11561   8.515   2.728   6.901 -0.0053  0.0104  0.5196
  784POPS   C4A11562   8.288   2.467   7.069 -0.0546 -0.1245  0.2268
  784POPS   C1B11563   8.139   3.214   6.548 -0.0835 -0.0773  0.0127
  784POPS   C2B11564   8.148   2.991   7.019  0.2708 -0.1511 -0.0100
  784POPS   C3B11565   8.354   2.834   7.369 -0.0861  0.2055  0.2948
  784POPS   C4B11566   8.195   2.515   7.643 -0.3792 -0.2866 -0.1222
  785POPS   CNO11567  14.045  11.303   5.847  0.2230 -0.3388 -0.0990
  785POPS   PO411568  13.859  11.687   5.906 -0.2988  0.0326 -0.0984
  785POPS   GL111569  14.041  11.479   6.332 -0.1678 -0.0332  0.0068
  785POPS   GL211570  14.067  11.621   6.627  0.1935  0.0717 -0.0774
  785POPS   C1A11571  14.311  11.180   6.676 -0.1747 -0.0352 -0.1101
  785POPS   D2A11572  14.440  11.069   7.084  0.0399 -0.1244  0.2440
  785POPS   C3A11573  14.357  11.125   7.525  0.1058 -0.0140  0.0401
  785POPS   C4A11574  14.031  11.173   7.791 -0.1428 -0.0124 -0.0497
  785POPS   C1B11575  14.152  11.480   7.135  0.0734 -0.1660 -0.0448
  785POPS   C2B11576  14.215  11.586   7.556 -0.0677 -0.0371 -0.3108
  785POPS   C3B11577  14.419  11.442   7.922  0.0556  0.1602 -0.0779
  785POPS   C4B11578  14.767  11.228   8.094  0.2284 -0.2887  0.0452
  786POPS   CNO11579  11.730   4.656   5.434  0.0799 -0.0801 -0.2272
  786POPS   PO411580  11.635   4.927   5.673 -0.0417  0.0754  0.0797
  786POPS   GL111581  11.543   4.980   6.117 -0.0552  0.1535  0.1396
  786POPS   GL211582  11.331   4.819   6.348  0.0899  0.1546 -0.1726
  786POPS   C1A11583  11.525   5.289   6.486  0.3475 -0.3693  0.0516
  786POPS   D2A11584  11.400   5.344   6.972  0.2627  0.1579  0.1824
  786POPS   C3A11585  11.495   5.181   7.283  0.1952  0.2414  0.0933
  786POPS   C4A11586  11.781   4.904   7.552  0.2027 -0.1435  0.0243
  786POPS   C1B11587  11.447   4.859   6.755  0.2090 -0.0243 -0.2665
  786POPS   C2B11588  11.340   4.704   7.167  0.1927 -0.2172  0.0218
  786POPS   C3B11589  11.424   4.409   7.584  0.1530  0.1477  0.3647
  786POPS   C4B11590  11.405   4.191   8.060  0.2397  0.0741 -0.0982
  787POPS   CNO11591  12.978  14.540   6.146 -0.2817 -0.2612  0.3461
  787POPS   PO411592  13.293  14.314   6.314  0.1865  0.1412 -0.1212
  787POPS   GL111593  13.640  14.294   6.564  0.0054 -0.2317  0.3658
  787POPS   GL211594  13.631  14.038   6.752  0.0363 -0.2813 -0.1017
  787POPS   C1A11595  13.895  14.434   7.026 -0.2051  0.2154 -0.1727
  787POPS   D2A11596  13.785  14.338   7.461 -0.2006 -0.2613 -0.0223
  787POPS   C3A11597  13.705  14.023   7.739 -0.1887  0.2002 -0.1568
  787POPS   C4A11598  13.390  13.800   7.929 -0.0963  0.1512  0.4119
  787POPS   C1B11599  13.568  13.992   7.153  0.0026 -0.0809 -0.0206
  787POPS   C2B11600  13.295  14.120   7.491 -0.0202 -0.1237  0.0968
  787POPS   C3B11601  13.175  14.332   7.829 -0.3545 -0.2884 -0.2539
  787POPS   C4B11602  13.565  14.525   7.869  0.1653 -0.0620 -0.1069
  788POPS   CNO11603  13.278  11.058   5.392  0.0636 -0.0306 -0.1670
  788POPS   PO411604  13.047  11.279   5.809  0.1462 -0.1081  0.0363
  788POPS   GL111605  13.270  11.465   6.252  0.1182  0.1326 -0.0531
  788POPS   GL211606  13.539  11.553   6.316 -0.1745  0.0583  0.3357
  788POPS   C1A11607  13.118  11.392   6.689  0.2459 -0.1179  0.0516
  788POPS   D2A11608  13.021  11.371   7.195  0.0180 -0.0720 -0.3464
  788POPS   C3A11609  12.651  11.200   7.557 -0.0611 -0.0027  0.0922
  788POPS   C4A11610  12.220  11.041   7.704  0.0849 -0.1027 -0.2279
  788POPS   C1B11611  13.626  11.299   6.640 -0.1729  0.1679  0.1469
  788POPS   C2B11612  13.781  11.183   7.018 -0.2514  0.2411 -0.0439
  788POPS   C3B11613  13.965  10.971   7.254  0.1608  0.0587 -0.3194
  788POPS   C4B11614  14.225  10.638   7.486  0.0799  0.1752  0.0569
  789POPS   CNO11615   0.247  16.861   6.702 -0.2239 -0.0458 -0.0724
  789POPS   PO411616  -0.075  17.093   6.683  0.0287 -0.1210 -0.0151
  789POPS   GL111617   0.077  17.189   7.114  0.0966  0.0272  0.1531
  789POPS   GL211618   0.271  17.511   7.183 -0.2982  0.0331  0.1108
  789POPS   C1A11619   0.226  17.172   7.552 -0.1604 -0.0828  0.1047
  789POPS   D2A11620   0.282  17.514   7.812 -0.4436  0.1956  0.1699
  789POPS   C3A11621  -0.050  17.770   7.936  0.0326  0.0620  0.0540
  789POPS   C4A11622  -0.296  18.129   8.055 -0.0570  0.0481  0.2465
  789POPS   C1B11623  -0.058  17.560   7.389 -0.0161 -0.0976 -0.0325
  789POPS   C2B11624  -0.259  17.339   7.737 -0.1985  0.1763 -0.2407
  789POPS   C3B11625  -0.063  17.155   8.055 -0.1012 -0.0742  0.2802
  789POPS   C4B11626  -0.035  17.053   8.415 -0.2427 -0.0905 -0.5675
  790POPS   CNO11627   6.965   5.182   5.775  0.4139 -0.0163  0.0514
  790POPS   PO411628   7.237   5.030   5.901 -0.0068 -0.1746 -0.1692
  790POPS   GL111629   7.213   4.887   6.346  0.1256 -0.1057  0.3420
  790POPS   GL211630   6.981   5.034   6.552  0.0968 -0.1735 -0.1049
  790POPS   C1A11631   7.209   4.620   6.719  0.1101 -0.0978 -0.1475
  790POPS   D2A11632   6.990   4.717   7.041 -0.0441 -0.2252 -0.3216
  790POPS   C3A11633   7.129   4.692   7.471  0.0860 -0.1943  0.1533
  790POPS   C4A11634   7.005   4.571   7.917  0.1590  0.1688 -0.1599
  790POPS   C1B11635   6.896   5.206   6.952 -0.1754 -0.0274  0.0309
  790POPS   C2B11636   7.008   5.350   7.305 -0.0262 -0.0301  0.2366
  790POPS   C3B11637   7.143   5.287   7.743 -0.0975  0.3147 -0.2046
  790POPS   C4B11638   7.296   5.550   8.042 -0.0669 -0.0260  0.1798
  791POPS   CNO11639  12.886   8.451   5.715  0.2192 -0.0539 -0.0844
  791POPS   PO411640  12.827   8.005   5.865  0.0195 -0.0209 -0.0280
  791POPS   GL111641  12.848   8.028   6.246 -0.0607 -0.1686  0.2311
  791POPS   GL211642  12.923   7.780   6.393  0.0337  0.2956 -0.1435
  791POPS   C1A11643  12.924   8.188   6.712 -0.1779 -0.0485  0.0869
  791POPS   D2A11644  12.896   8.125   7.113  0.3365 -0.0948 -0.1810
  791POPS   C3A11645  13.154   8.274   7.550  0.0562  0.0274  0.2849
  791POPS   C4A11646  13.267   8.133   7.964  0.0923 -0.3412  0.2055
  791POPS   C1B11647  13.083   7.722   6.744 -0.0033 -0.2457  0.0184
  791POPS   C2B11648  13.182   7.637   7.155  0.1062 -0.0631 -0.2106
  791POPS   C3B11649  13.042   7.725   7.564 -0.0887 -0.0275  0.3213
  791POPS   C4B11650  12.682   7.985   7.542 -0.4060 -0.1763  0.4028
  792POPS   CNO11651  11.038   7.867   5.534 -0.1217 -0.2412  0.2006
  792POPS   PO411652  10.773   7.645   5.878 -0.0340  0.0049 -0.0149
  792POPS   GL111653  10.550   7.592   6.223  0.1422 -0.2961 -0.0226
  792POPS   GL211654  10.195   7.492   6.270  0.1609  0.2131 -0.1824
  792POPS   C1A11655  10.613   7.374   6.599  0.0904 -0.0737  0.0003
  792POPS   D2A11656  10.799   7.050   6.509  0.1347  0.1657 -0.1424
  792POPS   C3A11657  10.718   6.675   6.736  0.2624  0.1834 -0.0821
  792POPS   C4A11658  10.389   6.323   6.696 -0.1464  0.1712  0.2173
  792POPS   C1B11659  10.067   7.215   6.507  0.1209  0.1241  0.0481
  792POPS   C2B11660  10.191   7.284   6.911 -0.3146 -0.0628  0.1639
  792POPS   C3B11661  10.293   7.144   7.318  0.0204  0.1447  0.2644
  792POPS   C4B11662  10.677   7.139   7.621  0.1827  0.0971 -0.0770
  793POPS   CNO11663  11.454   8.069   5.720 -0.1677  0.1546  0.0020
  793POPS   PO411664  11.742   7.784   5.897  0.1866 -0.1317  0.2725
  793POPS   GL111665  11.932   7.785   6.335  0.2180  0.2228 -0.0657
  793POPS   GL211666  11.573   7.681   6.387 -0.0925  0.0511 -0.3150
  793POPS   C1A11667  12.039   7.767   6.735 -0.1886 -0.1910  0.1355
  793POPS   D2A11668  12.128   7.643   7.135 -0.3328  0.0079 -0.1523
  793POPS   C3A11669  11.917   7.549   7.433  0.0909  0.0969 -0.2133
  793POPS   C4A11670  12.071   7.322   7.777  0.1101 -0.1780  0.0911
  793POPS   C1B11671  11.322   7.736   6.807 -0.2589 -0.0510 -0.1111
  793POPS   C2B11672  11.145   7.757   7.196 -0.1757  0.1185 -0.1610
  793POPS   C3B11673  10.936   7.581   7.488 -0.0258  0.2420  0.0775
  793POPS   C4B11674  10.809   7.587   7.854  0.4352  0.0247 -0.1849
  794POPS   CNO11675  10.716  16.286   5.988  0.0282 -0.1600 -0.3037
  794POPS   PO411676  10.287  16.061   6.116  0.0385 -0.0110 -0.0197
  794POPS   GL111677  10.037  16.128   6.439 -0.1910  0.6034 -0.2416
  794POPS   GL211678  10.150  16.327   6.703 -0.3412 -0.0199  0.0613
  794POPS   C1A11679   9.963  15.900   6.913 -0.0083 -0.0898 -0.1777
  794POPS   D2A11680   9.979  15.844   7.360  0.1074 -0.0097 -0.2340
  794POPS   C3A11681   9.731  15.988   7.743  0.1450 -0.0684  0.0031
  794POPS   C4A11682   9.761  16.087   8.120 -0.2407 -0.2878 -0.2100
  794POPS   C1B11683  10.063  16.406   7.192  0.2732 -0.1320  0.1680
  794POPS   C2B11684  10.046  16.372   7.583  0.1250 -0.1516  0.1046
  794POPS   C3B11685   9.753  16.514   7.870 -0.2658 -0.0246 -0.1481
  794POPS   C4B11686   9.526  16.580   8.206 -0.0798  0.1849  0.0532
  795POPS   CNO11687  17.135   0.847   6.679 -0.3285 -0.1115 -0.0438
  795POPS   PO411688  17.266   1.115   6.886 -0.0043  0.2153  0.2717
  795POPS   GL111689  17.125   1.194   7.231 -0.1217 -0.0811  0.0462
  795POPS   GL211690  16.767   1.032   7.079  0.1557 -0.0937 -0.1295
  795POPS   C1A11691  17.050   1.346   7.713 -0.1102 -0.0410  0.2482
  795POPS   D2A11692  16.916   1.578   8.114 -0.1378  0.1332 -0.1184
  795POPS   C3A11693  17.124   1.559   8.575  0.0016 -0.0154  0.0974
  795POPS   C4A11694  17.335   1.776   8.882 -0.2089  0.0982 -0.1033
  795POPS   C1B11695  16.628   1.007   7.469  0.1230 -0.2063 -0.0252
  795POPS   C2B11696  16.673   1.038   7.919  0.2376  0.1538 -0.2005
  795POPS   C3B11697  16.717   1.222   8.368 -0.0685  0.0589 -0.0766
  795POPS   C4B11698  16.687   1.425   8.777  0.1328  0.0867 -0.3671
  796POPS   CNO11699  14.520  12.246   5.781 -0.0778  0.0149  0.1306
  796POPS   PO411700  14.748  12.056   6.174 -0.3634  0.1002 -0.2285
  796POPS   GL111701  14.545  12.101   6.550  0.1672  0.0776  0.3857
  796POPS   GL211702  14.226  12.206   6.643 -0.1218 -0.1846 -0.1975
  796POPS   C1A11703  14.529  12.148   7.059 -0.3434  0.2134 -0.2073
  796POPS   D2A11704  14.453  12.051   7.488 -0.1636  0.2989 -0.4040
  796POPS   C3A11705  14.581  11.917   7.924 -0.4328 -0.1306  0.0218
  796POPS   C4A11706  14.960  12.054   8.178  0.0251  0.2623  0.3623
  796POPS   C1B11707  14.051  11.968   7.036 -0.0740  0.1071 -0.1171
  796POPS   C2B11708  13.911  11.997   7.421  0.2290  0.0284 -0.0918
  796POPS   C3B11709  13.733  11.791   7.712 -0.1400  0.3994  0.1237
  796POPS   C4B11710  13.857  11.669   7.989  0.1569 -0.2065 -0.1643
  797POPS   CNO11711   4.133  15.150   6.479  0.2552 -0.0681 -0.0399
  797POPS   PO411712   3.957  14.800   6.264  0.0456  0.0594 -0.0949
  797POPS   GL111713   3.818  14.645   6.725 -0.1798  0.0807 -0.2425
  797POPS   GL211714   3.580  14.368   6.804  0.2442  0.0193  0.0813
  797POPS   C1A11715   3.934  14.553   7.131  0.2514  0.0246  0.2453
  797POPS   D2A11716   3.873  14.457   7.597  0.0324 -0.1647  0.0215
  797POPS   C3A11717   3.868  14.522   8.028  0.0327 -0.0275  0.1549
  797POPS   C4A11718   3.717  14.309   8.376 -0.0287 -0.0043 -0.1083
  797POPS   C1B11719   3.345  14.362   7.223  0.2160  0.2355 -0.0223
  797POPS   C2B11720   3.316  14.539   7.645 -0.2464  0.1999  0.0686
  797POPS   C3B11721   3.328  14.582   8.051  0.2664  0.0565  0.0130
  797POPS   C4B11722   3.072  14.576   8.405  0.0471 -0.0258  0.1736
  798POPS   CNO11723   1.109   3.490   6.515  0.0124 -0.1786  0.0628
  798POPS   PO411724   1.182   3.068   6.393  0.0967  0.2297 -0.0934
  798POPS   GL111725   1.229   3.180   6.897 -0.1746 -0.0179 -0.2760
  798POPS   GL211726   0.881   3.271   6.939  0.1496 -0.1921 -0.0919
  798POPS   C1A11727   1.193   3.310   7.313 -0.2053 -0.0915 -0.1075
  798POPS   D2A11728   1.130   3.288   7.802 -0.0082  0.2322 -0.1689
  798POPS   C3A11729   0.762   3.144   8.035 -0.1848 -0.1705  0.0319
  798POPS   C4A11730   0.346   3.185   7.957 -0.1672 -0.0708  0.0957
  798POPS   C1B11731   0.847   3.750   7.057  0.0652  0.2020  0.1464
  798POPS   C2B11732   0.754   3.907   7.495  0.1528  0.0945 -0.0351
  798POPS   C3B11733   0.574   4.113   7.877  0.0668 -0.0252 -0.2041
  798POPS   C4B11734   0.678   4.124   8.358 -0.0680 -0.1519 -0.2270
  799POPS   CNO11735  17.242  12.731   6.207  0.1030  0.2110 -0.0901
  799POPS   PO411736  17.382  12.427   5.997  0.5952  0.3216  0.2634
  799POPS   GL111737  17.496  12.343   6.461 -0.0394 -0.2275  0.0011
  799POPS   GL211738  17.634  12.647   6.583  0.0066 -0.2621  0.0044
  799POPS   C1A11739  17.317  12.162   6.837  0.0037  0.0169 -0.0861
  799POPS   D2A11740  17.445  11.828   7.037 -0.1513 -0.1300 -0.2816
  799POPS   C3A11741  17.579  11.830   7.533 -0.1633 -0.2655 -0.2057
  799POPS   C4A11742  17.348  11.819   7.993 -0.1856 -0.0528  0.0342
  799POPS   C1B11743  17.534  12.568   6.983  0.0112 -0.0078 -0.1348
  799POPS   C2B11744  17.377  12.240   7.338  0.0941 -0.1076 -0.0693
  799POPS   C3B11745  17.044  12.027   7.639  0.1287 -0.0936  0.1065
  799POPS   C4B11746  16.686  11.838   7.813 -0.1653 -0.0444  0.1594
  800POPS   CNO11747  17.580   8.571   5.759 -0.1083  0.2686 -0.0090
  800POPS   PO411748  17.740   8.216   5.844  0.2724  0.0310 -0.2467
  800POPS   GL111749  17.915   8.189   6.259  0.3210  0.1232 -0.0755
  800POPS   GL211750  18.212   8.027   6.361  0.0346  0.0030  0.5231
  800POPS   C1A11751  18.004   8.333   6.643  0.1051  0.0774  0.0891
  800POPS   D2A11752  18.029   8.583   6.986  0.3020  0.0985  0.2814
  800POPS   C3A11753  18.073   8.355   7.373  0.2682  0.0109 -0.1672
  800POPS   C4A11754  17.958   8.070   7.743  0.0569 -0.1862  0.0987
  800POPS   C1B11755  17.998   7.871   6.699  0.2771 -0.0936  0.0626
  800POPS   C2B11756  17.783   8.027   7.003  0.1699  0.1984  0.2212
  800POPS   C3B11757  17.601   8.252   7.281 -0.0966 -0.0176  0.0700
  800POPS   C4B11758  17.576   8.557   7.582  0.1253 -0.0304  0.1426
  801POPS   CNO11759   8.860   3.918   5.542  0.0707 -0.0312 -0.0009
  801POPS   PO411760   8.692   4.109   5.861  0.4877 -0.3593  0.0994
  801POPS   GL111761   8.686   4.424   6.273 -0.0884  0.1330 -0.1681
  801POPS   GL211762   8.611   4.685   6.367 -0.0950 -0.0817  0.1286
  801POPS   C1A11763   8.649   4.191   6.656  0.1493 -0.0410 -0.0669
  801POPS   D2A11764   8.664   3.828   6.925 -0.1991  0.0781  0.2511
  801POPS   C3A11765   8.646   3.828   7.362  0.0346  0.1417  0.1489
  801POPS   C4A11766   8.816   3.852   7.831  0.3734 -0.0486  0.2710
  801POPS   C1B11767   8.623   4.653   6.909 -0.2191  0.2301  0.0461
  801POPS   C2B11768   8.641   4.262   7.187  0.1000 -0.0370  0.2462
  801POPS   C3B11769   8.535   4.278   7.609 -0.1402 -0.1743  0.0732
  801POPS   C4B11770   8.296   4.032   7.960 -0.0044  0.0132  0.0754
  802POPS   CNO11771   7.862   2.346   5.919  0.4586  0.0810  0.1472
  802POPS   PO411772   7.772   2.772   5.762  0.2463 -0.0584 -0.2077
  802POPS   GL111773   7.681   2.740   6.240  0.0966 -0.1065  0.0166
  802POPS   GL211774   7.690   2.934   6.605  0.0605  0.1819  0.0748
  802POPS   C1A11775   8.074   2.642   6.577 -0.1032 -0.1717  0.0799
  802POPS   D2A11776   8.013   2.257   6.759  0.1041  0.0842  0.1782
  802POPS   C3A11777   7.899   2.185   7.191  0.1213  0.1506 -0.3568
  802POPS   C4A11778   7.552   2.124   7.507  0.0279 -0.1061 -0.1853
  802POPS   C1B11779   7.727   2.639   6.968 -0.1767  0.2087 -0.1074
  802POPS   C2B11780   7.799   2.633   7.369  0.1437  0.3645 -0.0548
  802POPS   C3B11781   7.708   2.477   7.801  0.1748  0.0473  0.1100
  802POPS   C4B11782   7.900   2.394   8.243  0.1748 -0.1468  0.1119
  803POPS   CNO11783   9.011   4.420   5.541  0.1232 -0.1747  0.0046
  803POPS   PO411784   9.145   4.619   5.949 -0.0253  0.0125  0.0421
  803POPS   GL111785   9.250   4.520   6.277 -0.0060 -0.1503 -0.2393
  803POPS   GL211786   9.191   4.222   6.483  0.2405  0.3531 -0.0984
  803POPS   C1A11787   9.430   4.713   6.650  0.0291 -0.2744  0.1477
  803POPS   D2A11788   9.681   4.867   6.964  0.0127  0.3919  0.1397
  803POPS   C3A11789   9.910   4.681   7.048 -0.2797 -0.0170  0.1189
  803POPS   C4A11790  10.022   4.408   7.256  0.2918 -0.1477 -0.0301
  803POPS   C1B11791   9.052   4.408   6.826  0.0967  0.0123  0.4014
  803POPS   C2B11792   9.240   4.533   7.198 -0.0471 -0.0641  0.3971
  803POPS   C3B11793   9.561   4.623   7.448  0.0448  0.0661 -0.1673
  803POPS   C4B11794   9.653   4.811   7.767  0.1550 -0.0185 -0.1749
  804POPS   CNO11795  13.139  13.827   6.595  0.4160  0.0499  0.1636
  804POPS   PO411796  12.714  13.869   6.725  0.0856  0.2143 -0.0386
  804POPS   GL111797  12.973  13.802   7.130 -0.0589  0.0748  0.0318
  804POPS   GL211798  13.262  13.612   7.005  0.1026 -0.0567  0.0567
  804POPS   C1A11799  13.044  13.641   7.567  0.0166 -0.1021  0.0053
  804POPS   D2A11800  12.916  13.939   7.930  0.0540 -0.0418 -0.3022
  804POPS   C3A11801  12.817  14.104   8.272 -0.1032 -0.1168 -0.1423
  804POPS   C4A11802  12.644  14.128   8.674  0.0401 -0.1792 -0.0961
  804POPS   C1B11803  13.059  13.249   7.198 -0.1062 -0.0642 -0.1561
  804POPS   C2B11804  13.084  12.985   7.615  0.0237  0.3208  0.0431
  804POPS   C3B11805  13.013  12.956   8.076 -0.4785 -0.1263  0.2794
  804POPS   C4B11806  13.034  12.740   8.534 -0.0824 -0.2739 -0.2181
  805POPS   CNO11807  14.964   5.175   6.359  0.0891  0.0059 -0.2350
  805POPS   PO411808  15.238   4.812   6.207 -0.0681 -0.0819 -0.1261
  805POPS   GL111809  15.579   4.939   6.520  0.0792  0.2062  0.2162
  805POPS   GL211810  15.426   5.263   6.659 -0.2408 -0.2194  0.0620
  805POPS   C1A11811  15.790   4.953   6.862 -0.0428 -0.1071  0.0788
  805POPS   D2A11812  15.723   4.974   7.287 -0.0385  0.0171  0.1212
  805POPS   C3A11813  16.122   5.142   7.541 -0.1979  0.1157 -0.1818
  805POPS   C4A11814  16.368   5.169   7.987 -0.0801  0.0575  0.2175
  805POPS   C1B11815  15.505   5.433   7.042  0.2935 -0.2715 -0.2138
  805POPS   C2B11816  15.564   5.410   7.439 -0.3945 -0.2106 -0.1832
  805POPS   C3B11817  15.720   5.513   7.827  0.1279  0.0644  0.2833
  805POPS   C4B11818  15.690   5.708   8.195  0.1018 -0.1567  0.1545
  806POPS   CNO11819  16.858   7.591   5.753  0.0969  0.1803 -0.0473
  806POPS   PO411820  17.273   7.839   5.827 -0.0958  0.2303 -0.0169
  806POPS   GL111821  17.364   7.925   6.324 -0.1918 -0.1887 -0.2983
  806POPS   GL211822  17.610   7.676   6.432  0.2413  0.0685  0.0211
  806POPS   C1A11823  17.288   7.871   6.794  0.1891 -0.0465 -0.0438
  806POPS   D2A11824  17.350   7.686   7.198  0.0362 -0.3534 -0.0472
  806POPS   C3A11825  17.610   7.780   7.582  0.0914  0.0842 -0.0660
  806POPS   C4A11826  17.525   7.854   7.903  0.0798  0.2608  0.0811
  806POPS   C1B11827  17.670   7.477   6.869 -0.0967 -0.0559 -0.0814
  806POPS   C2B11828  17.674   7.383   7.295  0.0851  0.0659 -0.0327
  806POPS   C3B11829  17.495   7.225   7.585  0.1128 -0.0073  0.1048
  806POPS   C4B11830  17.364   6.952   7.871 -0.0002 -0.0747 -0.4268
  807POPS   CNO11831   6.702   2.918   5.764 -0.0283  0.1679 -0.2339
  807POPS   PO411832   6.769   3.165   6.106 -0.2178 -0.3645  0.0467
  807POPS   GL111833   6.526   3.064   6.533  0.0616 -0.3214  0.1940
  807POPS   GL211834   6.287   2.914   6.583 -0.1054  0.0359 -0.1908
  807POPS   C1A11835   6.669   3.125   7.000 -0.0162 -0.2447 -0.0887
  807POPS   D2A11836   6.715   3.280   7.339 -0.1476 -0.2864 -0.1692
  807POPS   C3A11837   6.852   3.098   7.667  0.2544  0.0037 -0.0471
  807POPS   C4A11838   6.887   2.895   8.122  0.1027  0.1259 -0.0337
  807POPS   C1B11839   6.167   3.098   7.084  0.1019 -0.1113  0.1431
  807POPS   C2B11840   6.212   3.127   7.557 -0.2703 -0.0393 -0.1287
  807POPS   C3B11841   6.437   3.067   7.983 -0.0968  0.2400  0.1021
  807POPS   C4B11842   6.440   2.817   8.337 -0.0305  0.1586 -0.2361
  808POPS   CNO11843  10.631  11.798   6.583  0.0426  0.1425 -0.0269
  808POPS   PO411844  10.318  11.732   6.237 -0.1019  0.1670  0.0694
  808POPS   GL111845   9.981  11.617   6.486 -0.0841 -0.0728  0.2401
  808POPS   GL211846   9.983  11.279   6.453 -0.0411 -0.1235  0.1930
  808POPS   C1A11847   9.774  11.823   6.850 -0.0481  0.0856  0.1502
  808POPS   D2A11848   9.818  11.761   7.235  0.3345  0.2477  0.0944
  808POPS   C3A11849   9.712  11.845   7.682 -0.1114  0.0085  0.1120
  808POPS   C4A11850   9.493  12.095   7.847  0.0740  0.1948  0.1935
  808POPS   C1B11851   9.856  11.355   6.967 -0.1845 -0.2032 -0.0857
  808POPS   C2B11852  10.021  11.336   7.363  0.0543  0.3233  0.0671
  808POPS   C3B11853  10.083  11.446   7.761 -0.3387 -0.4531 -0.1055
  808POPS   C4B11854   9.961  11.274   8.204  0.0432  0.1371  0.0190
  809POPS   CNO11855   5.578   4.713   6.418  0.1606 -0.0674 -0.2038
  809POPS   PO411856   5.832   5.025   6.035 -0.0537 -0.0099  0.0775
  809POPS   GL111857   5.953   5.178   6.362 -0.0336  0.2578 -0.1372
  809POPS   GL211858   5.718   5.397   6.561  0.2411  0.0168  0.1463
  809POPS   C1A11859   6.046   5.192   6.888 -0.0451 -0.0384  0.0260
  809POPS   D2A11860   6.078   4.912   7.214  0.0691  0.1942  0.1197
  809POPS   C3A11861   5.652   4.817   7.421  0.2865  0.3570 -0.1201
  809POPS   C4A11862   5.530   4.521   7.778 -0.3320  0.3844  0.0414
  809POPS   C1B11863   5.576   5.092   6.870  0.0919  0.3302  0.1226
  809POPS   C2B11864   5.236   4.822   7.075  0.0320 -0.0906  0.1447
  809POPS   C3B11865   5.150   4.582   7.436 -0.2196 -0.0376 -0.2302
  809POPS   C4B11866   5.088   4.583   7.966  0.4402 -0.0477  0.1498
  810POPS   CNO11867   1.785  17.534   7.057  0.0893 -0.2982  0.2041
  810POPS   PO411868   1.703  17.904   6.762  0.1481  0.0520  0.0009
  810POPS   GL111869   1.773  18.068   7.127 -0.2187  0.2690  0.0256
  810POPS   GL211870   1.725  18.311   7.148  0.0876 -0.0661 -0.2591
  810POPS   C1A11871   2.003  17.972   7.448 -0.1575 -0.1750  0.0161
  810POPS   D2A11872   1.980  17.964   7.867 -0.0876  0.0116 -0.1612
  810POPS   C3A11873   2.124  18.017   8.261  0.0319  0.1263  0.0471
  810POPS   C4A11874   2.080  17.972   8.667  0.0300  0.2058  0.1582
  810POPS   C1B11875   1.511  18.146   7.539  0.0250 -0.0060 -0.1117
  810POPS   C2B11876   1.512  18.175   7.947 -0.1042 -0.1828 -0.3289
  810POPS   C3B11877   1.256  18.261   8.283  0.1584  0.0359  0.0924
  810POPS   C4B11878   0.830  18.219   8.392 -0.0977  0.1113 -0.0886
  811YOPS   CNO11879  17.169  10.177   5.466  0.0264 -0.0914  0.0963
  811YOPS   PO411880  16.979  10.284   5.738  0.0711  0.0792  0.1532
  811YOPS   GL111881  16.955  10.056   6.136 -0.4599  0.0347 -0.0416
  811YOPS   GL211882  17.183  10.194   6.421 -0.2127 -0.1478 -0.0311
  811YOPS   C1A11883  16.831   9.896   6.551  0.2200 -0.1827 -0.0289
  811YOPS   D2A11884  16.930   9.842   6.866  0.0004 -0.2189 -0.1107
  811YOPS   C3A11885  17.154   9.651   7.183  0.0525  0.2925  0.5126
  811YOPS   C4A11886  17.313   9.606   7.618  0.0574 -0.1111  0.0295
  811YOPS   C1B11887  17.174  10.245   6.833  0.0623 -0.0263  0.0611
  811YOPS   C2B11888  17.269  10.135   7.309 -0.1433 -0.1065 -0.3090
  811YOPS   D3B11889  17.083  10.015   7.666 -0.1393 -0.3898  0.0403
  811YOPS   C4B11890  16.518  10.016   7.743 -0.0555  0.0249  0.1011
  812YOPS   CNO11891   4.317   2.111   6.205  0.0260 -0.0980 -0.3265
  812YOPS   PO411892   4.174   1.856   6.480  0.1689  0.1545  0.3353
  812YOPS   GL111893   4.152   1.821   6.882 -0.0042  0.1760 -0.1725
  812YOPS   GL211894   3.975   1.630   7.076  0.0202  0.2547  0.0511
  812YOPS   C1A11895   4.262   1.954   7.340  0.1766 -0.1121 -0.3978
  812YOPS   D2A11896   4.373   2.131   7.802 -0.0374  0.0907  0.1363
  812YOPS   C3A11897   4.468   2.250   8.197 -0.2295 -0.0258 -0.2087
  812YOPS   C4A11898   4.130   2.529   8.474  0.1464 -0.0855 -0.0279
  812YOPS   C1B11899   3.853   1.695   7.438  0.3923 -0.1198 -0.0962
  812YOPS   C2B11900   3.678   1.624   7.770 -0.4004  0.0578  0.0158
  812YOPS   D3B11901   3.531   1.676   8.232  0.0775 -0.1684 -0.0020
  812YOPS   C4B11902   3.790   1.769   8.613 -0.4583  0.0240  0.1679
  813YOPS   CNO11903   0.134  12.058   5.940 -0.0359 -0.2521  0.0597
  813YOPS   PO411904   0.427  11.843   6.114  0.0810 -0.2776  0.0871
  813YOPS   GL111905   0.411  11.772   6.447  0.0615 -0.1368  0.0906
  813YOPS   GL211906   0.061  11.914   6.493  0.1550  0.0340  0.1564
  813YOPS   C1A11907   0.417  11.574   6.837 -0.0618  0.0056  0.1095
  813YOPS   D2A11908   0.325  11.702   7.238 -0.1194  0.1657 -0.3782
  813YOPS   C3A11909   0.302  11.626   7.726  0.0560 -0.0018 -0.1189
  813YOPS   C4A11910   0.650  11.778   7.995  0.1562 -0.0394  0.2067
  813YOPS   C1B11911   0.209  12.178   6.863  0.0917  0.2800  0.2092
  813YOPS   C2B11912   0.237  12.215   7.300 -0.3175  0.1972 -0.1505
  813YOPS   D3B11913   0.114  12.510   7.584 -0.2210 -0.2794  0.2038
  813YOPS   C4B11914   0.123  12.608   8.025  0.0307 -0.0644  0.1684
  814YOPS   CNO11915   1.869  14.382   5.743  0.0034  0.0889 -0.0352
  814YOPS   PO411916   1.782  14.065   6.082 -0.0840 -0.0501 -0.4145
  814YOPS   GL111917   1.899  14.076   6.508  0.0113 -0.2090 -0.2824
  814YOPS   GL211918   1.779  13.909   6.733 -0.1104 -0.0227  0.1044
  814YOPS   C1A11919   2.243  14.151   6.792  0.0050 -0.1606  0.0640
  814YOPS   D2A11920   2.333  14.082   7.103 -0.1524 -0.2509  0.1228
  814YOPS   C3A11921   2.409  13.777   7.331 -0.3461 -0.2458  0.0821
  814YOPS   C4A11922   2.423  13.952   7.779  0.1161  0.0715 -0.0763
  814YOPS   C1B11923   1.877  13.855   7.080 -0.1979  0.1737  0.0978
  814YOPS   C2B11924   1.987  13.715   7.503 -0.0755  0.0815 -0.0888
  814YOPS   D3B11925   1.990  13.805   7.954 -0.1595 -0.2206 -0.3658
  814YOPS   C4B11926   2.315  14.033   8.315 -0.1735 -0.2033  0.0417
  815YOPS   CNO11927   7.328  10.911   6.023 -0.1230  0.1763  0.2088
  815YOPS   PO411928   7.755  10.797   6.171 -0.0117 -0.0831  0.0611
  815YOPS   GL111929   8.066  10.735   6.358  0.1830 -0.1879 -0.1055
  815YOPS   GL211930   8.300  10.435   6.357  0.1308  0.0747 -0.1656
  815YOPS   C1A11931   8.460  10.910   6.464  0.0896  0.0029 -0.2291
  815YOPS   D2A11932   8.878  11.124   6.698  0.0358  0.2311 -0.0028
  815YOPS   C3A11933   8.912  10.786   6.946  0.0856  0.3885  0.0543
  815YOPS   C4A11934   8.826  10.736   7.343  0.2318 -0.4300  0.4691
  815YOPS   C1B11935   8.272  10.563   6.806  0.3081 -0.1441  0.3253
  815YOPS   C2B11936   8.156  10.550   7.231 -0.0328  0.2431 -0.0977
  815YOPS   D3B11937   8.322  10.541   7.569 -0.4016  0.0332 -0.0799
  815YOPS   C4B11938   8.195  10.279   7.982 -0.0891  0.0657 -0.0497
  816YOPS   CNO11939   6.902   3.616   5.900 -0.1665 -0.0147  0.0091
  816YOPS   PO411940   7.328   3.592   5.956  0.2295 -0.0665 -0.0464
  816YOPS   GL111941   7.258   3.753   6.335 -0.1520  0.2145  0.0542
  816YOPS   GL211942   7.470   3.631   6.544  0.3681  0.2782 -0.1594
  816YOPS   C1A11943   7.329   4.051   6.634 -0.1641 -0.1941  0.0888
  816YOPS   D2A11944   7.457   4.146   6.995  0.2882  0.1490  0.0783
  816YOPS   C3A11945   7.507   4.055   7.399 -0.0923 -0.1215  0.1715
  816YOPS   C4A11946   7.802   3.973   7.755 -0.1134  0.1829 -0.0408
  816YOPS   C1B11947   7.649   3.727   6.847  0.1597 -0.0345  0.0479
  816YOPS   C2B11948   7.702   3.609   7.303 -0.0127  0.0913  0.0591
  816YOPS   D3B11949   7.690   3.465   7.736  0.1501  0.0230  0.4145
  816YOPS   C4B11950   7.421   3.041   7.798  0.1060 -0.0374 -0.1555
  817YOPS   CNO11951  13.429  17.151   6.297  0.1059  0.1591 -0.1199
  817YOPS   PO411952  13.339  17.499   6.225  0.0243  0.4140  0.0996
  817YOPS   GL111953  13.363  17.614   6.589  0.0224 -0.0984  0.0873
  817YOPS   GL211954  13.154  17.881   6.679  0.0239 -0.1785 -0.0665
  817YOPS   C1A11955  13.466  17.633   6.952 -0.1203  0.0132 -0.0883
  817YOPS   D2A11956  13.226  17.700   7.348 -0.0494 -0.1339  0.0495
  817YOPS   C3A11957  13.239  17.584   7.763  0.2256  0.1841  0.1199
  817YOPS   C4A11958  13.213  17.494   8.169  0.0674  0.2750 -0.0603
  817YOPS   C1B11959  12.862  17.935   7.081 -0.2142 -0.0475 -0.2179
  817YOPS   C2B11960  12.725  17.841   7.535  0.0411  0.1063 -0.0304
  817YOPS   D3B11961  12.745  17.666   7.984  0.0531  0.0150  0.3404
  817YOPS   C4B11962  12.756  17.235   8.119  0.4029  0.0256  0.0575
  818YOPS   CNO11963  11.826  16.388   5.850  0.0316  0.1799 -0.3401
  818YOPS   PO411964  11.596  16.211   6.229 -0.0919 -0.1727 -0.0014
  818YOPS   GL111965  11.511  16.164   6.679 -0.0477 -0.2956  0.1931
  818YOPS   GL211966  11.562  15.869   6.775 -0.1181 -0.0865 -0.0728
  818YOPS   C1A11967  11.505  16.384   7.055 -0.0699  0.2156 -0.2058
  818YOPS   D2A11968  11.441  16.405   7.456  0.0216 -0.0704 -0.2407
  818YOPS   C3A11969  11.566  16.508   7.891 -0.0196 -0.0745 -0.0491
  818YOPS   C4A11970  11.191  16.536   8.166 -0.1078  0.2606  0.2283
  818YOPS   C1B11971  11.478  15.915   7.225 -0.0025  0.4757  0.1720
  818YOPS   C2B11972  11.436  15.914   7.682  0.2403 -0.4498  0.0280
  818YOPS   D3B11973  11.212  16.012   8.079 -0.2552  0.0552 -0.0209
  818YOPS   C4B11974  11.034  15.653   8.339 -0.0657  0.0090  0.1054
  819YOPS   CNO11975  11.718   7.325   6.089  0.0794  0.0454 -0.3645
  819YOPS   PO411976  11.875   6.883   6.022  0.0190 -0.1526  0.1130
  819YOPS   GL111977  11.730   6.907   6.402  0.2188  0.0068  0.1557
  819YOPS   GL211978  11.453   7.038   6.369  0.0275  0.3514 -0.0201
  819YOPS   C1A11979  11.777   6.739   6.723 -0.5436 -0.3787  0.0727
  819YOPS   D2A11980  11.592   6.882   7.139  0.0146 -0.2587  0.0805
  819YOPS   C3A11981  11.614   6.821   7.536  0.0742 -0.1576 -0.3805
  819YOPS   C4A11982  11.310   6.589   7.629  0.0535 -0.1103  0.3469
  819YOPS   C1B11983  11.627   7.332   6.699  0.0357  0.2950 -0.0132
  819YOPS   C2B11984  11.608   7.404   7.103 -0.0210 -0.0663  0.1469
  819YOPS   D3B11985  11.444   7.405   7.631 -0.1047 -0.1728  0.2721
  819YOPS   C4B11986  11.588   7.054   7.940  0.2125 -0.0522 -0.0786
  820YOPS   CNO11987   5.953  12.840   5.695  0.0626  0.1393 -0.1464
  820YOPS   PO411988   6.162  12.551   6.050 -0.1468  0.1418 -0.1861
  820YOPS   GL111989   6.058  12.645   6.612 -0.0407 -0.2567  0.0399
  820YOPS   GL211990   5.746  12.847   6.667 -0.0122  0.0724  0.0001
  820YOPS   C1A11991   6.123  12.816   6.994 -0.1673  0.0260  0.0434
  820YOPS   D2A11992   6.076  12.834   7.432  0.1025 -0.2164  0.0124
  820YOPS   C3A11993   6.068  12.835   7.875 -0.0755 -0.0542  0.3287
  820YOPS   C4A11994   6.197  12.819   8.296  0.1072 -0.4425  0.2834
  820YOPS   C1B11995   5.625  12.837   7.051 -0.0030 -0.0948 -0.1116
  820YOPS   C2B11996   5.561  12.675   7.530  0.2974 -0.1144 -0.1261
  820YOPS   D3B11997   5.236  12.628   7.757  0.4203  0.3531  0.1669
  820YOPS   C4B11998   5.204  12.768   8.157  0.3353 -0.1456  0.1614
  821YOPS   CNO11999   3.302   4.227   6.595  0.1171  0.1048 -0.0096
  821YOPS   PO412000   3.425   4.472   6.182  0.1938  0.0360 -0.1133
  821YOPS   GL112001   3.417   4.769   6.605 -0.1696 -0.3178  0.1413
  821YOPS   GL212002   3.773   4.937   6.594  0.0529 -0.1913 -0.1063
  821YOPS   C1A12003   3.296   4.934   7.020  0.0997 -0.2710  0.4104
  821YOPS   D2A12004   3.326   4.940   7.487 -0.0685 -0.0449 -0.3068
  821YOPS   C3A12005   3.237   5.203   7.801  0.0748 -0.3072 -0.2142
  821YOPS   C4A12006   3.462   5.074   8.199 -0.0880  0.0255 -0.2683
  821YOPS   C1B12007   3.819   4.836   6.979 -0.1993  0.1942 -0.3393
  821YOPS   C2B12008   3.876   4.945   7.323 -0.3583 -0.0595 -0.0118
  821YOPS   D3B12009   3.815   5.184   7.659 -0.0332  0.0965 -0.0911
  821YOPS   C4B12010   3.555   5.519   7.901 -0.3368  0.0916  0.2536
  822YOPS   CNO12011  12.494   6.265   5.559 -0.1989  0.1605  0.0393
  822YOPS   PO412012  12.334   6.229   6.006 -0.0342 -0.0072  0.2034
  822YOPS   GL112013  12.619   6.258   6.405 -0.0375 -0.0450  0.1966
  822YOPS   GL212014  12.843   6.498   6.425  0.0004 -0.0687  0.1351
  822YOPS   C1A12015  12.475   6.199   6.876  0.1255 -0.1396  0.1817
  822YOPS   D2A12016  12.488   6.364   7.298 -0.1302 -0.0010  0.0254
  822YOPS   C3A12017  12.289   6.474   7.659 -0.1508  0.0372  0.2444
  822YOPS   C4A12018  12.074   6.827   7.710  0.4556  0.0169 -0.1224
  822YOPS   C1B12019  12.764   6.595   6.927  0.2088  0.0159  0.1198
  822YOPS   C2B12020  12.888   6.731   7.337  0.1007 -0.0333  0.2459
  822YOPS   D3B12021  13.135   6.501   7.581  0.1496 -0.0525 -0.0615
  822YOPS   C4B12022  13.000   6.299   7.917  0.1350  0.0051 -0.0408
  823YOPS   CNO12023   3.065  13.094   6.163  0.2325 -0.1533 -0.0368
  823YOPS   PO412024   2.675  12.952   6.024  0.1476 -0.0654  0.1486
  823YOPS   GL112025   2.697  12.905   6.513 -0.1274  0.0158  0.1307
  823YOPS   GL212026   2.494  13.129   6.676  0.1378 -0.4321 -0.1606
  823YOPS   C1A12027   2.824  12.792   6.939 -0.1069  0.2346 -0.2319
  823YOPS   D2A12028   2.777  12.932   7.408  0.0696  0.2675 -0.0503
  823YOPS   C3A12029   2.771  13.109   7.803  0.1384 -0.0573  0.1273
  823YOPS   C4A12030   2.826  13.095   8.231  0.1163  0.1153 -0.1902
  823YOPS   C1B12031   2.505  13.265   7.110 -0.0596  0.0243  0.0777
  823YOPS   C2B12032   2.405  13.418   7.596  0.1504  0.1114 -0.0862
  823YOPS   D3B12033   2.463  13.473   8.107 -0.5040 -0.2601  0.0204
  823YOPS   C4B12034   2.477  13.158   8.531 -0.0561 -0.0153 -0.0452
  824YOPS   CNO12035  11.934   0.387   6.014  0.0677  0.0001 -0.1026
  824YOPS   PO412036  11.940   0.195   6.377  0.1587  0.1056  0.0103
  824YOPS   GL112037  12.141   0.345   6.828 -0.0894 -0.2502 -0.2842
  824YOPS   GL212038  12.488   0.153   6.658  0.1511 -0.1405 -0.0487
  824YOPS   C1A12039  12.169   0.407   7.267 -0.0604 -0.0945 -0.4591
  824YOPS   D2A12040  11.975   0.339   7.648 -0.1769  0.1316 -0.4433
  824YOPS   C3A12041  11.706   0.278   7.870  0.1785  0.0252  0.0941
  824YOPS   C4A12042  11.530   0.256   8.317  0.0261 -0.2760  0.0133
  824YOPS   C1B12043  12.473  -0.003   7.100  0.0962  0.2360  0.0979
  824YOPS   C2B12044  12.300  -0.131   7.529 -0.0415  0.1070 -0.0522
  824YOPS   D3B12045  12.182  -0.028   7.961 -0.1644 -0.1544 -0.0469
  824YOPS   C4B12046  12.259  -0.283   8.246 -0.1359  0.2778  0.0955
  825YOPS   CNO12047   9.539   2.076   6.031  0.1638  0.2761  0.1547
  825YOPS   PO412048   9.645   2.363   5.951 -0.0218 -0.2855 -0.0435
  825YOPS   GL112049   9.782   2.334   6.353 -0.0508 -0.2492  0.3229
  825YOPS   GL212050  10.109   2.433   6.404 -0.3259 -0.2753 -0.1303
  825YOPS   C1A12051   9.641   2.319   6.841  0.2202  0.0389  0.0307
  825YOPS   D2A12052   9.587   2.119   7.253 -0.2415  0.1622 -0.3959
  825YOPS   C3A12053   9.251   1.989   7.441 -0.1729 -0.1031 -0.5084
  825YOPS   C4A12054   9.339   1.674   7.478 -0.3672  0.0521 -0.1265
  825YOPS   C1B12055  10.165   2.315   6.788  0.1598 -0.2344 -0.1010
  825YOPS   C2B12056  10.054   2.419   7.224  0.1116  0.1057 -0.0365
  825YOPS   D3B12057   9.986   2.275   7.573  0.0882 -0.0009 -0.0047
  825YOPS   C4B12058   9.623   2.601   7.676  0.1043 -0.0372 -0.0081
  826YOPS   CNO12059   1.286  13.886   6.022 -0.1826 -0.0139  0.0163
  826YOPS   PO412060   1.052  13.774   6.343  0.0474  0.3779  0.1225
  826YOPS   GL112061   1.241  13.853   6.790 -0.0301 -0.0286  0.0743
  826YOPS   GL212062   1.381  13.571   6.875 -0.0014  0.0896 -0.1536
  826YOPS   C1A12063   1.417  14.088   7.132  0.0399  0.0202  0.0833
  826YOPS   D2A12064   1.526  13.973   7.591 -0.0829 -0.0070  0.2536
  826YOPS   C3A12065   1.494  13.894   8.022 -0.2284  0.0363 -0.1476
  826YOPS   C4A12066   1.539  13.417   8.178  0.2610  0.0450 -0.1851
  826YOPS   C1B12067   1.530  13.532   7.239 -0.1284 -0.1100  0.2473
  826YOPS   C2B12068   1.645  13.422   7.662  0.1807 -0.2275  0.1653
  826YOPS   D3B12069   2.050  13.315   7.917 -0.0261  0.0076  0.0481
  826YOPS   C4B12070   2.061  13.218   8.330  0.0737  0.1396  0.0769
  827YOPS   CNO12071   6.933   6.634   6.067 -0.2269 -0.0481 -0.1386
  827YOPS   PO412072   6.708   6.794   6.409  0.1667 -0.0141  0.1432
  827YOPS   GL112073   6.963   6.521   6.787  0.0357 -0.0799  0.1105
  827YOPS   GL212074   7.241   6.733   6.881 -0.2162  0.2196  0.0169
  827YOPS   C1A12075   6.830   6.351   7.158 -0.1327  0.3143  0.0751
  827YOPS   D2A12076   6.739   6.267   7.608 -0.2439 -0.0454  0.1811
  827YOPS   C3A12077   6.573   5.990   7.859 -0.0676  0.2508  0.1135
  827YOPS   C4A12078   6.685   6.044   8.354  0.1257 -0.1760 -0.1071
  827YOPS   C1B12079   7.341   6.758   7.270  0.1764  0.3963  0.2320
  827YOPS   C2B12080   7.417   6.807   7.621 -0.1701  0.0611 -0.1065
  827YOPS   D3B12081   7.687   7.057   7.897  0.1383  0.0480  0.0313
  827YOPS   C4B12082   7.669   7.526   7.811  0.1074 -0.0652  0.1669
  828YOPS   CNO12083   6.699   4.757   5.647  0.0151 -0.1146 -0.0021
  828YOPS   PO412084   6.368   4.771   5.823 -0.0097  0.0285 -0.0705
  828YOPS   GL112085   6.332   4.827   6.332 -0.1163 -0.0801 -0.0568
  828YOPS   GL212086   6.423   5.130   6.488  0.0125 -0.1600 -0.3080
  828YOPS   C1A12087   6.029   4.763   6.688 -0.1583 -0.1590  0.4325
  828YOPS   D2A12088   5.758   4.610   6.999 -0.4994  0.2985 -0.1376
  828YOPS   C3A12089   5.492   4.365   7.106  0.1156 -0.2587 -0.2087
  828YOPS   C4A12090   5.104   4.181   7.031 -0.0815 -0.0590 -0.1023
  828YOPS   C1B12091   6.529   4.888   6.812 -0.0701 -0.0093 -0.2479
  828YOPS   C2B12092   6.515   4.673   7.169 -0.0305 -0.0735  0.1930
  828YOPS   D3B12093   6.667   4.545   7.553 -0.1052 -0.0945 -0.2207
  828YOPS   C4B12094   6.525   4.437   8.018 -0.1068  0.0696  0.1851
  829YOPS   CNO12095  13.086   4.178   5.402  0.1431 -0.1290  0.0257
  829YOPS   PO412096  13.270   3.904   5.754  0.0106 -0.0439 -0.0903
  829YOPS   GL112097  13.250   3.916   6.176  0.0089  0.0055 -0.0919
  829YOPS   GL212098  13.471   4.131   6.392 -0.1988  0.0885  0.1088
  829YOPS   C1A12099  13.014   4.132   6.520  0.2797  0.1433 -0.1976
  829YOPS   D2A12100  13.153   4.125   6.957 -0.3833 -0.1486  0.2249
  829YOPS   C3A12101  13.369   4.086   7.259  0.2390 -0.2764 -0.1931
  829YOPS   C4A12102  13.152   4.318   7.647 -0.2264  0.0442 -0.1441
  829YOPS   C1B12103  13.574   4.305   6.739 -0.0668  0.0079 -0.0556
  829YOPS   C2B12104  13.774   4.302   7.217  0.0745  0.0150 -0.0541
  829YOPS   D3B12105  13.937   4.309   7.636 -0.3088  0.0963  0.1102
  829YOPS   C4B12106  13.645   4.341   7.914  0.2242 -0.0052  0.1503
  830YOPS   CNO12107   2.335  16.123   6.245 -0.1518  0.0487 -0.0808
  830YOPS   PO412108   2.214  15.787   6.557 -0.2804  0.3248  0.1425
  830YOPS   GL112109   2.123  15.635   6.888  0.0300  0.2276 -0.0686
  830YOPS   GL212110   1.905  15.436   6.880 -0.0224 -0.3873  0.1208
  830YOPS   C1A12111   2.362  15.429   7.185  0.2273  0.0834  0.1125
  830YOPS   D2A12112   2.490  15.301   7.469 -0.0048 -0.2053  0.1059
  830YOPS   C3A12113   2.638  15.119   7.804 -0.0726 -0.1475 -0.0330
  830YOPS   C4A12114   2.514  15.389   8.141 -0.2794  0.4171 -0.1602
  830YOPS   C1B12115   1.913  15.361   7.335 -0.1389 -0.0990  0.0080
  830YOPS   C2B12116   1.994  15.237   7.726 -0.3071 -0.2362  0.1867
  830YOPS   D3B12117   2.214  15.014   8.101  0.0876  0.1943  0.0897
  830YOPS   C4B12118   2.104  15.079   8.602  0.3723  0.0555 -0.3469
  831YOPS   CNO12119   5.754   9.488   5.737  0.1167  0.0692 -0.0625
  831YOPS   PO412120   5.727   9.267   6.133  0.1301  0.1516  0.0686
  831YOPS   GL112121   5.643   9.239   6.554  0.2323 -0.4851  0.1360
  831YOPS   GL212122   5.578   8.943   6.540  0.0991  0.0796 -0.1366
  831YOPS   C1A12123   5.273   9.203   6.899  0.0003  0.0513 -0.3823
  831YOPS   D2A12124   5.122   9.422   7.262 -0.1044  0.2504  0.2614
  831YOPS   C3A12125   5.048   9.473   7.605 -0.0157 -0.1655  0.2528
  831YOPS   C4A12126   5.056   9.822   7.937  0.4783  0.0621 -0.1088
  831YOPS   C1B12127   5.452   8.706   6.803 -0.0206  0.1522 -0.1204
  831YOPS   C2B12128   5.525   8.553   7.249  0.0133  0.3828 -0.0488
  831YOPS   D3B12129   5.751   8.261   7.548  0.0160 -0.1606 -0.1381
  831YOPS   C4B12130   5.594   7.854   7.647  0.1325  0.4793  0.0815
  832YOPS   CNO12131   0.574  16.500   6.905  0.0621 -0.1169  0.1730
  832YOPS   PO412132   0.724  16.787   6.721  0.2248 -0.0636  0.1081
  832YOPS   GL112133   0.572  16.940   7.133  0.2916 -0.0206  0.0213
  832YOPS   GL212134   0.726  17.226   7.230 -0.1393 -0.0648  0.0381
  832YOPS   C1A12135   0.531  16.792   7.644  0.0849 -0.1800  0.1029
  832YOPS   D2A12136   0.580  16.964   7.948 -0.0740  0.1708 -0.2752
  832YOPS   C3A12137   0.493  17.014   8.365 -0.1252 -0.0576  0.1206
  832YOPS   C4A12138   0.260  17.437   8.334 -0.0153 -0.2559  0.0554
  832YOPS   C1B12139   0.677  17.322   7.580 -0.2551  0.0636 -0.3056
  832YOPS   C2B12140   0.700  17.460   8.045 -0.0718  0.3535  0.2703
  832YOPS   D3B12141   0.676  17.665   8.461 -0.2842 -0.1353 -0.0452
  832YOPS   C4B12142   0.506  17.610   8.872  0.3981 -0.0154  0.3171
  833YOPS   CNO12143  14.415   4.992   6.462 -0.0513 -0.1967  0.1052
  833YOPS   PO412144  14.799   4.689   6.493 -0.1738  0.1247 -0.0361
  833YOPS   GL112145  14.603   4.627   6.863  0.1374  0.3216  0.0806
  833YOPS   GL212146  14.221   4.612   6.822 -0.1206 -0.1854 -0.3193
  833YOPS   C1A12147  14.442   4.699   7.302  0.1552 -0.0546  0.1959
  833YOPS   D2A12148  14.215   4.741   7.649 -0.0333 -0.1406 -0.1639
  833YOPS   C3A12149  14.004   4.667   8.084  0.0049 -0.0201  0.2565
  833YOPS   C4A12150  13.727   5.005   8.127 -0.2066 -0.1381 -0.3193
  833YOPS   C1B12151  14.256   4.202   7.107 -0.2288  0.1892 -0.2021
  833YOPS   C2B12152  14.365   4.058   7.498 -0.2061 -0.2338 -0.0714
  833YOPS   D3B12153  14.797   4.045   7.674 -0.5579  0.0921 -0.0360
  833YOPS   C4B12154  14.906   3.847   8.081  0.0596 -0.0721  0.0392
  834YOPS   CNO12155  15.785  12.262   5.686 -0.1647  0.2966  0.1741
  834YOPS   PO412156  15.948  12.336   6.089  0.0871 -0.1329 -0.1109
  834YOPS   GL112157  16.127  12.133   6.403  0.0737  0.0675 -0.0174
  834YOPS   GL212158  16.105  11.696   6.290 -0.2466  0.0587 -0.3808
  834YOPS   C1A12159  16.182  12.054   6.869  0.0633 -0.0225  0.1069
  834YOPS   D2A12160  16.152  11.780   7.205  0.0603  0.1007  0.0351
  834YOPS   C3A12161  16.337  11.601   7.536 -0.0875 -0.0688 -0.0634
  834YOPS   C4A12162  16.090  11.171   7.739 -0.2020 -0.0134 -0.0659
  834YOPS   C1B12163  15.951  11.658   6.695  0.2823 -0.1442  0.0014
  834YOPS   C2B12164  15.617  11.438   6.964  0.2116  0.1966 -0.0814
  834YOPS   D3B12165  15.795  11.345   7.409  0.0714  0.0466 -0.2736
  834YOPS   C4B12166  15.634  11.545   7.808 -0.0292 -0.1448  0.2107
  835YOPS   CNO12167  14.177  14.917   6.223 -0.1142 -0.2796  0.1567
  835YOPS   PO412168  14.617  15.018   6.252  0.1441 -0.0256 -0.1855
  835YOPS   GL112169  14.502  14.763   6.644  0.2062 -0.2296 -0.1202
  835YOPS   GL212170  14.289  14.845   6.881 -0.1293 -0.1416 -0.0668
  835YOPS   C1A12171  14.834  14.544   7.015 -0.2295  0.1107  0.0185
  835YOPS   D2A12172  14.760  14.445   7.399  0.0777  0.0246 -0.0163
  835YOPS   C3A12173  14.852  14.472   7.808  0.0335 -0.1687  0.0040
  835YOPS   C4A12174  14.556  14.197   7.975  0.1529 -0.1291  0.2033
  835YOPS   C1B12175  14.365  14.855   7.364 -0.1092 -0.4567 -0.0745
  835YOPS   C2B12176  14.420  14.737   7.777  0.0555 -0.1280  0.1115
  835YOPS   D3B12177  14.581  14.703   8.121  0.0394  0.0244  0.1466
  835YOPS   C4B12178  14.789  14.431   8.329 -0.2026 -0.2169 -0.2288
  836YOPS   CNO12179   3.202   8.931   6.093 -0.1880  0.3177 -0.3547
  836YOPS   PO412180   2.855   9.274   6.076 -0.1023  0.0180  0.2228
  836YOPS   GL112181   2.891   9.560   6.407  0.1139 -0.1106  0.2389
  836YOPS   GL212182   2.596   9.569   6.445  0.2235  0.3715 -0.0422
  836YOPS   C1A12183   3.068   9.489   6.815  0.2774 -0.0448 -0.1527
  836YOPS   D2A12184   2.975   9.261   7.275  0.3411 -0.0878 -0.0420
  836YOPS   C3A12185   2.631   9.096   7.347 -0.0817 -0.0985 -0.1686
  836YOPS   C4A12186   2.570   8.977   6.965  0.2189  0.1742  0.2625
  836YOPS   C1B12187   2.424   9.530   6.802  0.0617  0.2488  0.2195
  836YOPS   C2B12188   2.440   9.543   7.233  0.1513  0.0736  0.5127
  836YOPS   D3B12189   2.466   9.404   7.692  0.2565  0.0209 -0.1052
  836YOPS   C4B12190   2.600   8.867   7.788 -0.0287 -0.1866  0.1109
  837YOPS   CNO12191   2.623  10.936   6.215 -0.2959 -0.0818  0.1305
  837YOPS   PO412192   2.744  11.362   6.312  0.1214  0.2663 -0.1423
  837YOPS   GL112193   2.539  11.655   6.582 -0.0445  0.1820  0.2956
  837YOPS   GL212194   2.291  11.562   6.792  0.2102 -0.0868 -0.1831
  837YOPS   C1A12195   2.593  11.864   7.014 -0.3508 -0.3065 -0.2977
  837YOPS   D2A12196   2.514  11.978   7.480  0.3519 -0.4472 -0.0724
  837YOPS   C3A12197   2.704  11.693   7.962  0.0428 -0.3513  0.0455
  837YOPS   C4A12198   3.159  11.676   8.096 -0.2842  0.3218  0.1645
  837YOPS   C1B12199   2.366  11.494   7.241  0.0073  0.0967  0.0457
  837YOPS   C2B12200   2.505  11.419   7.610  0.2030  0.0269  0.0892
  837YOPS   D3B12201   2.418  11.296   7.973 -0.0513 -0.2348  0.0865
  837YOPS   C4B12202   2.526  11.079   8.391 -0.0284  0.1365 -0.0529
  838YOPS   CNO12203  16.611   9.367   5.106 -0.1978  0.1782 -0.2958
  838YOPS   PO412204  16.490   9.056   5.448  0.1018  0.2024  0.1767
  838YOPS   GL112205  16.322   9.212   5.806  0.2241 -0.4067  0.3531
  838YOPS   GL212206  16.317   8.911   5.939  0.3274  0.2082 -0.0412
  838YOPS   C1A12207  16.248   9.331   6.277 -0.0619  0.1721 -0.0229
  838YOPS   D2A12208  15.950   9.457   6.639 -0.1571 -0.0123  0.1240
  838YOPS   C3A12209  16.004   9.659   7.016  0.0975 -0.0186  0.0544
  838YOPS   C4A12210  15.664   9.636   7.350  0.1707  0.2838  0.0524
  838YOPS   C1B12211  16.426   8.870   6.356 -0.0092 -0.2265 -0.1611
  838YOPS   C2B12212  16.485   8.881   6.762  0.0437  0.2250  0.0425
  838YOPS   D3B12213  16.485   8.978   7.202  0.0997 -0.0603  0.1556
  838YOPS   C4B12214  16.124   8.798   7.549  0.0205  0.0967 -0.1941
  839YOPS   CNO12215   9.942   4.483   5.384  0.1271 -0.2589  0.0006
  839YOPS   PO412216  10.100   4.543   5.863  0.1066 -0.4737  0.0534
  839YOPS   GL112217  10.394   4.460   6.164 -0.1741 -0.1368  0.1190
  839YOPS   GL212218  10.362   4.771   6.271 -0.0599 -0.0112  0.1173
  839YOPS   C1A12219  10.620   4.391   6.524  0.0592 -0.4608  0.0737
  839YOPS   D2A12220  10.580   4.591   6.931  0.0163  0.0701  0.0815
  839YOPS   C3A12221  10.449   4.663   7.376 -0.3165 -0.1414 -0.3491
  839YOPS   C4A12222  10.664   4.932   7.714  0.3722  0.3611 -0.1699
  839YOPS   C1B12223  10.389   5.043   6.609  0.1005 -0.0561  0.2427
  839YOPS   C2B12224  10.350   4.995   6.997  0.2705  0.2745 -0.0782
  839YOPS   D3B12225  10.155   5.070   7.420  0.3004 -0.0618 -0.1314
  839YOPS   C4B12226   9.724   5.119   7.372 -0.2799  0.0259 -0.0881
  840YOPS   CNO12227   3.816   3.310   6.205  0.1792  0.0939 -0.1322
  840YOPS   PO412228   3.689   2.908   6.450 -0.3757 -0.1555  0.0390
  840YOPS   GL112229   3.703   3.324   6.686  0.0413 -0.0818 -0.0426
  840YOPS   GL212230   3.981   3.555   6.711 -0.1270  0.2551 -0.1251
  840YOPS   C1A12231   3.636   3.501   7.119  0.2380  0.0505 -0.2630
  840YOPS   D2A12232   3.740   3.616   7.448  0.2641 -0.6434 -0.0656
  840YOPS   C3A12233   3.809   3.630   7.840 -0.0454 -0.0503 -0.1527
  840YOPS   C4A12234   3.532   3.616   8.135 -0.0456  0.0478 -0.2012
  840YOPS   C1B12235   4.141   3.667   7.111 -0.2029 -0.0234  0.0668
  840YOPS   C2B12236   4.177   3.819   7.483  0.0356 -0.1026 -0.0692
  840YOPS   D3B12237   4.306   4.198   7.680 -0.2360  0.0230 -0.0299
  840YOPS   C4B12238   4.178   4.404   8.072 -0.0919 -0.4770  0.0131
  841POPE   NH312239   9.145   4.081   5.975 -0.1212  0.0198  0.0964
  841POPE   PO412240   9.551   3.839   5.936  0.1051 -0.0831  0.2328
  841POPE   GL112241   9.528   3.781   6.371  0.0988  0.0626 -0.2571
  841POPE   GL212242   9.287   3.710   6.419  0.0851 -0.2165 -0.1337
  841POPE   C1A12243   9.638   3.687   6.829  0.0135  0.2265 -0.3511
  841POPE   D2A12244   9.648   3.641   7.239  0.1262  0.0389  0.1559
  841POPE   C3A12245   9.392   3.576   7.569 -0.2864 -0.3251  0.1446
  841POPE   C4A12246   9.106   3.494   8.008 -0.0620 -0.1230  0.1630
  841POPE   C1B12247   9.177   3.840   6.799  0.0349 -0.1862  0.0129
  841POPE   C2B12248   9.134   3.903   7.222 -0.2831 -0.3420  0.1643
  841POPE   C3B12249   9.051   4.199   7.486  0.0105 -0.1104 -0.2669
  841POPE   C4B12250   9.188   4.445   7.755 -0.4375 -0.0413  0.0550
  842POPE   NH312251   7.803  16.390   6.404 -0.1254 -0.0205  0.0471
  842POPE   PO412252   8.257  16.255   6.210 -0.2015 -0.1396 -0.1797
  842POPE   GL112253   8.106  15.976   6.594 -0.1993  0.0631  0.0736
  842POPE   GL212254   8.293  16.101   6.837 -0.0565  0.0277 -0.1834
  842POPE   C1A12255   7.925  15.765   6.943  0.2733 -0.0768  0.1620
  842POPE   D2A12256   7.655  15.887   7.282 -0.1667  0.2305 -0.1379
  842POPE   C3A12257   7.760  16.115   7.651  0.0537 -0.1012 -0.0005
  842POPE   C4A12258   7.757  16.114   8.067  0.3464 -0.2811  0.0000
  842POPE   C1B12259   8.170  16.111   7.257  0.0866  0.0254  0.3158
  842POPE   C2B12260   8.253  16.057   7.717 -0.0838  0.0331 -0.0323
  842POPE   C3B12261   8.295  15.742   7.966  0.0331  0.1571  0.0884
  842POPE   C4B12262   8.620  15.473   8.189  0.3373 -0.2335  0.0586
  843POPE   NH312263  17.663   0.769   6.871 -0.1110 -0.1121 -0.2594
  843POPE   PO412264  17.744   0.368   6.682 -0.0253 -0.0526  0.0621
  843POPE   GL112265  17.719   0.253   7.087 -0.0287 -0.3320  0.0086
  843POPE   GL212266  17.952   0.397   7.215 -0.1148 -0.2722 -0.1583
  843POPE   C1A12267  17.521   0.409   7.502 -0.0655 -0.2147 -0.2733
  843POPE   D2A12268  17.797   0.686   7.750 -0.0350  0.1129 -0.2428
  843POPE   C3A12269  17.587   0.876   8.262 -0.2022 -0.3639 -0.0357
  843POPE   C4A12270  17.572   0.659   8.591  0.0050  0.0534 -0.0779
  843POPE   C1B12271  18.004   0.260   7.605  0.0484 -0.0622 -0.0444
  843POPE   C2B12272  18.108   0.342   8.050  0.1225  0.1835 -0.1268
  843POPE   C3B12273  18.028   0.390   8.409  0.0688 -0.1437 -0.2272
  843POPE   C4B12274  18.319   0.448   8.818 -0.0138  0.2096  0.0919
  844POPE   NH312275   6.573  11.260   6.478 -0.0937  0.2213 -0.2275
  844POPE   PO412276   6.837  11.571   6.516  0.2299 -0.1736 -0.1739
  844POPE   GL112277   7.036  11.706   6.853  0.2546  0.0857 -0.1013
  844POPE   GL212278   7.367  11.551   6.748 -0.0436 -0.1055 -0.1904
  844POPE   C1A12279   7.171  11.721   7.298 -0.0847 -0.0390 -0.0615
  844POPE   D2A12280   7.204  11.734   7.740  0.0995 -0.0248 -0.1586
  844POPE   C3A12281   7.134  11.533   8.103  0.0460 -0.0841 -0.0016
  844POPE   C4A12282   6.803  11.258   8.321 -0.1824 -0.0766 -0.1407
  844POPE   C1B12283   7.445  11.313   7.062 -0.1076  0.3070  0.1707
  844POPE   C2B12284   7.576  11.346   7.444  0.0492  0.1340  0.2666
  844POPE   C3B12285   7.599  11.405   7.784  0.1408  0.0061 -0.1412
  844POPE   C4B12286   7.698  11.134   8.212  0.0261  0.1617  0.0704
  845POPE   NH312287  14.557   3.582   6.102  0.3870 -0.1760 -0.1179
  845POPE   PO412288  14.138   3.645   5.989 -0.2088 -0.0957  0.0572
  845POPE   GL112289  14.046   3.771   6.381  0.0952 -0.3796  0.0277
  845POPE   GL212290  13.995   4.097   6.544 -0.0312 -0.0901 -0.0534
  845POPE   C1A12291  14.219   3.711   6.747 -0.1756  0.2447 -0.1478
  845POPE   D2A12292  14.372   3.573   7.122  0.1258  0.0103  0.1127
  845POPE   C3A12293  14.165   3.519   7.644  0.1386  0.0952 -0.1300
  845POPE   C4A12294  14.227   3.246   8.044 -0.0295  0.0007 -0.0540
  845POPE   C1B12295  13.784   3.906   6.939  0.1045  0.0704 -0.1452
  845POPE   C2B12296  13.881   3.775   7.302 -0.0748  0.0662 -0.1502
  845POPE   C3B12297  13.805   3.730   7.809  0.2067 -0.0790 -0.2410
  845POPE   C4B12298  13.939   3.678   8.210  0.0576  0.0577 -0.0179
  846POPE   NH312299  12.742   6.663   5.954  0.0590 -0.2120  0.0888
  846POPE   PO412300  12.412   6.878   5.900  0.1083  0.0203  0.2371
  846POPE   GL112301  12.243   6.755   6.324  0.1576 -0.2434  0.0639
  846POPE   GL212302  12.013   6.473   6.273 -0.2952  0.2244  0.0712
  846POPE   C1A12303  12.284   6.700   6.607 -0.1472 -0.0168 -0.4474
  846POPE   D2A12304  12.289   6.726   7.003 -0.1288  0.1358 -0.0288
  846POPE   C3A12305  11.955   6.547   7.181  0.1410  0.3532  0.1141
  846POPE   C4A12306  11.748   6.328   7.570  0.0040 -0.0190 -0.1126
  846POPE   C1B12307  12.035   6.274   6.708 -0.0519 -0.1908 -0.2189
  846POPE   C2B12308  11.992   6.059   7.148  0.1223 -0.1007  0.1272
  846POPE   C3B12309  12.081   5.982   7.666 -0.2307  0.0371  0.1060
  846POPE   C4B12310  11.966   6.078   8.068  0.1989 -0.0200  0.1031
  847POPE   NH312311  10.135  11.318   5.958  0.0605 -0.1279  0.1309
  847POPE   PO412312  10.581  11.451   5.924  0.0117 -0.0477  0.2162
  847POPE   GL112313  10.576  11.339   6.321 -0.1191 -0.0852 -0.0153
  847POPE   GL212314  10.644  11.018   6.422 -0.0430  0.5563  0.3371
  847POPE   C1A12315  10.375  11.367   6.748  0.3658 -0.1367 -0.1012
  847POPE   D2A12316  10.430  11.129   7.094 -0.1333  0.2097  0.3566
  847POPE   C3A12317  10.404  11.166   7.569 -0.1060  0.4201  0.0296
  847POPE   C4A12318  10.410  11.175   8.041 -0.0985 -0.2675 -0.2230
  847POPE   C1B12319  10.242  10.917   6.562 -0.1585  0.1248  0.0404
  847POPE   C2B12320  10.046  10.901   6.903  0.0714  0.1527  0.3145
  847POPE   C3B12321   9.937  10.805   7.382  0.0795  0.1314 -0.0365
  847POPE   C4B12322   9.939  10.953   7.802 -0.1733 -0.1847 -0.0138
  848POPE   NH312323  11.118  16.329   6.300  0.1991  0.0681 -0.1173
  848POPE   PO412324  10.688  16.761   6.299 -0.0028 -0.0991 -0.1780
  848POPE   GL112325  10.615  16.943   6.716  0.1048  0.1091  0.0843
  848POPE   GL212326  10.632  16.700   6.786  0.1885  0.0937 -0.1854
  848POPE   C1A12327  10.603  17.110   7.131  0.2004 -0.1014 -0.2580
  848POPE   D2A12328  10.586  17.271   7.497  0.0599  0.1351  0.0773
  848POPE   C3A12329  10.135  17.259   7.746 -0.2156  0.2181  0.0777
  848POPE   C4A12330   9.792  17.467   8.101 -0.1371  0.1880  0.0011
  848POPE   C1B12331  10.573  16.529   7.146 -0.1452  0.1765  0.3037
  848POPE   C2B12332  10.559  16.420   7.596  0.1963 -0.1590  0.0343
  848POPE   C3B12333  10.313  16.294   7.978 -0.0927 -0.2291 -0.0352
  848POPE   C4B12334  10.209  16.044   8.388 -0.0011 -0.1729  0.4015
  849POPE   NH312335   1.060   1.339   6.337  0.1386  0.1477  0.0537
  849POPE   PO412336   0.982   1.002   6.618 -0.2408  0.1176 -0.1322
  849POPE   GL112337   0.931   0.876   7.028  0.0498  0.2296  0.2971
  849POPE   GL212338   0.720   0.553   7.044  0.0359 -0.0039  0.2639
  849POPE   C1A12339   0.935   1.061   7.409  0.1753 -0.0920 -0.3789
  849POPE   D2A12340   0.806   1.256   7.879  0.1903 -0.0244 -0.0867
  849POPE   C3A12341   0.883   1.055   8.271 -0.1724  0.0735  0.2026
  849POPE   C4A12342   0.835   0.920   8.729 -0.1659  0.0992 -0.0413
  849POPE   C1B12343   0.607   0.670   7.447  0.0508  0.0116 -0.2403
  849POPE   C2B12344   0.653   0.742   7.891  0.0821  0.0975 -0.1250
  849POPE   C3B12345   0.409   0.888   8.276 -0.1860  0.0870  0.2058
  849POPE   C4B12346   0.336   0.951   8.585  0.3425  0.3068 -0.0788
  850POPE   NH312347   1.432  14.193   6.440 -0.1872  0.0228  0.1159
  850POPE   PO412348   1.013  14.369   6.305  0.2178  0.2442 -0.2767
  850POPE   GL112349   0.971  14.326   6.730  0.0395 -0.0583 -0.1882
  850POPE   GL212350   0.776  14.092   6.723 -0.1593  0.2406  0.0845
  850POPE   C1A12351   0.924  14.318   7.221  0.1913 -0.1159 -0.1544
  850POPE   D2A12352   0.850  14.432   7.720 -0.1260  0.1191 -0.2151
  850POPE   C3A12353   1.089  14.270   8.051  0.0179 -0.0898  0.0600
  850POPE   C4A12354   1.368  14.437   8.366 -0.1654  0.1616  0.0641
  850POPE   C1B12355   0.940  13.832   7.161  0.0269  0.2650  0.0505
  850POPE   C2B12356   1.048  13.833   7.492 -0.3430  0.0630 -0.0195
  850POPE   C3B12357   0.995  13.790   7.976 -0.1352  0.3064  0.0963
  850POPE   C4B12358   0.771  14.029   8.363 -0.0548  0.0240  0.2450
  851POPE   NH312359   1.958  10.326   5.712 -0.0831  0.0039  0.2795
  851POPE   PO412360   2.269  10.407   5.938  0.3472 -0.2811  0.1094
  851POPE   GL112361   2.401  10.427   6.334  0.1653  0.0418 -0.1076
  851POPE   GL212362   2.223  10.312   6.531  0.0721 -0.1734 -0.1545
  851POPE   C1A12363   2.536  10.566   6.717 -0.0932  0.0091 -0.1095
  851POPE   D2A12364   2.864  10.463   6.998  0.1262 -0.0274  0.1247
  851POPE   C3A12365   2.709  10.302   7.309  0.0261 -0.0817  0.1619
  851POPE   C4A12366   2.862  10.422   7.659  0.1091  0.0145  0.0625
  851POPE   C1B12367   2.314  10.011   6.944  0.3377 -0.2329  0.0736
  851POPE   C2B12368   2.339   9.964   7.404  0.1911 -0.0387  0.0078
  851POPE   C3B12369   2.187   9.909   7.771  0.0059 -0.1471 -0.2371
  851POPE   C4B12370   2.240   9.541   8.147 -0.1830 -0.1720 -0.1850
  852POPE   NH312371  10.460   8.841   5.812 -0.1052 -0.0607  0.0118
  852POPE   PO412372  10.011   8.536   5.848  0.0965 -0.0849  0.0359
  852POPE   GL112373  10.140   8.482   6.280  0.0510 -0.0980  0.1012
  852POPE   GL212374  10.348   8.622   6.253 -0.0198 -0.0178 -0.1836
  852POPE   C1A12375  10.101   8.068   6.577  0.0822  0.2239  0.0607
  852POPE   D2A12376  10.309   7.788   6.832 -0.0105  0.1257 -0.1821
  852POPE   C3A12377  10.346   7.686   7.214 -0.0331 -0.2121  0.1334
  852POPE   C4A12378  10.293   7.552   7.615  0.0915  0.3333  0.0508
  852POPE   C1B12379  10.326   8.727   6.668 -0.1730 -0.0022  0.1087
  852POPE   C2B12380  10.139   8.710   7.157 -0.2222 -0.0704 -0.1390
  852POPE   C3B12381  10.256   8.483   7.466  0.3517  0.1450 -0.0136
  852POPE   C4B12382  10.332   8.385   7.892  0.0672  0.0960  0.2122
  853POPE   NH312383  13.906   7.586   6.194  0.0401 -0.3747  0.1645
  853POPE   PO412384  14.170   7.235   6.284  0.1046  0.0128  0.1982
  853POPE   GL112385  14.000   7.325   6.638  0.0632  0.0602 -0.1469
  853POPE   GL212386  13.748   7.384   6.606  0.0382 -0.2182  0.0891
  853POPE   C1A12387  14.120   7.423   7.077 -0.1237 -0.2724 -0.1907
  853POPE   D2A12388  14.023   7.585   7.494 -0.0265 -0.0908 -0.1573
  853POPE   C3A12389  14.405   7.514   7.774 -0.2293  0.1353  0.1319
  853POPE   C4A12390  14.744   7.444   8.097  0.1341  0.0793  0.1124
  853POPE   C1B12391  13.623   7.536   6.914 -0.0285  0.0514 -0.1843
  853POPE   C2B12392  13.584   7.350   7.353  0.0131 -0.1483  0.4924
  853POPE   C3B12393  13.631   7.338   7.727  0.2601  0.0600  0.1970
  853POPE   C4B12394  13.679   6.995   8.029  0.0229 -0.0838  0.2213
  854POPE   NH312395   9.079  12.987   6.280  0.0258  0.1915 -0.1078
  854POPE   PO412396   9.115  13.448   6.295  0.1168 -0.1220 -0.0149
  854POPE   GL112397   8.933  13.705   6.579 -0.3728 -0.0933 -0.1981
  854POPE   GL212398   8.658  13.876   6.419 -0.0354  0.0021  0.1767
  854POPE   C1A12399   8.551  13.624   6.853  0.1231  0.1843  0.1548
  854POPE   D2A12400   8.381  13.523   7.171 -0.0371  0.0017 -0.3300
  854POPE   C3A12401   8.616  13.538   7.645 -0.2360  0.1528  0.1270
  854POPE   C4A12402   8.506  13.496   8.032 -0.1790  0.2182  0.1064
  854POPE   C1B12403   8.636  14.148   6.837  0.1326  0.2802 -0.0664
  854POPE   C2B12404   8.964  14.304   7.013  0.0381  0.1962 -0.0090
  854POPE   C3B12405   9.048  14.335   7.418  0.0850 -0.0594 -0.0087
  854POPE   C4B12406   9.307  14.208   7.686 -0.2588  0.0041 -0.1101
  855POPE   NH312407   8.417  12.623   6.225  0.2021  0.1915 -0.1191
  855POPE   PO412408   8.647  12.938   6.068 -0.2121  0.0975  0.2755
  855POPE   GL112409   8.651  12.926   6.560 -0.2045 -0.2474  0.0466
  855POPE   GL212410   8.485  12.651   6.731  0.0760 -0.3204  0.0653
  855POPE   C1A12411   8.509  13.146   6.944 -0.1414  0.1707  0.0622
  855POPE   D2A12412   8.633  13.141   7.382 -0.1394 -0.3068  0.0388
  855POPE   C3A12413   9.135  13.277   7.609  0.3503 -0.3817  0.0425
  855POPE   C4A12414   9.495  13.193   7.416  0.1482 -0.0295  0.1530
  855POPE   C1B12415   8.675  12.617   7.084  0.0193  0.1386 -0.0227
  855POPE   C2B12416   8.693  12.589   7.612  0.1587  0.3282  0.1350
  855POPE   C3B12417   8.733  13.031   7.870  0.2381  0.2359  0.5089
  855POPE   C4B12418   9.000  13.237   8.157 -0.0611  0.1383  0.4566
  856POPE   NH312419   2.917   7.659   5.709 -0.0291  0.1398 -0.2178
  856POPE   PO412420   2.735   7.339   6.069  0.1903 -0.0120 -0.1098
  856POPE   GL112421   2.560   7.024   6.342 -0.0139 -0.1475 -0.0532
  856POPE   GL212422   2.930   6.976   6.397  0.2088  0.1462 -0.3596
  856POPE   C1A12423   2.493   6.857   6.763  0.2857 -0.2720  0.2119
  856POPE   D2A12424   2.484   6.731   7.258 -0.1252 -0.2484 -0.0313
  856POPE   C3A12425   2.131   6.687   7.536 -0.0951 -0.1612 -0.1571
  856POPE   C4A12426   1.925   6.914   7.939  0.1335 -0.1610  0.2515
  856POPE   C1B12427   3.031   7.105   6.788 -0.1852 -0.0588  0.3329
  856POPE   C2B12428   3.118   7.450   7.006  0.0563  0.3387 -0.0352
  856POPE   C3B12429   3.311   7.823   7.150 -0.0142  0.3424 -0.4056
  856POPE   C4B12430   3.413   8.064   7.556 -0.0426  0.1946  0.1105
  857POPE   NH312431  13.960   5.305   5.780  0.1121  0.1720 -0.0620
  857POPE   PO412432  14.155   5.808   5.641 -0.0333 -0.0745 -0.0212
  857POPE   GL112433  13.993   5.755   6.045  0.0267 -0.1558  0.2284
  857POPE   GL212434  14.062   5.697   6.287  0.0899  0.0325  0.1570
  857POPE   C1A12435  13.677   6.012   6.311 -0.2027  0.1697  0.0021
  857POPE   D2A12436  13.355   6.235   6.364  0.0605  0.0217 -0.0353
  857POPE   C3A12437  13.100   6.221   6.751 -0.1172  0.3085  0.1642
  857POPE   C4A12438  13.031   6.208   7.131  0.0085 -0.0381 -0.2772
  857POPE   C1B12439  14.112   5.975   6.636  0.1437 -0.2301 -0.0885
  857POPE   C2B12440  14.103   5.841   7.095 -0.0025 -0.1264  0.0085
  857POPE   C3B12441  13.971   5.962   7.501 -0.0067 -0.0988 -0.3122
  857POPE   C4B12442  13.753   6.061   7.889 -0.1091 -0.2797 -0.2631
  858POPE   NH312443  10.463  10.167   5.863 -0.1339 -0.0061  0.1649
  858POPE   PO412444  10.028  10.013   6.097  0.0979  0.0098 -0.0291
  858POPE   GL112445  10.022   9.793   6.526 -0.2059 -0.1832 -0.0393
  858POPE   GL212446  10.292   9.732   6.727 -0.2332  0.0877 -0.0117
  858POPE   C1A12447   9.827   9.553   6.909 -0.0227  0.2339  0.1440
  858POPE   D2A12448   9.858   9.390   7.266 -0.1723 -0.2888  0.0195
  858POPE   C3A12449  10.120   9.230   7.464  0.0973 -0.0064 -0.1793
  858POPE   C4A12450  10.311   9.319   7.871 -0.0221 -0.0678  0.0349
  858POPE   C1B12451  10.265   9.661   7.133 -0.1970 -0.0238  0.1541
  858POPE   C2B12452  10.285   9.738   7.580  0.4301  0.0740  0.1703
  858POPE   C3B12453  10.111   9.983   7.948 -0.1679 -0.0384  0.0432
  858POPE   C4B12454   9.937  10.409   7.948 -0.5910 -0.0318  0.2939
  859POPE   NH312455   5.792   2.001   6.352 -0.1292  0.0424  0.0512
  859POPE   PO412456   5.650   1.554   6.376 -0.2317 -0.1488  0.3484
  859POPE   GL112457   5.827   1.499   6.746 -0.1784 -0.1640 -0.0949
  859POPE   GL212458   6.149   1.516   6.779 -0.2938  0.3461 -0.2066
  859POPE   C1A12459   5.745   1.666   7.184  0.1517 -0.0177  0.1772
  859POPE   D2A12460   5.565   2.048   7.329 -0.0258 -0.1707  0.0985
  859POPE   C3A12461   5.367   2.068   7.612 -0.0993 -0.0199  0.2020
  859POPE   C4A12462   5.396   1.931   7.983 -0.1496 -0.1514 -0.2090
  859POPE   C1B12463   6.229   1.656   7.064  0.3291  0.3468 -0.0585
  859POPE   C2B12464   6.423   1.650   7.492  0.0343  0.0005 -0.4598
  859POPE   C3B12465   6.421   1.818   7.871 -0.1049 -0.0592 -0.3318
  859POPE   C4B12466   6.507   2.037   8.187  0.1294 -0.0275  0.1430
  860POPE   NH312467  10.545  12.155   6.203  0.0440 -0.0312  0.0729
  860POPE   PO412468  10.344  12.545   6.338 -0.1874  0.0542  0.2681
  860POPE   GL112469  10.370  12.369   6.706 -0.3595  0.0354 -0.1437
  860POPE   GL212470  10.258  12.088   6.677  0.2660  0.0378  0.0598
  860POPE   C1A12471  10.526  12.242   7.136  0.3394 -0.2919 -0.2607
  860POPE   D2A12472  10.754  12.018   7.477  0.1503 -0.3063  0.1812
  860POPE   C3A12473  10.662  12.048   7.853  0.0493  0.2313 -0.3441
  860POPE   C4A12474  10.644  12.146   8.235 -0.1235  0.0017 -0.1396
  860POPE   C1B12475  10.292  11.794   7.057  0.1622  0.1066  0.0868
  860POPE   C2B12476  10.390  11.679   7.468 -0.3952 -0.0739 -0.1531
  860POPE   C3B12477  10.700  11.602   7.757 -0.3079  0.0022 -0.1082
  860POPE   C4B12478  10.888  11.591   8.092  0.0997 -0.2349 -0.1147
  861POPE   NH312479   7.934  14.037   6.061 -0.2036  0.0589  0.2469
  861POPE   PO412480   8.058  13.591   6.263  0.0071 -0.0793  0.1121
  861POPE   GL112481   8.036  13.826   6.615 -0.0665 -0.1200  0.1895
  861POPE   GL212482   7.942  14.161   6.563  0.1095 -0.0543 -0.1284
  861POPE   C1A12483   8.183  13.942   7.006  0.1794  0.0979 -0.1187
  861POPE   D2A12484   8.249  13.828   7.485 -0.1046 -0.1954  0.0592
  861POPE   C3A12485   8.051  14.032   7.841  0.3921  0.0501 -0.0698
  861POPE   C4A12486   7.984  14.139   8.164  0.1853  0.1665  0.2404
  861POPE   C1B12487   8.130  14.406   6.905  0.2856  0.2450  0.0511
  861POPE   C2B12488   8.332  14.339   7.220  0.0801 -0.2278 -0.1986
  861POPE   C3B12489   8.199  14.490   7.650  0.3404 -0.1691 -0.1061
  861POPE   C4B12490   8.359  14.475   8.104  0.0034 -0.3388  0.2297
  862POPE   NH312491   1.331  11.267   6.316  0.0287 -0.0965  0.1343
  862POPE   PO412492   1.215  11.631   6.124 -0.0199  0.0650 -0.0535
  862POPE   GL112493   1.602  11.717   6.277  0.1211  0.2081  0.1412
  862POPE   GL212494   1.733  11.570   6.537  0.1403 -0.0550  0.0451
  862POPE   C1A12495   1.686  12.101   6.607  0.0724  0.1308 -0.0528
  862POPE   D2A12496   1.733  12.475   6.879 -0.0430  0.0304  0.1510
  862POPE   C3A12497   1.697  12.491   7.328  0.0370 -0.3130 -0.2541
  862POPE   C4A12498   1.666  12.324   7.685 -0.1651 -0.0375  0.0430
  862POPE   C1B12499   1.824  11.620   6.854  0.4658 -0.1468 -0.0542
  862POPE   C2B12500   1.859  11.593   7.353 -0.1907 -0.0244  0.0977
  862POPE   C3B12501   1.956  11.398   7.708  0.1302 -0.0311 -0.0488
  862POPE   C4B12502   1.953  11.212   8.121 -0.1921  0.2946 -0.1423
  863POPE   NH312503   1.451  10.401   6.313  0.1499 -0.1039 -0.3258
  863POPE   PO412504   1.011  10.407   6.282  0.0930 -0.1216  0.3273
  863POPE   GL112505   0.922  10.300   6.605  0.1133 -0.0719 -0.1915
  863POPE   GL212506   1.169  10.071   6.600 -0.3932 -0.0263  0.2036
  863POPE   C1A12507   0.859  10.066   7.003 -0.1744 -0.4665 -0.1129
  863POPE   D2A12508   0.508  10.092   7.237 -0.2969 -0.0720 -0.0513
  863POPE   C3A12509   0.650  10.027   7.639 -0.0667 -0.3473  0.0169
  863POPE   C4A12510   0.560   9.725   7.920  0.0023 -0.0507 -0.0645
  863POPE   C1B12511   1.426   9.934   6.998 -0.0277 -0.2364 -0.1750
  863POPE   C2B12512   1.517   9.736   7.458  0.0793  0.3828 -0.2521
  863POPE   C3B12513   1.729   9.841   7.810  0.0413 -0.0529 -0.0155
  863POPE   C4B12514   1.797   9.826   8.148  0.4289 -0.0078  0.0703
  864POPE   NH312515   6.693   0.065   6.387 -0.1175  0.1581 -0.0791
  864POPE   PO412516   6.632   0.478   6.400 -0.1959 -0.2449 -0.0716
  864POPE   GL112517   6.625   0.414   6.862 -0.0986  0.2918  0.1048
  864POPE   GL212518   6.359   0.594   6.907  0.3633 -0.1626 -0.1842
  864POPE   C1A12519   6.560   0.240   7.200  0.2313  0.3476  0.0269
  864POPE   D2A12520   6.436   0.221   7.644  0.1066  0.2901  0.0489
  864POPE   C3A12521   6.414  -0.067   7.833  0.3707  0.0327  0.1293
  864POPE   C4A12522   6.176  -0.360   8.025 -0.0810 -0.2493  0.1678
  864POPE   C1B12523   6.408   0.748   7.263  0.0929 -0.1316  0.3956
  864POPE   C2B12524   6.397   0.721   7.657 -0.2001  0.0878 -0.1127
  864POPE   C3B12525   6.111   0.751   7.975 -0.1409 -0.1106 -0.1668
  864POPE   C4B12526   5.873   0.950   8.256  0.0513  0.0300 -0.0094
  865POPE   NH312527   5.173   2.447   6.652 -0.0452 -0.1630 -0.0614
  865POPE   PO412528   5.003   2.039   6.878 -0.1559 -0.0022  0.2098
  865POPE   GL112529   5.040   1.836   7.186 -0.2640 -0.1056  0.1723
  865POPE   GL212530   4.734   1.844   7.416  0.1674  0.1912  0.1880
  865POPE   C1A12531   5.160   1.642   7.559  0.2522 -0.2587  0.1476
  865POPE   D2A12532   5.169   1.453   7.929  0.0437  0.1338 -0.1629
  865POPE   C3A12533   4.966   1.174   8.134 -0.2074 -0.1867  0.0450
  865POPE   C4A12534   4.640   1.152   8.348  0.1463  0.2239 -0.1072
  865POPE   C1B12535   4.800   1.829   7.856 -0.0452 -0.3217 -0.0817
  865POPE   C2B12536   4.662   1.754   8.335  0.1439  0.0004  0.0179
  865POPE   C3B12537   4.829   1.487   8.684  0.2283  0.1293 -0.0098
  865POPE   C4B12538   5.023   1.068   8.695 -0.2882  0.1574  0.0999
  866POPE   NH312539  16.612   6.193   5.873  0.0692  0.2749 -0.2246
  866POPE   PO412540  16.551   5.719   5.677 -0.0423  0.0556  0.2453
  866POPE   GL112541  16.622   5.705   6.183  0.2280 -0.0140  0.1374
  866POPE   GL212542  16.401   5.690   6.354  0.0034 -0.0377 -0.3358
  866POPE   C1A12543  16.918   5.627   6.551 -0.0692  0.0567 -0.2334
  866POPE   D2A12544  17.116   5.622   6.859 -0.0490 -0.2734 -0.1174
  866POPE   C3A12545  16.890   5.580   7.208 -0.2082  0.1485  0.0421
  866POPE   C4A12546  16.755   5.665   7.505 -0.1287 -0.1694 -0.2403
  866POPE   C1B12547  16.379   5.802   6.718  0.0238  0.0412 -0.1846
  866POPE   C2B12548  16.435   5.883   7.154 -0.0892  0.1264  0.3662
  866POPE   C3B12549  16.534   6.133   7.589  0.0508  0.1161 -0.0309
  866POPE   C4B12550  16.639   6.345   8.001 -0.1745  0.0585 -0.1540
  867POPE   NH312551   9.976   3.603   6.113  0.0928  0.0660  0.0727
  867POPE   PO412552  10.010   3.163   5.965  0.2185  0.0049 -0.2243
  867POPE   GL112553  10.027   3.040   6.363 -0.0510  0.1466 -0.0711
  867POPE   GL212554   9.873   3.326   6.480 -0.1392  0.0684  0.0787
  867POPE   C1A12555   9.717   2.794   6.612  0.2379  0.2900 -0.2265
  867POPE   D2A12556   9.418   2.782   6.823  0.3653 -0.1993 -0.0266
  867POPE   C3A12557   9.410   2.628   7.234 -0.0699  0.2488  0.0291
  867POPE   C4A12558   9.165   2.523   7.602  0.1360  0.0516 -0.2954
  867POPE   C1B12559   9.713   3.225   6.877  0.3834 -0.1797 -0.2159
  867POPE   C2B12560   9.481   3.150   7.288  0.2006  0.2656 -0.1763
  867POPE   C3B12561   9.253   3.072   7.652  0.1146 -0.0620  0.2227
  867POPE   C4B12562   9.095   2.915   8.043  0.0430  0.0812 -0.1704
  868POPE   NH312563   7.527   8.012   6.173 -0.2592 -0.0856  0.1280
  868POPE   PO412564   7.323   8.323   6.028  0.1373  0.0201  0.0232
  868POPE   GL112565   7.513   8.423   6.429 -0.1228  0.0825  0.0829
  868POPE   GL212566   7.304   8.291   6.580  0.3998  0.1929  0.4866
  868POPE   C1A12567   7.703   8.439   6.825  0.0394  0.0808  0.0351
  868POPE   D2A12568   8.019   8.247   7.154 -0.0087 -0.0301 -0.1267
  868POPE   C3A12569   7.996   8.390   7.613 -0.0933  0.0289  0.1117
  868POPE   C4A12570   7.989   8.733   7.980  0.1059  0.0846 -0.2286
  868POPE   C1B12571   7.255   8.281   7.046 -0.0574 -0.0448  0.3183
  868POPE   C2B12572   7.110   8.190   7.467  0.0519  0.0949 -0.0424
  868POPE   C3B12573   6.921   8.131   7.868 -0.4116  0.1936  0.0276
  868POPE   C4B12574   6.888   8.115   8.289 -0.4031 -0.0110 -0.2032
  869POPE   NH312575  16.996  15.850   6.699 -0.0555 -0.3034  0.1188
  869POPE   PO412576  17.451  15.999   6.707  0.1772  0.0249  0.1196
  869POPE   GL112577  17.394  15.841   7.146  0.2042 -0.3185  0.0114
  869POPE   GL212578  17.490  15.552   7.046  0.0603  0.1504  0.2099
  869POPE   C1A12579  17.321  15.773   7.569 -0.0058 -0.0159  0.0090
  869POPE   D2A12580  17.308  15.820   8.024  0.3358  0.0085 -0.2943
  869POPE   C3A12581  17.465  15.862   8.443  0.2700 -0.0350 -0.0893
  869POPE   C4A12582  17.754  15.820   8.790 -0.0476  0.1909  0.0149
  869POPE   C1B12583  17.648  15.378   7.449  0.2526  0.1558  0.3002
  869POPE   C2B12584  17.834  15.172   7.618 -0.4213 -0.0091 -0.1525
  869POPE   C3B12585  17.930  15.130   8.035 -0.0835  0.1762  0.3382
  869POPE   C4B12586  18.072  14.905   8.387  0.3221  0.2144  0.1678
  870POPE   NH312587   9.528   5.717   5.549  0.0862 -0.0674 -0.2506
  870POPE   PO412588   9.647   6.095   5.701 -0.2958  0.2483  0.0709
  870POPE   GL112589   9.628   6.049   6.145 -0.0861 -0.2072  0.1123
  870POPE   GL212590   9.942   5.860   6.222 -0.2260  0.1343 -0.1329
  870POPE   C1A12591   9.502   6.273   6.555 -0.1716  0.1680  0.0062
  870POPE   D2A12592   9.440   6.416   6.939 -0.1487 -0.2624 -0.0845
  870POPE   C3A12593   9.328   6.334   7.328  0.2974  0.0591  0.1693
  870POPE   C4A12594   9.272   6.139   7.792  0.3561 -0.0863  0.4464
  870POPE   C1B12595  10.069   5.920   6.618  0.1841  0.0467  0.2582
  870POPE   C2B12596  10.101   6.008   7.035  0.0146 -0.0881  0.1230
  870POPE   C3B12597  10.283   6.143   7.441 -0.0143 -0.0657  0.0354
  870POPE   C4B12598  10.461   6.229   7.843 -0.0514 -0.1292 -0.1979
  871YOPE   NH312599   6.887   5.371   6.216 -0.4479 -0.0158  0.0113
  871YOPE   PO412600   6.753   5.736   6.441  0.0109  0.0657 -0.0441
  871YOPE   GL112601   6.565   5.550   6.798 -0.0017  0.0898 -0.0307
  871YOPE   GL212602   6.264   5.578   6.712  0.3149  0.0993  0.1064
  871YOPE   C1A12603   6.460   5.262   7.122  0.0526 -0.1678  0.1204
  871YOPE   D2A12604   6.702   5.021   7.433  0.2465 -0.1402 -0.2242
  871YOPE   C3A12605   6.767   4.989   7.906  0.0596  0.0368  0.0567
  871YOPE   C4A12606   7.135   5.107   8.272  0.0603 -0.5951  0.0870
  871YOPE   C1B12607   6.137   5.645   7.060  0.0523 -0.0526  0.0578
  871YOPE   C2B12608   6.134   5.678   7.547  0.0203  0.0755  0.1603
  871YOPE   D3B12609   6.074   5.528   7.913  0.0442 -0.0447 -0.2880
  871YOPE   C4B12610   5.808   5.433   8.293 -0.1481  0.1805  0.0377
  872YOPE   NH312611   5.938   1.188   6.309  0.0293 -0.2624  0.0648
  872YOPE   PO412612   5.797   0.748   6.350  0.1215  0.3746 -0.0866
  872YOPE   GL112613   5.626   0.623   6.686  0.0476  0.1433  0.4172
  872YOPE   GL212614   5.753   0.323   6.776 -0.1516 -0.0218 -0.0145
  872YOPE   C1A12615   5.452   0.832   7.058 -0.0754  0.0590  0.3510
  872YOPE   D2A12616   5.466   0.931   7.463  0.1138  0.0642  0.1781
  872YOPE   C3A12617   4.969   1.147   7.575  0.1262 -0.0265 -0.0040
  872YOPE   C4A12618   4.701   1.294   7.755  0.1072 -0.2149 -0.1546
  872YOPE   C1B12619   5.910   0.492   7.107  0.2171 -0.0478  0.0138
  872YOPE   C2B12620   5.866   0.665   7.565  0.2818  0.1590  0.0812
  872YOPE   D3B12621   5.614   0.589   7.999  0.0455  0.0613  0.2166
  872YOPE   C4B12622   5.211   0.606   8.162 -0.2165 -0.0881  0.1271
  873YOPE   NH312623   8.645  12.189   6.608  0.1809  0.4120 -0.0083
  873YOPE   PO412624   8.726  11.786   6.446 -0.1301 -0.2106 -0.3027
  873YOPE   GL112625   8.829  11.591   6.868 -0.1849 -0.2391  0.1560
  873YOPE   GL212626   9.056  11.612   6.891 -0.1995  0.1102  0.2170
  873YOPE   C1A12627   8.877  11.689   7.368 -0.2378  0.0277 -0.3677
  873YOPE   D2A12628   9.178  11.834   7.636  0.3085  0.4487 -0.0351
  873YOPE   C3A12629   9.324  11.637   8.000  0.1240 -0.0007 -0.1426
  873YOPE   C4A12630   9.468  11.288   8.104 -0.1693  0.1125  0.0182
  873YOPE   C1B12631   8.942  11.233   7.245 -0.1610  0.1138 -0.0579
  873YOPE   C2B12632   9.129  11.219   7.669  0.0398  0.0063 -0.0246
  873YOPE   D3B12633   9.086  10.941   8.111  0.0135  0.0715 -0.1390
  873YOPE   C4B12634   8.770  10.663   8.269  0.0490  0.0965 -0.1361
  874YOPE   NH312635  12.535  11.173   6.032 -0.1565 -0.0031  0.2165
  874YOPE   PO412636  12.763  10.711   5.996  0.2350  0.1846 -0.3641
  874YOPE   GL112637  12.989  10.521   6.266  0.0903  0.0226  0.0064
  874YOPE   GL212638  12.737  10.248   6.355 -0.0308  0.1729 -0.1374
  874YOPE   C1A12639  13.098  10.457   6.649 -0.0353  0.2075 -0.3942
  874YOPE   D2A12640  13.369  10.446   6.963 -0.0807  0.2391 -0.2198
  874YOPE   C3A12641  13.299  10.433   7.429 -0.1517 -0.1676  0.2228
  874YOPE   C4A12642  13.474  10.182   7.564 -0.2940  0.2357  0.2344
  874YOPE   C1B12643  12.600  10.427   6.740  0.2888 -0.1280 -0.2029
  874YOPE   C2B12644  12.855  10.430   7.099  0.0491 -0.1111 -0.2668
  874YOPE   D3B12645  12.720  10.510   7.560 -0.2768  0.2257 -0.1590
  874YOPE   C4B12646  12.764  10.708   7.868 -0.1199 -0.2824 -0.0274
  875YOPE   NH312647  11.953   1.428   6.316  0.3022 -0.3003 -0.2841
  875YOPE   PO412648  11.571   1.267   6.150  0.3712  0.1027 -0.0313
  875YOPE   GL112649  11.545   1.277   6.665  0.1326  0.3643 -0.1446
  875YOPE   GL212650  11.571   1.024   6.805  0.0264 -0.2870  0.1469
  875YOPE   C1A12651  11.567   1.559   7.050  0.0447  0.1948  0.0444
  875YOPE   D2A12652  11.528   1.584   7.475 -0.0774  0.3324 -0.0398
  875YOPE   C3A12653  11.482   1.821   7.902 -0.1385  0.0484  0.3568
  875YOPE   C4A12654  11.399   1.939   8.349 -0.0587 -0.0536  0.0201
  875YOPE   C1B12655  11.666   1.084   7.183  0.2185 -0.0941 -0.1831
  875YOPE   C2B12656  11.752   1.083   7.607 -0.0275  0.2338  0.4006
  875YOPE   D3B12657  11.944   0.812   7.833  0.0718 -0.1621 -0.0630
  875YOPE   C4B12658  12.283   0.888   8.095 -0.1589  0.2206  0.0013
  876YOPE   NH312659  11.989  16.535   6.312 -0.0789  0.2327 -0.2893
  876YOPE   PO412660  12.060  16.126   6.457  0.0745 -0.0325 -0.1677
  876YOPE   GL112661  12.438  16.349   6.595 -0.0050 -0.1896  0.0659
  876YOPE   GL212662  12.291  16.480   6.792  0.0785 -0.0096 -0.0640
  876YOPE   C1A12663  12.901  16.557   6.749  0.4539 -0.1541  0.1978
  876YOPE   D2A12664  13.094  16.629   7.096  0.2491 -0.0717  0.2991
  876YOPE   C3A12665  13.092  16.979   7.184 -0.2554 -0.1592  0.0946
  876YOPE   C4A12666  13.068  17.256   7.499  0.2852 -0.2289  0.1953
  876YOPE   C1B12667  12.578  16.630   7.154 -0.0693  0.3535  0.1993
  876YOPE   C2B12668  12.786  16.686   7.462 -0.1392 -0.0379 -0.4099
  876YOPE   D3B12669  12.982  16.664   7.782  0.2079  0.0591 -0.2103
  876YOPE   C4B12670  13.144  16.712   8.282 -0.1636  0.2409  0.1189
  877YOPE   NH312671   9.544   8.334   5.716 -0.6582 -0.2630  0.3312
  877YOPE   PO412672   9.398   8.240   6.102  0.2214  0.2271 -0.2341
  877YOPE   GL112673   9.179   8.355   6.505 -0.1265  0.1609 -0.0015
  877YOPE   GL212674   9.468   8.494   6.597 -0.0236  0.1041 -0.1176
  877YOPE   C1A12675   9.078   8.365   6.812 -0.0583  0.1764 -0.1343
  877YOPE   D2A12676   9.032   8.339   7.222  0.0334 -0.3634 -0.1172
  877YOPE   C3A12677   8.894   8.419   7.601 -0.0101  0.2365 -0.0271
  877YOPE   C4A12678   8.857   8.315   8.030  0.0552  0.0929  0.1632
  877YOPE   C1B12679   9.491   8.529   7.051  0.1802 -0.0289 -0.0998
  877YOPE   C2B12680   9.698   8.432   7.449  0.0285  0.2004  0.0305
  877YOPE   D3B12681   9.856   8.309   7.823 -0.1528  0.1727  0.0171
  877YOPE   C4B12682   9.896   8.161   8.336  0.1119 -0.1035  0.2357
  878YOPE   NH312683   0.179   5.295   5.933  0.4339  0.2814  0.2588
  878YOPE   PO412684   0.578   5.456   5.731 -0.1686  0.0767  0.2730
  878YOPE   GL112685   0.367   5.733   5.988 -0.0349 -0.2964  0.3387
  878YOPE   GL212686   0.074   5.814   6.042  0.4849 -0.2184 -0.4966
  878YOPE   C1A12687   0.534   6.122   6.270 -0.0206 -0.1333 -0.0036
  878YOPE   D2A12688   0.749   6.327   6.616 -0.0464 -0.0559 -0.2151
  878YOPE   C3A12689   1.141   6.323   6.701  0.1215 -0.2499  0.0172
  878YOPE   C4A12690   1.465   6.531   6.959 -0.1166  0.0630 -0.0249
  878YOPE   C1B12691   0.083   5.962   6.447 -0.1623 -0.0779 -0.2431
  878YOPE   C2B12692   0.156   6.419   6.751 -0.1017  0.0238 -0.1747
  878YOPE   D3B12693   0.467   6.551   6.967  0.3249 -0.1815 -0.0053
  878YOPE   C4B12694   0.540   6.742   7.381  0.1149 -0.0095  0.0977
  879YOPE   NH312695  12.896  10.275   5.824 -0.2624 -0.5423  0.0206
  879YOPE   PO412696  13.284  10.038   5.976 -0.1638  0.3142  0.1018
  879YOPE   GL112697  13.454  10.426   6.116 -0.0298  0.1579  0.1339
  879YOPE   GL212698  13.731  10.509   6.050 -0.1214  0.4673  0.2280
  879YOPE   C1A12699  13.388  10.801   6.476 -0.0486 -0.3185 -0.1820
  879YOPE   D2A12700  13.357  10.989   6.880  0.0355  0.3214  0.0859
  879YOPE   C3A12701  13.459  10.887   7.265 -0.2886 -0.0241  0.1385
  879YOPE   C4A12702  13.661  10.786   7.647  0.0991 -0.3195  0.0657
  879YOPE   C1B12703  13.696  10.335   6.513  0.0584  0.0543  0.5001
  879YOPE   C2B12704  13.789  10.102   6.837 -0.0564 -0.0148  0.1704
  879YOPE   D3B12705  13.721   9.944   7.157  0.0211 -0.1275  0.2950
  879YOPE   C4B12706  13.726   9.735   7.586 -0.0837  0.2900  0.0438
  880YOPE   NH312707   5.139   9.503   6.305  0.1105  0.5080 -0.2362
  880YOPE   PO412708   5.009   9.136   6.306  0.0404 -0.0588 -0.0560
  880YOPE   GL112709   4.793   9.234   6.713  0.1462  0.2196 -0.0171
  880YOPE   GL212710   4.506   9.039   6.707 -0.2597 -0.0173 -0.2635
  880YOPE   C1A12711   4.695   9.218   7.165  0.0403 -0.4169 -0.1191
  880YOPE   D2A12712   4.601   9.290   7.636 -0.0584  0.3125  0.0032
  880YOPE   C3A12713   4.586   9.654   7.982 -0.3122 -0.0191  0.0564
  880YOPE   C4A12714   4.709   9.768   8.371  0.0285  0.1544 -0.0921
  880YOPE   C1B12715   4.421   8.840   7.074 -0.2349  0.0922  0.0428
  880YOPE   C2B12716   4.484   8.826   7.475 -0.3417 -0.1443 -0.0202
  880YOPE   D3B12717   4.685   8.899   7.925  0.1888  0.2152  0.1257
  880YOPE   C4B12718   4.663   8.751   8.279 -0.1835  0.1871  0.0651
  881YOPE   NH312719   5.659  14.312   5.758 -0.0731 -0.3255  0.3372
  881YOPE   PO412720   5.669  14.272   6.195  0.3740  0.3401 -0.1944
  881YOPE   GL112721   5.575  14.489   6.646 -0.0084 -0.0618  0.0186
  881YOPE   GL212722   5.746  14.789   6.573 -0.0613 -0.0559 -0.3310
  881YOPE   C1A12723   5.684  14.237   7.076  0.0012  0.0418 -0.0173
  881YOPE   D2A12724   5.804  14.222   7.521 -0.2789  0.1677  0.0596
  881YOPE   C3A12725   6.105  14.117   7.876 -0.4668 -0.0023 -0.0844
  881YOPE   C4A12726   6.250  13.747   8.174  0.1332  0.0613  0.0020
  881YOPE   C1B12727   5.937  14.670   6.919  0.1871 -0.0971 -0.3121
  881YOPE   C2B12728   6.072  14.838   7.339 -0.2806 -0.0721 -0.0195
  881YOPE   D3B12729   6.118  15.050   7.691  0.1065  0.0249  0.0787
  881YOPE   C4B12730   6.027  15.016   8.053  0.0460 -0.0677 -0.0872
  882YOPE   NH312731   7.987  11.320   6.102  0.1686 -0.0784 -0.1583
  882YOPE   PO412732   7.666  11.623   6.285 -0.1398 -0.1901  0.0713
  882YOPE   GL112733   7.860  11.428   6.681 -0.3158  0.1497 -0.2286
  882YOPE   GL212734   7.900  11.112   6.590  0.0991  0.0768  0.1955
  882YOPE   C1A12735   7.913  11.421   7.112  0.3464  0.0881  0.0296
  882YOPE   D2A12736   8.013  11.462   7.555  0.1267  0.2672  0.0641
  882YOPE   C3A12737   7.938  11.722   7.929 -0.2360  0.0557  0.1440
  882YOPE   C4A12738   8.043  12.087   8.090 -0.0429  0.2744 -0.0130
  882YOPE   C1B12739   7.898  10.896   6.846  0.1675  0.4021  0.1347
  882YOPE   C2B12740   7.814  10.903   7.258  0.0373 -0.0151  0.2001
  882YOPE   D3B12741   7.945  10.975   7.609  0.1056 -0.1650 -0.1696
  882YOPE   C4B12742   8.136  11.230   7.935 -0.0736 -0.1279  0.2115
  883YOPE   NH312743  15.046  17.018   6.868 -0.1216 -0.0784 -0.3851
  883YOPE   PO412744  15.109  16.685   6.763  0.0734  0.0012  0.0252
  883YOPE   GL112745  14.921  16.636   7.152  0.1493 -0.0999  0.1989
  883YOPE   GL212746  15.234  16.767   7.295 -0.1199  0.1234 -0.1981
  883YOPE   C1A12747  14.975  16.591   7.682 -0.0722  0.2675  0.0800
  883YOPE   D2A12748  15.122  16.605   8.117  0.0258  0.1797  0.0695
  883YOPE   C3A12749  15.143  16.426   8.515  0.2797 -0.1716  0.0426
  883YOPE   C4A12750  15.306  16.579   8.891  0.2272  0.1518 -0.2427
  883YOPE   C1B12751  15.001  17.088   7.498 -0.0685  0.0847  0.0542
  883YOPE   C2B12752  14.960  17.065   7.989  0.1365  0.0533  0.0824
  883YOPE   D3B12753  14.721  16.882   8.313 -0.1048  0.0245 -0.0657
  883YOPE   C4B12754  14.617  16.623   8.555 -0.2636  0.4186  0.0614
  884YOPE   NH312755  17.261  14.120   6.325  0.1132 -0.0216 -0.1715
  884YOPE   PO412756  17.051  13.746   6.069 -0.1465 -0.2475  0.0059
  884YOPE   GL112757  17.138  13.680   6.527 -0.2620 -0.0717 -0.1508
  884YOPE   GL212758  17.270  13.492   6.642 -0.0323 -0.2434 -0.1675
  884YOPE   C1A12759  16.952  13.832   6.866 -0.0227 -0.0476  0.0120
  884YOPE   D2A12760  16.695  13.912   7.146 -0.0590  0.1739 -0.1784
  884YOPE   C3A12761  16.690  13.940   7.547  0.5000  0.2101 -0.2878
  884YOPE   C4A12762  16.739  13.737   8.011  0.0847  0.0307 -0.0165
  884YOPE   C1B12763  17.158  13.430   7.096  0.0834  0.0200 -0.1125
  884YOPE   C2B12764  17.137  13.308   7.550 -0.0131 -0.2801  0.2643
  884YOPE   D3B12765  16.958  12.976   7.774 -0.2157 -0.3706 -0.2670
  884YOPE   C4B12766  17.170  12.812   8.138  0.2139  0.0180  0.0037
  885YOPE   NH312767   4.578  17.641   6.237  0.2667  0.0265 -0.2491
  885YOPE   PO412768   4.287  17.687   6.578 -0.1608  0.0578 -0.0546
  885YOPE   GL112769   4.216  17.768   7.072 -0.0304  0.1357  0.2175
  885YOPE   GL212770   4.014  17.488   7.260 -0.1177  0.0474  0.1613
  885YOPE   C1A12771   4.144  17.956   7.499 -0.0338 -0.0419 -0.0002
  885YOPE   D2A12772   4.049  18.290   7.786 -0.1658  0.0434  0.0537
  885YOPE   C3A12773   3.866  18.271   8.257 -0.0734 -0.2268  0.0915
  885YOPE   C4A12774   3.493  18.504   8.371 -0.0691  0.2740 -0.2183
  885YOPE   C1B12775   4.127  17.490   7.707  0.1849  0.0689 -0.1423
  885YOPE   C2B12776   4.095  17.881   8.025  0.1398 -0.3451  0.1884
  885YOPE   D3B12777   4.390  18.249   8.205 -0.0265 -0.2959  0.1818
  885YOPE   C4B12778   4.606  18.481   8.004 -0.0459 -0.1718  0.1107
  886YOPE   NH312779  12.464  15.265   6.514  0.3455 -0.0004  0.3326
  886YOPE   PO412780  12.815  15.038   6.400 -0.0715 -0.2177  0.1440
  886YOPE   GL112781  12.791  14.961   6.865  0.1047 -0.2920  0.1258
  886YOPE   GL212782  12.523  15.137   6.977  0.0251 -0.0346  0.3460
  886YOPE   C1A12783  12.930  14.865   7.313  0.1025  0.4389 -0.0631
  886YOPE   D2A12784  12.873  14.831   7.747  0.1479 -0.0781 -0.1532
  886YOPE   C3A12785  12.722  14.677   8.163  0.3811 -0.2604  0.1510
  886YOPE   C4A12786  12.810  14.642   8.619 -0.0920  0.0343  0.0817
  886YOPE   C1B12787  12.518  15.094   7.405 -0.0527  0.1844  0.0278
  886YOPE   C2B12788  12.247  15.334   7.681  0.1073  0.2512 -0.2124
  886YOPE   D3B12789  12.239  15.534   8.046 -0.1889  0.0246 -0.2344
  886YOPE   C4B12790  12.140  15.813   8.308 -0.0706 -0.2511  0.1357
  887YOPE   NH312791  10.562   4.805   5.829 -0.0677 -0.0294  0.2217
  887YOPE   PO412792  10.886   4.499   5.795  0.3949  0.2027 -0.0253
  887YOPE   GL112793  11.027   4.447   6.188  0.2191 -0.1257 -0.2846
  887YOPE   GL212794  10.953   4.132   6.258  0.3287  0.0989  0.1364
  887YOPE   C1A12795  11.180   4.396   6.680  0.1278 -0.1628 -0.1394
  887YOPE   D2A12796  11.594   4.308   6.771  0.2496 -0.0484 -0.2733
  887YOPE   C3A12797  11.837   4.611   6.564  0.1013  0.0794  0.1998
  887YOPE   C4A12798  11.943   4.984   6.518  0.0118 -0.3523  0.1144
  887YOPE   C1B12799  11.273   3.955   6.459 -0.1156 -0.2094 -0.1466
  887YOPE   C2B12800  11.179   3.684   6.743 -0.0626  0.0198  0.2661
  887YOPE   D3B12801  10.907   3.419   6.970 -0.1517 -0.0271  0.1795
  887YOPE   C4B12802  10.541   3.626   7.165  0.1338 -0.0461 -0.1041
  888YOPE   NH312803  15.112   2.530   6.317 -0.2188  0.0210 -0.1383
  888YOPE   PO412804  15.385   2.123   6.317  0.2543  0.0192 -0.1245
  888YOPE   GL112805  15.327   2.161   6.625  0.1081 -0.1817 -0.1060
  888YOPE   GL212806  15.393   2.560   6.705  0.0663  0.0369 -0.2074
  888YOPE   C1A12807  15.309   2.237   7.039 -0.0027  0.0481  0.3025
  888YOPE   D2A12808  15.287   2.342   7.537 -0.0755 -0.1814 -0.3816
  888YOPE   C3A12809  15.450   2.403   7.969  0.0426 -0.0480  0.0495
  888YOPE   C4A12810  15.493   2.405   8.486 -0.1894 -0.3483 -0.0305
  888YOPE   C1B12811  15.514   2.697   7.080  0.1321  0.0284 -0.3164
  888YOPE   C2B12812  15.477   2.816   7.497  0.3333  0.0905 -0.1260
  888YOPE   D3B12813  15.501   3.120   7.791 -0.0154  0.0508  0.2999
  888YOPE   C4B12814  15.727   3.323   8.146  0.0763 -0.1032  0.2101
  889YOPE   NH312815  11.311  14.953   6.500  0.1361  0.2378 -0.1538
  889YOPE   PO412816  11.511  14.464   6.382  0.0633  0.0283 -0.2612
  889YOPE   GL112817  11.405  14.481   6.794 -0.2225  0.4192  0.0177
  889YOPE   GL212818  11.364  14.670   6.920 -0.0357  0.2058 -0.0972
  889YOPE   C1A12819  11.164  14.267   7.155  0.0379  0.0659 -0.0569
  889YOPE   D2A12820  10.977  13.948   7.348 -0.0828 -0.0189  0.1532
  889YOPE   C3A12821  10.827  13.997   7.803 -0.1042  0.1026 -0.0539
  889YOPE   C4A12822  10.892  13.992   8.281 -0.0454 -0.1967 -0.0475
  889YOPE   C1B12823  11.427  14.807   7.341  0.3534 -0.0281  0.4782
  889YOPE   C2B12824  11.353  14.898   7.819  0.0506  0.1846  0.0221
  889YOPE   D3B12825  11.300  14.725   8.083  0.1640  0.0625  0.0022
  889YOPE   C4B12826  10.870  14.483   8.106 -0.0292  0.3302 -0.1591
  890YOPE   NH312827   4.292   4.951   6.455  0.0421 -0.0140  0.0800
  890YOPE   PO412828   4.620   4.720   6.246  0.0870  0.0409  0.0630
  890YOPE   GL112829   4.777   4.632   6.635 -0.1426  0.1116  0.0316
  890YOPE   GL212830   4.802   4.482   6.845 -0.1218 -0.1751  0.2044
  890YOPE   C1A12831   4.788   5.006   6.943 -0.2056  0.0814 -0.2371
  890YOPE   D2A12832   4.872   5.175   7.398 -0.0292  0.4621  0.1987
  890YOPE   C3A12833   4.758   4.958   7.678  0.0735 -0.3971  0.1956
  890YOPE   C4A12834   4.613   4.687   7.887  0.2529 -0.4372 -0.0671
  890YOPE   C1B12835   4.705   4.576   7.212  0.3548  0.0992 -0.4476
  890YOPE   C2B12836   4.283   4.668   7.479 -0.1206 -0.0702  0.0066
  890YOPE   D3B12837   3.940   4.672   7.718 -0.3584 -0.1096 -0.2092
  890YOPE   C4B12838   3.625   4.770   7.909  0.0847  0.0108  0.1513
  891YOPE   NH312839  13.288   3.369   5.696 -0.0578 -0.2583  0.0412
  891YOPE   PO412840  12.996   2.952   5.794  0.0049  0.1261 -0.0363
  891YOPE   GL112841  12.998   3.129   6.149  0.0973  0.1357  0.0315
  891YOPE   GL212842  12.914   3.051   6.446 -0.1155 -0.0516 -0.1933
  891YOPE   C1A12843  13.331   3.428   6.388 -0.0096 -0.2913  0.5071
  891YOPE   D2A12844  13.361   3.765   6.678  0.1408  0.3171 -0.1513
  891YOPE   C3A12845  13.475   3.549   7.054  0.1645 -0.1503 -0.0513
  891YOPE   C4A12846  13.466   3.539   7.474 -0.0553 -0.4497 -0.0773
  891YOPE   C1B12847  12.998   3.144   6.871 -0.4130  0.1222 -0.0294
  891YOPE   C2B12848  13.034   3.280   7.289 -0.1911 -0.2755 -0.1438
  891YOPE   D3B12849  13.019   3.425   7.733 -0.1800 -0.0302  0.0620
  891YOPE   C4B12850  12.927   3.460   8.061 -0.0507  0.1061 -0.1132
  892YOPE   NH312851   9.160  11.538   6.254  0.0667 -0.1061 -0.1182
  892YOPE   PO412852   9.528  11.402   6.187 -0.1416 -0.0082 -0.0144
  892YOPE   GL112853   9.314  11.013   6.288 -0.0067 -0.0366 -0.0181
  892YOPE   GL212854   9.613  10.791   6.370  0.2826  0.2870  0.1432
  892YOPE   C1A12855   9.143  10.762   6.501 -0.0430  0.0586  0.1809
  892YOPE   D2A12856   9.218  10.423   6.747 -0.1294 -0.0351 -0.0701
  892YOPE   C3A12857   9.163  10.320   7.245 -0.0515 -0.2053 -0.4550
  892YOPE   C4A12858   9.094  10.429   7.700  0.1570 -0.5637  0.1516
  892YOPE   C1B12859   9.706  10.545   6.666  0.1521 -0.2252  0.1163
  892YOPE   C2B12860   9.655  10.489   7.068  0.2149  0.2391  0.2672
  892YOPE   D3B12861   9.584  10.346   7.491 -0.2549 -0.2689  0.4320
  892YOPE   C4B12862   9.535  10.140   7.832  0.1998 -0.2011  0.1097
  893YOPE   NH312863   0.455  17.294   6.780 -0.1654  0.1854  0.0466
  893YOPE   PO412864   0.902  17.481   6.820 -0.1369  0.0752 -0.1271
  893YOPE   GL112865   1.144  17.794   7.036 -0.2119 -0.0080  0.0998
  893YOPE   GL212866   1.248  18.237   7.186  0.0915 -0.0351  0.1309
  893YOPE   C1A12867   1.369  17.731   7.336  0.0510 -0.2874  0.0904
  893YOPE   D2A12868   1.616  17.665   7.703  0.1144  0.0296  0.3955
  893YOPE   C3A12869   1.544  17.675   8.055  0.0130  0.0015  0.0054
  893YOPE   C4A12870   1.607  17.743   8.396 -0.2931  0.0700 -0.1908
  893YOPE   C1B12871   1.144  18.414   7.712 -0.3630  0.0311  0.2824
  893YOPE   C2B12872   1.450  18.784   8.030  0.1965 -0.1515 -0.0179
  893YOPE   D3B12873   1.710  19.039   8.294 -0.0953  0.1479  0.0852
  893YOPE   C4B12874   1.986  18.859   8.610  0.0744  0.2813 -0.1105
  894YOPE   NH312875  16.077   5.774   5.942 -0.6060  0.0723  0.0071
  894YOPE   PO412876  16.129   6.189   5.748 -0.3572 -0.1814 -0.0790
  894YOPE   GL112877  16.283   6.193   6.228  0.0174  0.0239 -0.0971
  894YOPE   GL212878  16.345   6.509   6.317  0.0115  0.1977  0.3121
  894YOPE   C1A12879  16.443   6.274   6.739 -0.0807  0.0915  0.2031
  894YOPE   D2A12880  16.510   6.362   7.093 -0.3120 -0.1063  0.0895
  894YOPE   C3A12881  16.669   6.596   7.521 -0.0683 -0.2136  0.4505
  894YOPE   C4A12882  16.831   6.790   8.005 -0.1078 -0.1598 -0.0907
  894YOPE   C1B12883  16.626   6.661   6.511 -0.0204  0.0177 -0.0701
  894YOPE   C2B12884  16.818   6.854   6.835 -0.0234 -0.1940 -0.1391
  894YOPE   D3B12885  16.630   6.984   7.191  0.2058 -0.1134 -0.0538
  894YOPE   C4B12886  16.429   7.053   7.573  0.3530 -0.1607  0.0137
  895YOPE   NH312887  16.967   0.374   6.341 -0.1830  0.1096 -0.1347
  895YOPE   PO412888  17.271   0.304   6.700 -0.0667  0.1967  0.1075
  895YOPE   GL112889  17.144   0.274   7.057  0.2272  0.0688  0.1868
  895YOPE   GL212890  17.220   0.639   7.139  0.0589 -0.0399 -0.0475
  895YOPE   C1A12891  17.144   0.064   7.389 -0.1907 -0.0600  0.1632
  895YOPE   D2A12892  17.116   0.059   7.858  0.0155 -0.1210  0.0720
  895YOPE   C3A12893  17.291  -0.132   8.218  0.0371 -0.0110 -0.0365
  895YOPE   C4A12894  17.187  -0.460   8.461 -0.2057 -0.1086 -0.2417
  895YOPE   C1B12895  17.158   0.871   7.571  0.0076  0.1286  0.4724
  895YOPE   C2B12896  17.142   0.972   8.008 -0.1617 -0.1277  0.1248
  895YOPE   D3B12897  17.193   0.994   8.458 -0.0020 -0.1776  0.0439
  895YOPE   C4B12898  16.854   0.906   8.764 -0.3170 -0.1579  0.0746
  896YOPE   NH312899   7.835   1.793   5.812 -0.0350  0.2263  0.1492
  896YOPE   PO412900   7.995   1.388   5.891 -0.2394  0.0596 -0.3559
  896YOPE   GL112901   8.052   1.562   6.260 -0.0623  0.2693 -0.0478
  896YOPE   GL212902   7.818   1.444   6.479  0.2301  0.1283 -0.1847
  896YOPE   C1A12903   8.210   1.724   6.633  0.0524  0.0281  0.0613
  896YOPE   D2A12904   7.875   1.712   6.961  0.3500 -0.1450  0.0736
  896YOPE   C3A12905   7.945   1.711   7.453  0.3556 -0.3855  0.0834
  896YOPE   C4A12906   7.930   1.949   7.787 -0.2225 -0.1249 -0.0954
  896YOPE   C1B12907   7.637   1.275   6.862 -0.1268 -0.0944 -0.0540
  896YOPE   C2B12908   7.605   1.280   7.218 -0.0703  0.0536 -0.0092
  896YOPE   D3B12909   7.670   1.352   7.659  0.0928  0.0059  0.2268
  896YOPE   C4B12910   7.660   1.261   8.074  0.0775  0.0001  0.0828
  897YOPE   NH312911  13.136   7.604   5.912  0.1782 -0.1393 -0.1092
  897YOPE   PO412912  12.663   7.546   6.020 -0.2055 -0.0054  0.0813
  897YOPE   GL112913  12.477   7.471   6.346  0.0318  0.0014  0.0299
  897YOPE   GL212914  12.169   7.327   6.439 -0.6221  0.0521 -0.1591
  897YOPE   C1A12915  12.568   7.611   6.815 -0.1290 -0.2018  0.1069
  897YOPE   D2A12916  12.653   7.687   7.148 -0.1467  0.0268  0.2868
  897YOPE   C3A12917  12.482   7.503   7.459  0.0414  0.1912  0.1737
  897YOPE   C4A12918  12.553   7.555   7.913  0.0834 -0.0074 -0.3412
  897YOPE   C1B12919  12.083   7.217   6.862 -0.1891  0.0972  0.2744
  897YOPE   C2B12920  12.123   7.126   7.255  0.4054  0.0426  0.2503
  897YOPE   D3B12921  12.481   6.981   7.472 -0.3080 -0.1039  0.0493
  897YOPE   C4B12922  12.746   6.725   7.796 -0.2478  0.2817  0.1953
  898YOPE   NH312923   4.242  13.874   6.368  0.1319 -0.0219 -0.0864
  898YOPE   PO412924   3.873  13.682   6.246 -0.2503 -0.1016 -0.0670
  898YOPE   GL112925   4.000  13.602   6.739 -0.1033  0.1634  0.0429
  898YOPE   GL212926   4.318  13.371   6.672  0.1971  0.2052 -0.1662
  898YOPE   C1A12927   4.019  13.492   7.145 -0.3689  0.0363  0.0933
  898YOPE   D2A12928   3.894  13.465   7.659 -0.3947  0.0137 -0.2181
  898YOPE   C3A12929   3.952  13.797   8.011  0.0645 -0.0134  0.1675
  898YOPE   C4A12930   3.984  13.736   8.490  0.0451  0.0326 -0.0709
  898YOPE   C1B12931   4.495  13.645   7.020  0.2047  0.2628 -0.2249
  898YOPE   C2B12932   4.401  13.731   7.430 -0.1504  0.0453  0.1384
  898YOPE   D3B12933   4.449  13.683   7.877  0.0640  0.2800 -0.0287
  898YOPE   C4B12934   4.154  13.386   8.198 -0.2818  0.0317  0.1942
  899YOPE   NH312935   0.334  13.001   6.426 -0.1376  0.3954 -0.1857
  899YOPE   PO412936   0.222  13.454   6.545  0.3554  0.2933 -0.0361
  899YOPE   GL112937   0.090  13.346   6.941 -0.1752  0.2256  0.2219
  899YOPE   GL212938   0.033  13.046   6.931  0.2231  0.1092 -0.1455
  899YOPE   C1A12939   0.030  13.513   7.340 -0.2556  0.3066 -0.1123
  899YOPE   D2A12940  -0.083  13.597   7.783  0.0455 -0.0634  0.1102
  899YOPE   C3A12941   0.162  13.587   8.050  0.0823  0.0331 -0.2100
  899YOPE   C4A12942   0.337  13.805   8.482 -0.1593 -0.1505  0.0738
  899YOPE   C1B12943   0.061  12.999   7.399 -0.1329  0.0821  0.1921
  899YOPE   C2B12944  -0.169  13.061   7.794 -0.0202  0.2856  0.0307
  899YOPE   D3B12945  -0.058  13.069   8.178 -0.0668  0.0516  0.2281
  899YOPE   C4B12946   0.055  13.295   8.502  0.0574  0.1472 -0.0807
  900YOPE   NH312947  17.144  16.893   6.539 -0.0759 -0.1143  0.2827
  900YOPE   PO412948  16.815  16.714   6.792 -0.3436  0.1587  0.4095
  900YOPE   GL112949  17.149  16.500   6.943 -0.1197 -0.2280 -0.1608
  900YOPE   GL212950  17.448  16.691   7.046 -0.1612  0.2134  0.1178
  900YOPE   C1A12951  17.233  16.384   7.359 -0.3781  0.1051 -0.2725
  900YOPE   D2A12952  17.488  16.301   7.702 -0.0574  0.0634 -0.0364
  900YOPE   C3A12953  17.544  16.241   8.111 -0.0555  0.1163 -0.1271
  900YOPE   C4A12954  17.798  16.191   8.450  0.0153  0.1600 -0.0144
  900YOPE   C1B12955  17.758  16.737   7.302 -0.1995 -0.0527 -0.3527
  900YOPE   C2B12956  17.735  16.767   7.745  0.4626 -0.1635  0.1627
  900YOPE   D3B12957  17.858  16.680   8.143  0.0868  0.2337  0.0854
  900YOPE   C4B12958  17.860  16.625   8.556 -0.2864  0.1603 -0.0597
  901YOPE   NH312959   2.201   7.094   5.895 -0.0786 -0.0211  0.2020
  901YOPE   PO412960   2.092   7.422   6.043 -0.2081  0.1107 -0.2105
  901YOPE   GL112961   2.210   7.406   6.432 -0.0760 -0.0291 -0.0273
  901YOPE   GL212962   2.295   7.719   6.496 -0.0437 -0.0938 -0.0965
  901YOPE   C1A12963   2.171   7.569   6.925  0.0132 -0.0597 -0.1477
  901YOPE   D2A12964   2.215   7.643   7.316  0.0772  0.2836  0.3479
  901YOPE   C3A12965   2.467   7.660   7.739 -0.0826  0.0556  0.0765
  901YOPE   C4A12966   2.658   7.777   8.098 -0.2327 -0.1097 -0.2619
  901YOPE   C1B12967   2.147   8.094   6.662  0.1314  0.3479 -0.1177
  901YOPE   C2B12968   2.314   8.087   7.071  0.1541 -0.0812 -0.0825
  901YOPE   D3B12969   2.316   8.124   7.539  0.1772  0.2482  0.0987
  901YOPE   C4B12970   2.240   8.037   7.974 -0.0363  0.1391 -0.2445
  902YOPE   NH312971  15.978   7.118   5.902  0.1377  0.5437 -0.1653
  902YOPE   PO412972  16.362   7.286   5.815  0.1315 -0.0217 -0.0984
  902YOPE   GL112973  16.333   7.213   6.247  0.2054 -0.1409  0.1124
  902YOPE   GL212974  16.295   6.972   6.362  0.0624  0.0960  0.1129
  902YOPE   C1A12975  16.263   7.488   6.554 -0.0117  0.0782 -0.0046
  902YOPE   D2A12976  16.286   7.787   6.864  0.1614 -0.1102  0.0540
  902YOPE   C3A12977  16.366   8.189   6.865  0.1955 -0.0112 -0.2052
  902YOPE   C4A12978  16.255   8.538   7.079  0.1327 -0.0241 -0.1107
  902YOPE   C1B12979  16.307   6.958   6.746  0.0289 -0.1559 -0.3140
  902YOPE   C2B12980  16.210   7.279   7.117 -0.1207 -0.2583  0.2180
  902YOPE   D3B12981  15.999   7.230   7.386  0.2267 -0.0520 -0.0189
  902YOPE   C4B12982  16.002   7.380   7.824 -0.1105  0.0329 -0.1463
  903YOPE   NH312983   5.413  15.184   6.470 -0.1506  0.2144  0.0187
  903YOPE   PO412984   5.101  15.547   6.293 -0.2079  0.0133 -0.0886
  903YOPE   GL112985   5.011  15.402   6.678  0.0841 -0.0197  0.4282
  903YOPE   GL212986   4.887  15.650   6.857  0.1154  0.0792  0.0770
  903YOPE   C1A12987   5.210  15.291   7.027  0.1957 -0.0329 -0.0096
  903YOPE   D2A12988   5.319  15.174   7.433 -0.2001 -0.0223  0.0243
  903YOPE   C3A12989   5.086  15.322   7.814 -0.2346 -0.0384  0.0907
  903YOPE   C4A12990   4.927  15.286   8.233  0.5946  0.1504  0.1357
  903YOPE   C1B12991   4.940  15.700   7.289  0.2237  0.0900 -0.0185
  903YOPE   C2B12992   4.840  15.901   7.654  0.0594 -0.0022 -0.3043
  903YOPE   D3B12993   4.522  15.545   7.912 -0.1637 -0.0169  0.2718
  903YOPE   C4B12994   4.154  15.467   8.077 -0.0804 -0.0653 -0.0885
  904YOPE   NH312995   4.198   3.056   6.417  0.2198 -0.1166 -0.0524
  904YOPE   PO412996   4.519   3.242   6.303 -0.1050  0.1543 -0.2046
  904YOPE   GL112997   4.455   3.395   6.661 -0.0897  0.1666 -0.0578
  904YOPE   GL212998   4.522   3.037   6.967 -0.1084  0.2754 -0.0460
  904YOPE   C1A12999   4.581   3.477   7.095 -0.1376 -0.0182  0.0583
  904YOPE   D2A13000   4.629   3.452   7.531  0.0146 -0.0056 -0.2191
  904YOPE   C3A13001   4.591   3.797   7.759  0.2444  0.0464  0.1435
  904YOPE   C4A13002   4.282   3.873   8.055  0.0121  0.3271  0.0445
  904YOPE   C1B13003   4.766   3.010   7.410 -0.1805 -0.1346 -0.1973
  904YOPE   C2B13004   4.827   2.989   7.829  0.0123 -0.0845  0.1204
  904YOPE   D3B13005   4.872   2.684   8.203 -0.0193  0.1071  0.0601
  904YOPE   C4B13006   4.623   2.562   8.592  0.0333  0.0949  0.0486
  905YOPE   NH313007  10.223  16.532   6.253 -0.1070  0.1772 -0.0086
  905YOPE   PO413008  10.045  16.976   6.125 -0.1017 -0.2433  0.1776
  905YOPE   GL113009   9.791  17.070   6.470  0.2651  0.0055  0.1970
  905YOPE   GL213010  10.000  16.818   6.602  0.1780 -0.0161 -0.1004
  905YOPE   C1A13011   9.677  17.189   6.813 -0.0745 -0.1579 -0.0279
  905YOPE   D2A13012   9.398  17.342   7.280 -0.0410  0.0424  0.2233
  905YOPE   C3A13013   9.241  17.267   7.682 -0.0879 -0.0022 -0.0415
  905YOPE   C4A13014   8.887  17.305   7.917  0.1170 -0.1533 -0.0056
  905YOPE   C1B13015  10.179  16.819   7.004 -0.2059  0.0422 -0.1924
  905YOPE   C2B13016  10.221  16.921   7.428 -0.1086 -0.1647  0.1573
  905YOPE   D3B13017  10.186  16.758   7.842  0.1318  0.0656 -0.0269
  905YOPE   C4B13018  10.015  16.574   8.287  0.1261 -0.4261  0.1859
  906YOPE   NH313019  10.070  13.845   6.228  0.0175  0.0558 -0.0093
  906YOPE   PO413020   9.666  13.538   6.177  0.0383 -0.0212 -0.3724
  906YOPE   GL113021   9.527  13.586   6.590 -0.0957 -0.3378 -0.1743
  906YOPE   GL213022   9.721  13.512   6.850  0.2229  0.2029 -0.0068
  906YOPE   C1A13023   9.232  13.442   6.924 -0.2109  0.0026 -0.0156
  906YOPE   D2A13024   8.883  13.482   7.160  0.1611 -0.3068 -0.0059
  906YOPE   C3A13025   8.745  13.885   7.323  0.0311 -0.0068  0.3144
  906YOPE   C4A13026   8.633  14.177   7.642  0.4233  0.1733 -0.0525
  906YOPE   C1B13027   9.855  13.639   7.295  0.2232  0.1711 -0.2554
  906YOPE   C2B13028   9.749  13.541   7.737  0.0809  0.1112  0.0036
  906YOPE   D3B13029   9.454  13.652   8.042  0.2243 -0.0302 -0.3621
  906YOPE   C4B13030   9.620  13.754   8.481  0.0770 -0.2821  0.0073
  907YOPE   NH313031  14.870   4.338   6.157 -0.0797  0.0541 -0.0759
  907YOPE   PO413032  14.959   3.851   6.142  0.0500 -0.1693 -0.2276
  907YOPE   GL113033  14.808   3.863   6.572 -0.2451  0.2198  0.2126
  907YOPE   GL213034  14.662   4.177   6.634 -0.2402 -0.1262 -0.3320
  907YOPE   C1A13035  15.051   3.638   6.859  0.1191  0.1383  0.2603
  907YOPE   D2A13036  14.912   3.337   7.084 -0.0397 -0.1466  0.0513
  907YOPE   C3A13037  15.094   3.339   7.536  0.0335 -0.1063  0.1635
  907YOPE   C4A13038  15.099   3.228   8.053  0.2424 -0.3457  0.0483
  907YOPE   C1B13039  14.658   3.963   6.997 -0.1922  0.1338  0.1396
  907YOPE   C2B13040  14.804   3.711   7.365  0.1418  0.1646  0.1141
  907YOPE   D3B13041  14.691   3.526   7.795  0.1475 -0.2139 -0.0093
  907YOPE   C4B13042  14.422   3.723   8.068 -0.0071  0.0449 -0.3859
  908YOPE   NH313043  14.773   0.881   6.430  0.2993  0.1073  0.4733
  908YOPE   PO413044  15.068   1.116   6.462  0.0539 -0.1644  0.2418
  908YOPE   GL113045  15.089   1.361   6.732  0.1039 -0.2144  0.2805
  908YOPE   GL213046  15.125   1.667   6.626  0.1131  0.0949 -0.0687
  908YOPE   C1A13047  15.164   1.323   7.121  0.2686  0.1998 -0.0499
  908YOPE   D2A13048  15.014   1.482   7.529  0.1209  0.1674  0.1325
  908YOPE   C3A13049  15.041   1.423   7.886  0.1544  0.0473 -0.1472
  908YOPE   C4A13050  14.747   1.463   8.140 -0.5038 -0.1006  0.2016
  908YOPE   C1B13051  14.948   1.915   6.958 -0.0587 -0.0767 -0.6470
  908YOPE   C2B13052  14.931   1.963   7.410  0.1462  0.3279  0.2775
  908YOPE   D3B13053  15.094   1.917   7.826 -0.0223 -0.0675  0.2064
  908YOPE   C4B13054  15.308   1.967   8.167 -0.2759 -0.1296 -0.0400
  909YOPE   NH313055  14.789   6.562   5.863  0.1853 -0.0715 -0.2356
  909YOPE   PO413056  14.988   6.936   6.210 -0.1346 -0.2919  0.3664
  909YOPE   GL113057  15.153   6.994   6.584 -0.1964  0.0892  0.2151
  909YOPE   GL213058  15.297   6.659   6.634 -0.2169 -0.1333 -0.0756
  909YOPE   C1A13059  15.043   7.082   7.022  0.2441  0.0074  0.1701
  909YOPE   D2A13060  15.011   7.094   7.543  0.2658 -0.2092 -0.2729
  909YOPE   C3A13061  15.025   7.564   7.730 -0.1270  0.1759 -0.2225
  909YOPE   C4A13062  15.019   7.915   8.021  0.2429 -0.0704 -0.0099
  909YOPE   C1B13063  14.944   6.613   6.893 -0.0212 -0.3904 -0.0807
  909YOPE   C2B13064  15.076   6.648   7.346 -0.1473  0.1901 -0.1691
  909YOPE   D3B13065  14.813   6.681   7.641 -0.0187 -0.0590 -0.2714
  909YOPE   C4B13066  14.674   6.960   7.997 -0.1114 -0.2214 -0.1539
  910YOPE   NH313067   5.997  13.878   6.110 -0.1057  0.3629  0.1770
  910YOPE   PO413068   6.277  13.574   6.257  0.1707  0.0045 -0.1264
  910YOPE   GL113069   6.225  13.824   6.553  0.0577 -0.0392  0.1209
  910YOPE   GL213070   5.848  14.051   6.619  0.1180 -0.0097  0.0463
  910YOPE   C1A13071   6.199  14.089   6.955 -0.1659 -0.0503  0.0836
  910YOPE   D2A13072   6.295  13.924   7.308  0.1140  0.0279  0.1691
  910YOPE   C3A13073   6.589  14.061   7.639  0.2659 -0.0004 -0.2286
  910YOPE   C4A13074   6.559  14.176   8.181  0.0990 -0.3686 -0.0886
  910YOPE   C1B13075   5.788  13.751   6.828 -0.3975  0.0414  0.0677
  910YOPE   C2B13076   5.880  13.696   7.321  0.1598 -0.5124 -0.0796
  910YOPE   D3B13077   5.891  13.736   7.665  0.2009 -0.1627  0.0696
  910YOPE   C4B13078   5.920  13.392   7.981  0.1057  0.2687  0.0253
  911YOPE   NH313079  10.379  13.063   6.329 -0.2334 -0.4962  0.1525
  911YOPE   PO413080  10.509  13.474   6.329 -0.0341 -0.3559  0.0736
  911YOPE   GL113081  10.333  13.610   6.786  0.2015  0.1847  0.0263
  911YOPE   GL213082  10.116  13.853   6.743 -0.0933  0.2783  0.0918
  911YOPE   C1A13083  10.315  13.440   7.240  0.1188  0.2697 -0.1424
  911YOPE   D2A13084  10.245  13.283   7.658  0.2957  0.0841 -0.1543
  911YOPE   C3A13085  10.197  12.797   7.787 -0.0598  0.2747 -0.0750
  911YOPE   C4A13086  10.143  12.351   8.022 -0.1427  0.3615 -0.0516
  911YOPE   C1B13087   9.941  14.048   6.996 -0.2340 -0.3044 -0.0870
  911YOPE   C2B13088   9.783  14.110   7.430  0.0062 -0.0995 -0.2684
  911YOPE   D3B13089   9.775  14.049   7.846 -0.0007 -0.0099  0.1294
  911YOPE   C4B13090   9.952  14.022   8.180  0.2207 -0.3527  0.2832
  912YOPE   NH313091   3.618   0.995   6.457 -0.1335 -0.2412 -0.2127
  912YOPE   PO413092   3.322   0.628   6.545  0.1880 -0.1881  0.0918
  912YOPE   GL113093   3.501   0.488   6.932 -0.1281  0.0986 -0.0311
  912YOPE   GL213094   3.695   0.194   7.016  0.0103  0.1485  0.3348
  912YOPE   C1A13095   3.907   0.598   7.133  0.2300  0.3655  0.1693
  912YOPE   D2A13096   4.291   0.640   6.922 -0.2942  0.0996  0.0048
  912YOPE   C3A13097   4.585   0.434   7.077  0.3477 -0.1169  0.4094
  912YOPE   C4A13098   4.835   0.118   7.218  0.0058  0.4328 -0.0976
  912YOPE   C1B13099   3.655   0.152   7.486  0.0022 -0.1664  0.4196
  912YOPE   C2B13100   3.650   0.268   7.809 -0.1783 -0.0594 -0.3706
  912YOPE   D3B13101   3.498   0.192   8.217  0.2319  0.0545 -0.2287
  912YOPE   C4B13102   3.469  -0.116   8.579  0.0131 -0.3245  0.2435
  913YOPE   NH313103   1.155  13.332   6.479 -0.0886 -0.0370 -0.2587
  913YOPE   PO413104   0.684  13.329   6.379 -0.1432  0.1481  0.0478
  913YOPE   GL113105   0.622  13.270   6.778  0.0301  0.2609  0.0984
  913YOPE   GL213106   0.922  13.389   6.908 -0.0189  0.0269 -0.4322
  913YOPE   C1A13107   0.494  13.200   7.234 -0.0886  0.0235 -0.2679
  913YOPE   D2A13108   0.312  13.257   7.702  0.0877  0.1602 -0.2492
  913YOPE   C3A13109   0.437  12.976   8.062 -0.0000 -0.2167 -0.1616
  913YOPE   C4A13110   0.514  12.569   8.320 -0.2130 -0.1089 -0.1643
  913YOPE   C1B13111   0.992  13.391   7.267  0.0812  0.0951 -0.1240
  913YOPE   C2B13112   0.808  13.360   7.712  0.0355 -0.3024 -0.0366
  913YOPE   D3B13113   0.688  13.411   8.085  0.3421 -0.3275 -0.0571
  913YOPE   C4B13114   0.540  13.222   8.490  0.0393 -0.0042  0.0487
  914YOPE   NH313115  13.959   0.704   6.410 -0.0110 -0.1536  0.1128
  914YOPE   PO413116  14.373   0.690   6.203  0.0578  0.1571 -0.3398
  914YOPE   GL113117  14.357   0.780   6.699  0.1666 -0.0569 -0.1370
  914YOPE   GL213118  14.246   0.444   6.851  0.3279 -0.2546  0.0019
  914YOPE   C1A13119  14.123   0.999   7.032 -0.0679 -0.0144  0.2843
  914YOPE   D2A13120  14.000   1.132   7.420 -0.1437  0.3019 -0.0374
  914YOPE   C3A13121  13.953   1.102   7.726  0.1144 -0.0904 -0.2066
  914YOPE   C4A13122  13.720   1.359   7.888  0.1848 -0.0456 -0.0910
  914YOPE   C1B13123  14.221   0.613   7.315 -0.0256 -0.1651 -0.1432
  914YOPE   C2B13124  14.250   0.620   7.739 -0.0019 -0.1485  0.0106
  914YOPE   D3B13125  14.305   0.826   8.047  0.0224 -0.2803 -0.1021
  914YOPE   C4B13126  14.221   0.735   8.481 -0.0775 -0.0190  0.0290
  915YOPE   NH313127   6.728   7.582   6.095  0.0594  0.0419  0.1184
  915YOPE   PO413128   6.371   7.334   5.834  0.0911 -0.1451  0.1448
  915YOPE   GL113129   6.241   7.491   6.278 -0.2487 -0.0003 -0.3103
  915YOPE   GL213130   6.368   7.208   6.374  0.0723  0.0469  0.2919
  915YOPE   C1A13131   6.026   7.713   6.588 -0.2627 -0.2419  0.1479
  915YOPE   D2A13132   5.588   7.875   6.798  0.0668 -0.0471  0.0520
  915YOPE   C3A13133   5.489   7.969   7.162 -0.0284 -0.0883 -0.0201
  915YOPE   C4A13134   5.139   7.721   7.515  0.0022  0.0850 -0.1263
  915YOPE   C1B13135   6.367   7.136   6.874  0.1521 -0.1039 -0.2049
  915YOPE   C2B13136   6.411   7.188   7.306  0.1557  0.2210 -0.0371
  915YOPE   D3B13137   6.419   7.466   7.770 -0.2247  0.2442 -0.0795
  915YOPE   C4B13138   6.349   7.422   8.162 -0.0797  0.1938 -0.1658
  916YOPE   NH313139   0.542   8.168   5.832 -0.1885 -0.0946 -0.3766
  916YOPE   PO413140   0.941   8.188   5.985  0.0657 -0.0108  0.1735
  916YOPE   GL113141   0.725   8.493   6.239  0.0464  0.0036  0.2005
  916YOPE   GL213142   0.757   8.798   6.116 -0.0851 -0.1308 -0.1282
  916YOPE   C1A13143   0.782   8.696   6.689  0.1019 -0.0524 -0.5644
  916YOPE   D2A13144   0.842   8.681   7.168  0.1512  0.0050  0.0674
  916YOPE   C3A13145   0.674   8.664   7.610  0.1219  0.1485  0.4984
  916YOPE   C4A13146   0.295   8.540   7.889  0.2094  0.1738 -0.1281
  916YOPE   C1B13147   0.887   9.118   6.466  0.0170  0.4145 -0.1052
  916YOPE   C2B13148   0.796   9.472   6.660  0.1047  0.0641 -0.2070
  916YOPE   D3B13149   0.641   9.873   6.586 -0.1082 -0.0623  0.2889
  916YOPE   C4B13150   0.356  10.167   6.783 -0.1457 -0.1327  0.0563
  917YOPE   NH313151  15.926  17.217   6.566 -0.2299 -0.3536  0.1323
  917YOPE   PO413152  16.311  17.452   6.560  0.4070  0.0951  0.0945
  917YOPE   GL113153  16.437  17.430   7.040 -0.0861 -0.1220 -0.0038
  917YOPE   GL213154  16.751  17.446   7.157 -0.0876  0.2606 -0.0804
  917YOPE   C1A13155  16.330  17.367   7.390 -0.0732  0.1634 -0.0512
  917YOPE   D2A13156  16.333  17.301   7.862 -0.0649  0.0571 -0.1267
  917YOPE   C3A13157  16.271  17.630   8.151 -0.0406  0.4220 -0.0478
  917YOPE   C4A13158  16.045  17.655   8.512 -0.0416 -0.3032 -0.0233
  917YOPE   C1B13159  16.903  17.348   7.598 -0.1756 -0.0621  0.1610
  917YOPE   C2B13160  16.932  17.226   7.996 -0.1547 -0.0438 -0.1636
  917YOPE   D3B13161  16.677  17.285   8.247 -0.0046  0.0397  0.0735
  917YOPE   C4B13162  16.367  17.038   8.344 -0.2019 -0.0964 -0.2785
  918YOPE   NH313163  16.510   4.326   6.149 -0.1156 -0.0902  0.0500
  918YOPE   PO413164  16.161   4.374   6.270  0.2636  0.2448  0.1628
  918YOPE   GL113165  16.002   4.454   6.715 -0.3292 -0.0286 -0.1470
  918YOPE   GL213166  15.631   4.484   6.828  0.1297  0.1491  0.1217
  918YOPE   C1A13167  15.996   4.522   7.199 -0.0554 -0.0262 -0.3179
  918YOPE   D2A13168  15.803   4.611   7.574 -0.0490  0.3447  0.0413
  918YOPE   C3A13169  15.762   4.954   7.810  0.1509 -0.1181  0.2750
  918YOPE   C4A13170  15.912   5.240   8.199 -0.1020  0.3437 -0.0433
  918YOPE   C1B13171  15.510   4.466   7.234 -0.2551 -0.2249  0.1767
  918YOPE   C2B13172  15.198   4.355   7.612 -0.1467  0.2761  0.0055
  918YOPE   D3B13173  15.350   4.215   7.905 -0.2818  0.3186  0.1973
  918YOPE   C4B13174  15.082   4.237   8.318  0.0439  0.3297  0.2792
  919YOPE   NH313175   5.028  16.404   6.130  0.4737 -0.1164  0.0502
  919YOPE   PO413176   4.694  16.348   6.227 -0.1008 -0.0141  0.0528
  919YOPE   GL113177   4.534  16.525   6.658  0.0342  0.1431 -0.3504
  919YOPE   GL213178   4.584  16.323   6.812 -0.2240  0.0104  0.0523
  919YOPE   C1A13179   4.257  16.660   7.081 -0.1755 -0.2796 -0.1063
  919YOPE   D2A13180   4.294  16.540   7.550 -0.0856  0.4076 -0.0633
  919YOPE   C3A13181   4.187  16.495   7.974 -0.2322  0.2075 -0.1156
  919YOPE   C4A13182   4.111  16.719   8.399  0.0109 -0.4092  0.0167
  919YOPE   C1B13183   4.951  16.128   7.087  0.2118 -0.3165 -0.1558
  919YOPE   C2B13184   5.157  16.191   7.351 -0.0034  0.3415 -0.1299
  919YOPE   D3B13185   5.242  16.312   7.677 -0.1145  0.1543 -0.1215
  919YOPE   C4B13186   5.399  16.141   8.104 -0.0867 -0.1642 -0.2544
  920YOPE   NH313187   1.707   2.553   6.834  0.0376 -0.0938 -0.2460
  920YOPE   PO413188   1.704   2.139   7.029  0.1014  0.0995  0.2864
  920YOPE   GL113189   2.006   2.318   7.245  0.0340  0.0037  0.0837
  920YOPE   GL213190   2.041   2.624   7.234  0.0003  0.0633 -0.0881
  920YOPE   C1A13191   2.271   2.196   7.565  0.2326  0.3341 -0.2036
  920YOPE   D2A13192   2.482   2.117   7.864  0.2877 -0.1389  0.2008
  920YOPE   C3A13193   2.508   2.352   8.207 -0.3305  0.4435 -0.0958
  920YOPE   C4A13194   2.634   2.715   8.464  0.0731  0.5617 -0.2221
  920YOPE   C1B13195   1.885   2.564   7.650 -0.1462  0.1140  0.0528
  920YOPE   C2B13196   1.892   2.357   8.133  0.1550 -0.0604  0.0478
  920YOPE   D3B13197   2.114   2.086   8.376 -0.1210 -0.0668  0.3337
  920YOPE   C4B13198   2.467   1.875   8.330  0.1352 -0.3054 -0.0277
  921YOPE   NH313199  15.047  12.375   5.977  0.4104 -0.0237 -0.0824
  921YOPE   PO413200  15.490  12.634   5.940 -0.1863 -0.1672  0.0384
  921YOPE   GL113201  15.488  12.379   6.324 -0.1964  0.0021 -0.0460
  921YOPE   GL213202  15.207  12.155   6.405  0.1548 -0.1248 -0.1837
  921YOPE   C1A13203  15.730  12.228   6.745 -0.2324 -0.1423 -0.1522
  921YOPE   D2A13204  15.656  11.944   7.069  0.0536  0.1270 -0.1318
  921YOPE   C3A13205  15.715  11.845   7.463 -0.1927 -0.0598 -0.1342
  921YOPE   C4A13206  15.912  11.953   7.849  0.2018  0.0141 -0.0001
  921YOPE   C1B13207  14.982  12.101   6.743  0.3435  0.0242 -0.4371
  921YOPE   C2B13208  15.045  12.089   7.197 -0.1257  0.0897 -0.2474
  921YOPE   D3B13209  15.057  12.058   7.641 -0.4397  0.1292  0.1906
  921YOPE   C4B13210  15.389  11.986   7.889  0.0575  0.1428 -0.1699
  922YOPE   NH313211   1.474  17.429   6.717 -0.1042  0.2211  0.2969
  922YOPE   PO413212   1.721  17.014   6.633 -0.1392  0.1038  0.0520
  922YOPE   GL113213   1.543  17.060   7.089 -0.0071 -0.0670  0.2053
  922YOPE   GL213214   1.256  17.232   7.185  0.1889  0.2940  0.0818
  922YOPE   C1A13215   1.670  17.194   7.474 -0.1513  0.0417  0.0153
  922YOPE   D2A13216   1.608  17.105   7.896  0.2866 -0.4248  0.2255
  922YOPE   C3A13217   1.512  17.253   8.382  0.3519 -0.0884 -0.0313
  922YOPE   C4A13218   1.433  17.251   8.725 -0.1372  0.2184 -0.0383
  922YOPE   C1B13219   1.183  17.398   7.613  0.1460  0.0826 -0.2319
  922YOPE   C2B13220   1.167  17.324   8.034 -0.1868  0.1006 -0.0560
  922YOPE   D3B13221   0.975  17.309   8.420  0.1167  0.0499 -0.0352
  922YOPE   C4B13222   0.936  16.932   8.682  0.0878  0.0264 -0.1566
  923YOPE   NH313223   6.387  11.161   5.646 -0.0956 -0.0088  0.3816
  923YOPE   PO413224   6.188  11.210   6.077 -0.2647 -0.1188  0.2437
  923YOPE   GL113225   6.045  11.144   6.483  0.3761 -0.1383  0.1080
  923YOPE   GL213226   5.679  11.112   6.618  0.3115  0.3147 -0.0293
  923YOPE   C1A13227   6.028  11.256   6.963 -0.2030  0.2555  0.1703
  923YOPE   D2A13228   5.700  11.215   7.255 -0.4036  0.2566 -0.1425
  923YOPE   C3A13229   5.749  11.154   7.736 -0.1277  0.1361 -0.2278
  923YOPE   C4A13230   5.921  10.975   8.184  0.0770 -0.2463 -0.0633
  923YOPE   C1B13231   5.324  11.216   6.852  0.2074  0.2154  0.0442
  923YOPE   C2B13232   5.239  11.433   7.190 -0.0969 -0.1359 -0.0570
  923YOPE   D3B13233   5.523  11.614   7.570  0.0499 -0.3107  0.0029
  923YOPE   C4B13234   5.838  11.929   7.769  0.1050  0.1985  0.0293
  924YOPE   NH313235   0.217  15.801   6.824  0.1402 -0.1024  0.0188
  924YOPE   PO413236   0.501  15.971   7.022  0.2106 -0.1802  0.1048
  924YOPE   GL113237   0.466  16.264   7.360  0.1107 -0.0686 -0.0168
  924YOPE   GL213238   0.773  16.378   7.414  0.1036 -0.2128 -0.1426
  924YOPE   C1A13239   0.301  16.338   7.745  0.1816  0.0851 -0.0840
  924YOPE   D2A13240   0.428  16.211   8.089  0.3966  0.0214 -0.0919
  924YOPE   C3A13241   0.578  16.410   8.331 -0.1489  0.3757 -0.0610
  924YOPE   C4A13242   0.597  16.586   8.792 -0.3081  0.0089 -0.0350
  924YOPE   C1B13243   0.810  16.451   7.858 -0.1918 -0.0918  0.0410
  924YOPE   C2B13244   1.080  16.254   8.183  0.1706  0.0247  0.1255
  924YOPE   D3B13245   1.045  15.991   8.516 -0.3908  0.1247 -0.1053
  924YOPE   C4B13246   1.219  15.851   8.838 -0.0064  0.2263 -0.0535
  925YOPE   NH313247  15.597   3.264   5.982  0.2992  0.3803 -0.1901
  925YOPE   PO413248  15.375   2.971   6.034 -0.2004 -0.5004 -0.2143
  925YOPE   GL113249  15.411   3.067   6.439 -0.0839 -0.0869  0.1544
  925YOPE   GL213250  15.012   3.046   6.522 -0.2584  0.0642 -0.2914
  925YOPE   C1A13251  15.341   3.226   6.861 -0.0363 -0.1957  0.1647
  925YOPE   D2A13252  15.397   3.494   7.178  0.0068  0.1372 -0.0034
  925YOPE   C3A13253  15.879   3.595   7.136 -0.0724 -0.0179 -0.2379
  925YOPE   C4A13254  16.125   3.808   7.245  0.0533  0.0197 -0.0737
  925YOPE   C1B13255  15.056   2.887   6.961  0.1515 -0.0655  0.0944
  925YOPE   C2B13256  15.011   2.837   7.416  0.0489  0.1910 -0.3734
  925YOPE   D3B13257  15.120   2.762   7.904 -0.2173 -0.0435  0.1346
  925YOPE   C4B13258  15.300   2.877   8.336 -0.0831  0.2419 -0.1642
  926YOPE   NH313259   4.667   5.836   6.036 -0.1165 -0.2211 -0.3288
  926YOPE   PO413260   4.740   6.266   6.112  0.4742 -0.2155 -0.0458
  926YOPE   GL113261   4.557   6.250   6.569 -0.2133 -0.2093  0.2464
  926YOPE   GL213262   4.480   6.629   6.554  0.1204 -0.1313  0.2176
  926YOPE   C1A13263   4.604   6.022   6.931 -0.2258 -0.2128  0.1229
  926YOPE   D2A13264   4.658   6.168   7.310 -0.0162  0.1208  0.0197
  926YOPE   C3A13265   4.924   6.079   7.671  0.0556  0.0121  0.2047
  926YOPE   C4A13266   5.293   6.022   7.783  0.0643  0.0843 -0.2586
  926YOPE   C1B13267   4.473   6.545   7.034 -0.0504  0.1841  0.3504
  926YOPE   C2B13268   4.273   6.566   7.440  0.0793 -0.3318 -0.2384
  926YOPE   D3B13269   4.278   6.508   7.830 -0.1606 -0.2225  0.2561
  926YOPE   C4B13270   4.549   6.215   7.983 -0.0290  0.1782 -0.2212
  927YOPE   NH313271  15.964  13.712   6.508 -0.3011 -0.1083 -0.3145
  927YOPE   PO413272  16.270  14.014   6.354 -0.2822 -0.0266  0.1329
  927YOPE   GL113273  16.272  14.031   6.786 -0.0525 -0.0313 -0.1822
  927YOPE   GL213274  16.147  13.770   6.994 -0.1380  0.1494 -0.1453
  927YOPE   C1A13275  16.288  14.161   7.306 -0.0024  0.2250  0.0253
  927YOPE   D2A13276  16.179  14.102   7.720 -0.0410 -0.3710 -0.2543
  927YOPE   C3A13277  15.870  14.387   7.897 -0.1025 -0.2416  0.2349
  927YOPE   C4A13278  15.560  14.487   8.333 -0.1584  0.1588  0.4029
  927YOPE   C1B13279  16.179  13.643   7.368  0.0213 -0.0617 -0.0986
  927YOPE   C2B13280  16.225  13.609   7.873 -0.0963  0.0736 -0.1927
  927YOPE   D3B13281  16.313  13.519   8.336  0.1657 -0.2385  0.0398
  927YOPE   C4B13282  15.975  13.641   8.630 -0.1222  0.2063  0.3673
  928YOPE   NH313283   6.459   3.588   6.116  0.0002 -0.0925 -0.1916
  928YOPE   PO413284   5.923   3.535   6.105 -0.3608  0.3302  0.1079
  928YOPE   GL113285   5.889   3.345   6.462  0.3391  0.0097 -0.1837
  928YOPE   GL213286   5.453   3.365   6.690  0.0291 -0.5119  0.2886
  928YOPE   C1A13287   5.900   3.507   6.901 -0.0387 -0.1388 -0.0811
  928YOPE   D2A13288   6.148   3.612   7.281 -0.0116 -0.0940 -0.0765
  928YOPE   C3A13289   6.042   3.586   7.739 -0.2854 -0.0800 -0.1850
  928YOPE   C4A13290   5.878   3.559   8.229  0.2726  0.1698 -0.0114
  928YOPE   C1B13291   5.620   3.202   7.080  0.1500  0.3583 -0.1176
  928YOPE   C2B13292   5.701   3.134   7.572  0.2098 -0.1502  0.0171
  928YOPE   D3B13293   5.885   3.088   7.966 -0.1356 -0.2056 -0.1609
  928YOPE   C4B13294   5.958   2.759   8.242  0.0291  0.0302  0.0894
  929YOPE   NH313295   5.006   6.540   6.442 -0.0181 -0.0184 -0.1047
  929YOPE   PO413296   5.420   6.304   6.426  0.1624 -0.2558  0.0645
  929YOPE   GL113297   5.381   6.369   6.826 -0.0627  0.0484 -0.3632
  929YOPE   GL213298   4.959   6.479   6.920  0.1811 -0.1190 -0.3684
  929YOPE   C1A13299   5.285   6.323   7.291  0.1661  0.0146 -0.3527
  929YOPE   D2A13300   5.415   6.479   7.626 -0.1442  0.2415  0.1132
  929YOPE   C3A13301   5.270   6.728   7.815 -0.0850 -0.0864  0.0068
  929YOPE   C4A13302   5.041   6.958   8.091 -0.0435 -0.0549 -0.4166
  929YOPE   C1B13303   4.906   6.670   7.319 -0.0718 -0.1466 -0.1908
  929YOPE   C2B13304   4.739   6.704   7.735 -0.2748 -0.2235 -0.1309
  929YOPE   D3B13305   4.574   6.771   8.133  0.0842  0.0224  0.1526
  929YOPE   C4B13306   4.205   6.592   8.316  0.3754 -0.0547 -0.0940
  930YOPE   NH313307   3.482  16.138   6.762 -0.0742 -0.1834 -0.0734
  930YOPE   PO413308   3.036  16.345   6.694  0.1270  0.3356 -0.0390
  930YOPE   GL113309   3.083  16.397   7.095  0.0550 -0.2377  0.1023
  930YOPE   GL213310   2.809  16.187   7.145 -0.0454 -0.0738  0.2368
  930YOPE   C1A13311   3.303  16.400   7.468  0.1053 -0.4912  0.1581
  930YOPE   D2A13312   3.169  16.423   7.939 -0.0218  0.1022 -0.0577
  930YOPE   C3A13313   3.202  16.675   8.412  0.1105 -0.2358 -0.2882
  930YOPE   C4A13314   3.179  16.501   8.798  0.0595  0.1356  0.2097
  930YOPE   C1B13315   2.850  16.161   7.557  0.1403  0.2862 -0.3120
  930YOPE   C2B13316   2.797  16.020   7.989 -0.0024 -0.1053 -0.3008
  930YOPE   D3B13317   2.469  15.866   8.329 -0.0585 -0.0899 -0.1733
  930YOPE   C4B13318   2.309  15.575   8.631 -0.1397 -0.1528 -0.3574
  931YOPE   NH313319  12.882   6.102   5.975 -0.0746  0.1435 -0.1207
  931YOPE   PO413320  12.757   5.843   5.639  0.1579  0.1517 -0.0394
  931YOPE   GL113321  12.511   5.750   6.004  0.2388  0.2688 -0.0674
  931YOPE   GL213322  12.374   5.443   6.116  0.0048 -0.0865  0.0534
  931YOPE   C1A13323  12.381   5.794   6.481 -0.1376  0.0182 -0.0395
  931YOPE   D2A13324  12.381   5.672   6.914 -0.1132  0.0005  0.1209
  931YOPE   C3A13325  12.585   5.828   7.198  0.0335  0.1730 -0.0347
  931YOPE   C4A13326  12.704   6.046   7.600  0.3641 -0.0806  0.0946
  931YOPE   C1B13327  12.347   5.298   6.552 -0.1242  0.1314  0.2550
  931YOPE   C2B13328  12.322   5.219   7.007 -0.0279  0.0736 -0.1463
  931YOPE   D3B13329  12.336   5.323   7.361 -0.2703  0.0656  0.0290
  931YOPE   C4B13330  12.405   5.630   7.663  0.0573 -0.0207  0.2038
  932YOPE   NH313331  16.694   3.042   6.289  0.0618  0.0388 -0.0647
  932YOPE   PO413332  17.158   2.937   6.269 -0.0822 -0.1271 -0.0247
  932YOPE   GL113333  17.071   3.207   6.602  0.2070  0.1650  0.0755
  932YOPE   GL213334  16.820   3.349   6.660  0.0964  0.1059  0.3521
  932YOPE   C1A13335  17.182   2.957   6.979 -0.1210  0.1358 -0.0478
  932YOPE   D2A13336  17.596   3.026   7.245 -0.0225  0.1645  0.0821
  932YOPE   C3A13337  17.570   3.234   7.701 -0.4575 -0.3998  0.1390
  932YOPE   C4A13338  17.594   3.394   8.067 -0.0148  0.1536  0.0106
  932YOPE   C1B13339  16.815   3.390   7.049  0.0244  0.1257 -0.0353
  932YOPE   C2B13340  16.776   3.363   7.485  0.2521 -0.1547 -0.2595
  932YOPE   D3B13341  16.914   3.363   7.852 -0.0844 -0.0073 -0.0607
  932YOPE   C4B13342  17.119   3.681   8.123  0.1344  0.2225 -0.3520
  933YOPE   NH313343  12.870   3.611   5.934  0.0178  0.1529  0.2735
  933YOPE   PO413344  12.522   3.260   5.937 -0.1910  0.2372  0.3926
  933YOPE   GL113345  12.602   3.493   6.327 -0.0622  0.0614  0.0070
  933YOPE   GL213346  12.876   3.580   6.460  0.3237 -0.2696 -0.1079
  933YOPE   C1A13347  12.585   3.382   6.779 -0.1228  0.0497 -0.2315
  933YOPE   D2A13348  12.573   3.347   7.126  0.1024 -0.0613 -0.0288
  933YOPE   C3A13349  12.387   3.505   7.463  0.1584  0.1787  0.1524
  933YOPE   C4A13350  12.424   3.487   7.895 -0.2583 -0.1233  0.1275
  933YOPE   C1B13351  12.942   3.691   6.965  0.0729 -0.1370  0.0876
  933YOPE   C2B13352  12.979   3.753   7.378 -0.2137 -0.1985 -0.0125
  933YOPE   D3B13353  12.726   3.842   7.767 -0.1564  0.3169  0.1365
  933YOPE   C4B13354  12.554   3.858   8.210  0.0092  0.0646 -0.1660
  934YOPE   NH313355  11.405   0.338   6.292  0.0529  0.0188  0.0069
  934YOPE   PO413356  11.118   0.496   6.135  0.1642 -0.0816  0.0493
  934YOPE   GL113357  10.963   0.430   6.562 -0.0471  0.1746  0.2287
  934YOPE   GL213358  11.163   0.479   6.721  0.1953  0.1922  0.2385
  934YOPE   C1A13359  10.646   0.185   6.730  0.0510  0.2604 -0.1656
  934YOPE   D2A13360  10.541  -0.136   6.699  0.1192 -0.1120  0.0446
  934YOPE   C3A13361  10.179  -0.311   6.931  0.3330  0.0062  0.1838
  934YOPE   C4A13362   9.920  -0.424   7.221 -0.2050  0.1680 -0.0274
  934YOPE   C1B13363  10.988   0.511   7.124  0.1615  0.0933 -0.6205
  934YOPE   C2B13364  10.465   0.582   7.182 -0.2734 -0.2025 -0.1637
  934YOPE   D3B13365  10.060   0.403   7.474  0.1527  0.2632 -0.2186
  934YOPE   C4B13366  10.016   0.583   7.876  0.0449 -0.1866  0.2114
  935YOPE   NH313367  14.523   8.040   5.838 -0.4745  0.0501  0.0111
  935YOPE   PO413368  14.413   7.678   6.105 -0.0246  0.0947  0.2105
  935YOPE   GL113369  14.351   7.613   6.464 -0.1431 -0.1925  0.0327
  935YOPE   GL213370  14.046   7.825   6.648  0.2364 -0.1499  0.2892
  935YOPE   C1A13371  14.472   7.775   6.922 -0.2603  0.1699  0.3688
  935YOPE   D2A13372  14.411   7.810   7.306 -0.3345 -0.3106  0.3822
  935YOPE   C3A13373  14.461   8.049   7.666  0.0934  0.0351 -0.2252
  935YOPE   C4A13374  14.661   8.286   8.009  0.1545  0.2301  0.0894
  935YOPE   C1B13375  13.971   7.977   6.990  0.0828 -0.0261 -0.2540
  935YOPE   C2B13376  14.039   8.138   7.408 -0.0955 -0.1704 -0.1223
  935YOPE   D3B13377  14.125   8.392   7.839 -0.2107 -0.2204  0.4697
  935YOPE   C4B13378  14.355   8.721   7.974  0.1383 -0.0572  0.2120
  936YOPE   NH313379  13.169   0.358   6.212 -0.0239  0.1037 -0.0268
  936YOPE   PO413380  12.772   0.480   6.338 -0.2251 -0.2151 -0.1198
  936YOPE   GL113381  12.716   0.667   6.719 -0.0959  0.1057  0.1472
  936YOPE   GL213382  13.059   0.669   6.838  0.1282 -0.0489  0.2660
  936YOPE   C1A13383  12.528   0.756   7.089 -0.3539  0.0789 -0.0647
  936YOPE   D2A13384  12.760   0.697   7.330  0.1325 -0.1466 -0.1187
  936YOPE   C3A13385  12.792   0.913   7.844 -0.0053  0.3822  0.1062
  936YOPE   C4A13386  12.684   1.235   8.104 -0.0719  0.4668 -0.0114
  936YOPE   C1B13387  13.241   0.932   7.104 -0.0815 -0.1309 -0.2326
  936YOPE   C2B13388  13.066   1.048   7.447 -0.0298 -0.2393  0.0420
  936YOPE   D3B13389  13.022   1.440   7.708 -0.1248 -0.0191  0.2691
  936YOPE   C4B13390  13.006   1.649   8.107  0.0959 -0.1676  0.2967
  937YOPE   NH313391   2.178  16.845   6.704  0.3681 -0.0658  0.0008
  937YOPE   PO413392   2.184  17.188   6.932 -0.0257 -0.2474  0.0756
  937YOPE   GL113393   2.026  16.962   7.238  0.1583  0.0404 -0.1378
  937YOPE   GL213394   2.205  16.608   7.184  0.0097  0.1516  0.2512
  937YOPE   C1A13395   2.004  16.735   7.683 -0.0916  0.1018 -0.1253
  937YOPE   D2A13396   1.908  16.681   8.170  0.0343 -0.0390  0.1523
  937YOPE   C3A13397   1.919  16.992   8.484  0.2425  0.2816 -0.2208
  937YOPE   C4A13398   2.003  17.160   8.815  0.0975 -0.0896 -0.1426
  937YOPE   C1B13399   2.407  16.467   7.530  0.0049 -0.1215  0.0303
  937YOPE   C2B13400   2.574  16.457   7.956 -0.2085 -0.1100 -0.1670
  937YOPE   D3B13401   2.776  16.382   8.340 -0.0492 -0.3575 -0.0574
  937YOPE   C4B13402   2.723  16.366   8.716  0.0495 -0.0459  0.1348
  938YOPE   NH313403   5.949   6.354   6.313  0.0405 -0.1957  0.0828
  938YOPE   PO413404   6.082   6.748   6.392  0.0598  0.2542 -0.0487
  938YOPE   GL113405   5.884   6.765   6.785 -0.3094  0.1064 -0.1576
  938YOPE   GL213406   5.893   6.410   6.791  0.1623  0.1495  0.0890
  938YOPE   C1A13407   5.870   7.001   7.149  0.1133  0.1695  0.0212
  938YOPE   D2A13408   5.772   6.966   7.549 -0.0205  0.0476  0.0721
  938YOPE   C3A13409   6.131   7.020   7.816 -0.1250 -0.1051  0.3987
  938YOPE   C4A13410   6.242   6.931   8.246  0.1696  0.1504  0.0456
  938YOPE   C1B13411   5.765   6.515   7.302  0.1172 -0.0856  0.0783
  938YOPE   C2B13412   5.852   6.571   7.856 -0.2406  0.1940 -0.4094
  938YOPE   D3B13413   5.677   6.898   8.111 -0.2867 -0.0319  0.0268
  938YOPE   C4B13414   5.437   7.239   8.245  0.2640 -0.0298 -0.0471
  939YOPE   NH313415  11.507  15.677   6.328 -0.0686 -0.2801  0.1333
  939YOPE   PO413416  11.650  15.281   6.395 -0.1711 -0.0104  0.1094
  939YOPE   GL113417  11.760  15.398   6.737  0.0035 -0.0349  0.0685
  939YOPE   GL213418  12.061  15.233   6.769  0.1967  0.2318  0.1589
  939YOPE   C1A13419  11.791  15.565   7.069 -0.0648 -0.1477  0.2796
  939YOPE   D2A13420  11.760  15.609   7.437 -0.0184 -0.0235  0.1934
  939YOPE   C3A13421  11.749  15.481   7.800 -0.2918  0.0288 -0.0510
  939YOPE   C4A13422  11.607  15.694   8.151  0.1283  0.2827  0.1969
  939YOPE   C1B13423  11.819  15.032   7.093  0.1110 -0.0026  0.1309
  939YOPE   C2B13424  11.896  15.052   7.428 -0.3432 -0.4375 -0.1228
  939YOPE   D3B13425  11.855  14.961   7.801 -0.4342  0.0168  0.0670
  939YOPE   C4B13426  11.751  15.159   8.139 -0.0454  0.1489  0.1430
  940YOPE   NH313427   8.814   8.429   6.154 -0.0880 -0.0516 -0.1971
  940YOPE   PO413428   9.163   8.672   5.912 -0.1658 -0.0003  0.0636
  940YOPE   GL113429   9.200   8.810   6.334  0.1032  0.0949  0.0761
  940YOPE   GL213430   8.935   9.059   6.437 -0.0732 -0.0653 -0.1138
  940YOPE   C1A13431   9.212   8.860   6.780  0.1949 -0.2034  0.0546
  940YOPE   D2A13432   9.076   8.851   7.118 -0.1385 -0.0023  0.0240
  940YOPE   C3A13433   9.283   8.711   7.497  0.2305  0.0096  0.1789
  940YOPE   C4A13434   9.361   8.407   7.797  0.0102  0.2482  0.0500
  940YOPE   C1B13435   8.806   9.221   6.870  0.0193  0.0495  0.1047
  940YOPE   C2B13436   8.720   9.171   7.302 -0.2393 -0.2338  0.0428
  940YOPE   D3B13437   8.869   8.953   7.665  0.4123 -0.2904  0.0137
  940YOPE   C4B13438   9.030   8.787   7.984 -0.2585 -0.0680  0.2516
  941POPC   NC313439   9.169  15.157   6.042  0.0307  0.0236 -0.0468
  941POPC   PO413440   9.618  15.359   6.152 -0.0023  0.1468  0.0405
  941POPC   GL113441   9.658  15.474   6.452 -0.4284  0.3019 -0.0439
  941POPC   GL213442   9.956  15.564   6.577  0.1967 -0.2582 -0.2185
  941POPC   C1A13443   9.702  15.494   6.965 -0.2679  0.0051 -0.2834
  941POPC   D2A13444   9.403  15.351   7.153  0.0653 -0.1901  0.0685
  941POPC   C3A13445   9.446  15.128   7.482  0.1519 -0.1588 -0.1599
  941POPC   C4A13446   9.466  15.061   7.839  0.0921  0.0346  0.3700
  941POPC   C1B13447  10.241  15.433   6.873 -0.1306 -0.4662  0.2612
  941POPC   C2B13448  10.243  15.427   7.387  0.0822  0.3287  0.1661
  941POPC   C3B13449   9.910  15.435   7.651  0.1283  0.0010 -0.2271
  941POPC   C4B13450   9.959  15.349   8.157 -0.0411  0.0890  0.1627
  942POPC   NC313451  11.304  14.103   6.103  0.2559  0.0138 -0.0635
  942POPC   PO413452  11.418  13.732   6.193  0.1147 -0.0473  0.3320
  942POPC   GL113453  11.378  13.536   6.596  0.3243 -0.1268  0.2091
  942POPC   GL213454  11.320  13.181   6.704  0.1456 -0.1238  0.3318
  942POPC   C1A13455  11.288  13.516   7.066  0.0404 -0.1311  0.2187
  942POPC   D2A13456  11.151  13.368   7.416 -0.0798 -0.0690 -0.1867
  942POPC   C3A13457  11.080  13.359   7.816 -0.0877 -0.2482 -0.2351
  942POPC   C4A13458  10.742  13.533   8.018  0.2516 -0.0403  0.1153
  942POPC   C1B13459  11.328  12.958   7.034 -0.0203 -0.0323 -0.1965
  942POPC   C2B13460  11.252  12.897   7.468 -0.2004 -0.1653  0.0850
  942POPC   C3B13461  11.177  12.868   8.000  0.1032  0.2158  0.1372
  942POPC   C4B13462  11.023  13.176   8.253 -0.0220  0.0284  0.0757
  943POPC   NC313463  10.806   3.877   5.767  0.0354 -0.0670  0.0863
  943POPC   PO413464  11.060   3.575   5.950  0.0931  0.0733 -0.2542
  943POPC   GL113465  10.814   3.569   6.299 -0.0257  0.2778  0.2189
  943POPC   GL213466  10.822   3.317   6.429 -0.1020  0.0197  0.1709
  943POPC   C1A13467  10.469   3.534   6.673  0.0658 -0.1910  0.2762
  943POPC   D2A13468  10.183   3.366   6.898  0.0690  0.0653  0.2617
  943POPC   C3A13469  10.183   3.319   7.340 -0.2946 -0.1526 -0.0516
  943POPC   C4A13470  10.313   3.192   7.767 -0.0698 -0.1779 -0.1432
  943POPC   C1B13471  10.545   3.022   6.703 -0.0903 -0.1526  0.1917
  943POPC   C2B13472  10.148   2.849   6.844 -0.3281  0.1792  0.1428
  943POPC   C3B13473   9.897   2.878   7.212  0.0639 -0.1387 -0.0521
  943POPC   C4B13474   9.827   3.083   7.657  0.0669  0.1790 -0.2223
  944POPC   NC313475  17.556  13.722   6.292 -0.2324  0.0938  0.3412
  944POPC   PO413476  17.754  14.110   6.244  0.0934  0.2314 -0.0768
  944POPC   GL113477  17.750  13.918   6.670 -0.1671  0.2254  0.0126
  944POPC   GL213478  17.979  14.136   6.859 -0.4903  0.0782  0.2861
  944POPC   C1A13479  17.469  13.791   7.039  0.3882  0.0076  0.0843
  944POPC   D2A13480  17.157  13.811   7.430  0.0941 -0.0067 -0.0149
  944POPC   C3A13481  17.203  13.926   7.843 -0.0030  0.0246  0.4170
  944POPC   C4A13482  17.383  13.815   8.324  0.0378  0.0065 -0.1453
  944POPC   C1B13483  17.775  14.142   7.140 -0.2233 -0.0866  0.0379
  944POPC   C2B13484  17.639  14.017   7.455 -0.1284  0.0510  0.0952
  944POPC   C3B13485  17.651  14.040   7.963 -0.3153 -0.1620 -0.0071
  944POPC   C4B13486  17.846  14.242   8.291 -0.0446 -0.1499  0.0507
  945POPC   NC313487   7.187   8.728   5.737  0.0446 -0.0839 -0.1121
  945POPC   PO413488   7.148   8.741   6.242 -0.0029  0.0562  0.4004
  945POPC   GL113489   6.916   8.696   6.702 -0.1130 -0.1718  0.0313
  945POPC   GL213490   6.891   8.929   6.823  0.0877 -0.3285  0.0304
  945POPC   C1A13491   6.858   8.541   7.131  0.0508 -0.1686  0.0242
  945POPC   D2A13492   6.766   8.530   7.518  0.3881 -0.2991  0.1883
  945POPC   C3A13493   6.947   8.775   7.822  0.1044 -0.2320  0.0242
  945POPC   C4A13494   6.794   8.977   8.201  0.0992 -0.1373  0.0861
  945POPC   C1B13495   6.697   9.359   7.047 -0.2619 -0.1049  0.0598
  945POPC   C2B13496   6.591   9.450   7.419 -0.0341 -0.2678 -0.2476
  945POPC   C3B13497   6.611   9.306   7.782 -0.1007 -0.2031  0.2021
  945POPC   C4B13498   6.388   9.261   8.164  0.0003  0.0176  0.0544
  946POPC   NC313499   3.297   3.243   6.335 -0.1459  0.2769  0.0494
  946POPC   PO413500   2.945   3.451   6.142  0.0515 -0.0130 -0.1849
  946POPC   GL113501   2.841   3.494   6.582  0.2759  0.0526 -0.1520
  946POPC   GL213502   2.937   3.842   6.516 -0.1872  0.0888 -0.0409
  946POPC   C1A13503   2.981   3.581   7.014 -0.3344  0.1643 -0.1058
  946POPC   D2A13504   3.145   3.511   7.412  0.1138  0.1479  0.1448
  946POPC   C3A13505   3.083   3.536   7.877 -0.1205 -0.2648  0.5065
  946POPC   C4A13506   3.026   3.750   8.211  0.4619 -0.1734  0.0011
  946POPC   C1B13507   3.012   4.051   6.910 -0.0563  0.1472  0.1442
  946POPC   C2B13508   2.964   4.489   6.999  0.2253 -0.2190 -0.1111
  946POPC   C3B13509   2.842   4.682   7.357 -0.0839  0.0247 -0.0992
  946POPC   C4B13510   2.856   4.858   7.768  0.1056 -0.0514 -0.5467
  947POPC   NC313511  15.413  10.830   5.698 -0.0881 -0.1072  0.1390
  947POPC   PO413512  15.754  11.061   5.564 -0.1101  0.2442 -0.0398
  947POPC   GL113513  15.892  10.751   5.922 -0.2236 -0.0461 -0.2164
  947POPC   GL213514  15.626  10.580   6.103 -0.1569 -0.0058 -0.0221
  947POPC   C1A13515  16.131  10.819   6.306 -0.3156 -0.2256 -0.0773
  947POPC   D2A13516  16.543  10.861   6.582  0.2023 -0.1289 -0.0225
  947POPC   C3A13517  16.537  10.774   6.963  0.2167  0.1000  0.2064
  947POPC   C4A13518  16.223  10.575   7.169 -0.2337 -0.1805 -0.1254
  947POPC   C1B13519  15.716  10.577   6.497 -0.3128 -0.0207 -0.1103
  947POPC   C2B13520  15.759  10.494   7.030  0.0817 -0.0259  0.1674
  947POPC   C3B13521  15.635  10.264   7.334  0.1895 -0.1096  0.0302
  947POPC   C4B13522  15.443  10.214   7.683 -0.0001 -0.1479  0.0770
  948POPC   NC313523   6.948   1.998   5.957 -0.2301  0.0210 -0.1037
  948POPC   PO413524   7.349   1.955   5.889 -0.0776  0.2254 -0.0649
  948POPC   GL113525   7.456   2.166   6.201 -0.1206 -0.0658  0.1006
  948POPC   GL213526   7.746   1.960   6.292  0.0678 -0.0322  0.0612
  948POPC   C1A13527   7.540   2.303   6.594  0.0785 -0.3850 -0.0270
  948POPC   D2A13528   7.430   2.197   6.992 -0.5068  0.0943  0.3270
  948POPC   C3A13529   7.316   2.518   7.283 -0.0948 -0.1277 -0.1274
  948POPC   C4A13530   7.186   2.964   7.298  0.3206 -0.0927  0.2441
  948POPC   C1B13531   7.477   1.841   6.656 -0.1619  0.2994 -0.1427
  948POPC   C2B13532   7.356   1.690   7.044  0.0054 -0.0605  0.2093
  948POPC   C3B13533   7.383   1.661   7.443  0.0657  0.0207  0.0950
  948POPC   C4B13534   7.348   1.681   7.922 -0.3052 -0.0594 -0.0397
  949POPC   NC313535   7.402  11.170   6.482 -0.0658 -0.3854  0.0392
  949POPC   PO413536   7.019  11.018   6.420 -0.0935 -0.0779  0.3504
  949POPC   GL113537   7.132  10.748   6.763  0.1236  0.1052 -0.3605
  949POPC   GL213538   7.340  10.820   6.881  0.2433  0.1735 -0.0787
  949POPC   C1A13539   6.924  10.678   7.155  0.1476 -0.0422 -0.3485
  949POPC   D2A13540   7.027  10.679   7.645  0.1640 -0.3246 -0.2205
  949POPC   C3A13541   6.834  10.682   7.964  0.0019 -0.1317  0.2039
  949POPC   C4A13542   6.721  10.648   8.351 -0.0510  0.1228 -0.1311
  949POPC   C1B13543   7.369  10.746   7.341 -0.0473 -0.0805  0.3130
  949POPC   C2B13544   7.516  10.779   7.691  0.2398  0.0647 -0.2069
  949POPC   C3B13545   7.745  10.571   7.951  0.4322  0.0853 -0.0791
  949POPC   C4B13546   7.810  10.519   8.310  0.0317 -0.0452 -0.0991
  950POPC   NC313547  10.585  15.691   6.050 -0.2767 -0.1651  0.1233
  950POPC   PO413548  10.937  15.890   6.284 -0.0177  0.3154  0.2368
  950POPC   GL113549  10.966  16.002   6.623  0.5367  0.0302 -0.0123
  950POPC   GL213550  11.015  16.268   6.801  0.2438 -0.1878 -0.2681
  950POPC   C1A13551  10.966  15.810   7.039  0.0911 -0.0215 -0.0247
  950POPC   D2A13552  10.957  15.822   7.555 -0.1977  0.3842  0.1432
  950POPC   C3A13553  10.779  15.657   7.866  0.1191 -0.2010 -0.0105
  950POPC   C4A13554  10.593  15.505   8.256  0.2116  0.0071 -0.1088
  950POPC   C1B13555  10.989  16.262   7.259 -0.1969  0.1807 -0.0658
  950POPC   C2B13556  11.031  16.300   7.746  0.0912  0.1312  0.0272
  950POPC   C3B13557  10.747  16.124   8.173 -0.0140 -0.0072  0.0875
  950POPC   C4B13558  10.715  16.023   8.612  0.1559 -0.2938  0.1082
  951POPC   NC313559   6.418  11.637   6.222 -0.0876 -0.2093  0.0806
  951POPC   PO413560   5.992  11.672   6.286 -0.1451 -0.2972 -0.1609
  951POPC   GL113561   6.100  11.663   6.661 -0.0112  0.1319  0.3529
  951POPC   GL213562   6.339  11.641   6.697  0.2409 -0.0660  0.0548
  951POPC   C1A13563   6.206  11.995   6.994  0.2129 -0.2879 -0.2754
  951POPC   D2A13564   6.301  12.324   6.931  0.3520 -0.0077 -0.0938
  951POPC   C3A13565   6.489  12.455   7.320  0.0261  0.0553 -0.1256
  951POPC   C4A13566   6.354  12.510   7.663 -0.0042 -0.1178 -0.0342
  951POPC   C1B13567   6.525  11.583   7.116  0.0153  0.2943 -0.0253
  951POPC   C2B13568   6.713  11.695   7.487 -0.1645 -0.0290 -0.2256
  951POPC   C3B13569   6.680  11.596   7.913 -0.2607 -0.2777 -0.1681
  951POPC   C4B13570   6.508  11.614   8.335  0.0380  0.0901 -0.1293
  952POPC   NC313571  16.428  16.388   6.564 -0.0932 -0.0382  0.0031
  952POPC   PO413572  16.059  16.695   6.542 -0.1337  0.2934 -0.0372
  952POPC   GL113573  15.912  16.587   6.930 -0.1618  0.2591  0.0707
  952POPC   GL213574  15.826  16.321   6.897  0.3930  0.2013  0.0013
  952POPC   C1A13575  15.698  16.606   7.314 -0.2032 -0.2609  0.0846
  952POPC   D2A13576  15.508  16.555   7.768  0.1555 -0.0977 -0.1777
  952POPC   C3A13577  15.592  16.485   8.100 -0.1599  0.0302 -0.2618
  952POPC   C4A13578  15.688  16.319   8.551  0.0256 -0.1256  0.2763
  952POPC   C1B13579  15.814  16.076   7.271 -0.1400 -0.0238  0.1820
  952POPC   C2B13580  15.745  15.821   7.613  0.0424 -0.0987 -0.0466
  952POPC   C3B13581  15.775  15.490   7.341 -0.0009 -0.1865 -0.1736
  952POPC   C4B13582  15.918  14.976   7.251  0.1069 -0.4199  0.2555
  953POPC   NC313583  14.749  16.581   6.442  0.1209  0.2467 -0.0073
  953POPC   PO413584  14.363  16.398   6.610 -0.0704  0.0857  0.0889
  953POPC   GL113585  14.472  16.559   6.951  0.0900 -0.1193 -0.3021
  953POPC   GL213586  14.104  16.811   6.949  0.0595 -0.1086  0.1063
  953POPC   C1A13587  14.448  16.435   7.340 -0.2457 -0.1977  0.2225
  953POPC   D2A13588  14.435  16.369   7.701 -0.0079  0.0600  0.1376
  953POPC   C3A13589  14.292  16.498   8.147  0.2040 -0.2474 -0.2984
  953POPC   C4A13590  14.144  16.557   8.497  0.1005  0.0751 -0.0838
  953POPC   C1B13591  14.060  16.845   7.403  0.0327 -0.0170  0.2665
  953POPC   C2B13592  13.845  16.695   7.795  0.1913  0.1945 -0.1368
  953POPC   C3B13593  13.801  16.568   8.124 -0.0615 -0.0466 -0.2104
  953POPC   C4B13594  13.600  16.604   8.562  0.0356  0.0177  0.1262
  954POPC   NC313595  16.448  17.011   6.640  0.3229 -0.1336  0.0540
  954POPC   PO413596  16.750  17.196   6.705  0.0634 -0.1403  0.2051
  954POPC   GL113597  16.619  16.972   7.158  0.1851 -0.0521 -0.0939
  954POPC   GL213598  16.396  16.663   7.031 -0.0609 -0.2584  0.2427
  954POPC   C1A13599  16.655  16.918   7.676  0.0150 -0.0808 -0.0639
  954POPC   D2A13600  16.794  16.716   8.083 -0.1651 -0.1161  0.2398
  954POPC   C3A13601  16.855  16.870   8.447  0.0659  0.0397 -0.2096
  954POPC   C4A13602  16.756  16.988   8.895 -0.1475 -0.1964  0.1723
  954POPC   C1B13603  16.160  16.406   7.354  0.0341 -0.1879  0.2730
  954POPC   C2B13604  15.943  16.274   7.701 -0.0558  0.0516 -0.3016
  954POPC   C3B13605  16.032  16.302   8.024  0.0671 -0.0218  0.1593
  954POPC   C4B13606  16.177  16.141   8.397  0.1049  0.0213  0.0345
  955POPC   NC313607  11.833  13.613   6.447  0.0305 -0.0223 -0.3028
  955POPC   PO413608  11.956  13.217   6.549  0.1159  0.1558  0.2499
  955POPC   GL113609  11.799  13.259   6.963 -0.1891 -0.1427  0.0018
  955POPC   GL213610  11.918  13.530   7.001  0.2917  0.1881 -0.0371
  955POPC   C1A13611  11.647  13.193   7.353  0.0513 -0.1869  0.3232
  955POPC   D2A13612  11.576  13.126   7.780  0.1357  0.0294  0.3873
  955POPC   C3A13613  11.604  13.301   8.092  0.1587  0.1125  0.1039
  955POPC   C4A13614  11.696  13.284   8.457 -0.2138  0.0871  0.0219
  955POPC   C1B13615  12.056  13.528   7.354  0.0834 -0.0961  0.0428
  955POPC   C2B13616  11.946  13.466   7.840  0.0916  0.1356  0.3223
  955POPC   C3B13617  12.010  13.535   8.233 -0.2300 -0.0219 -0.1047
  955POPC   C4B13618  12.103  13.508   8.698  0.2359 -0.0999 -0.1363
  956POPC   NC313619   2.871   8.654   5.767 -0.1203  0.3013  0.1456
  956POPC   PO413620   3.192   8.451   5.863  0.0657 -0.0595 -0.0553
  956POPC   GL113621   3.078   8.472   6.228 -0.0179  0.0354 -0.0619
  956POPC   GL213622   3.415   8.225   6.364 -0.3203  0.2118  0.3744
  956POPC   C1A13623   3.303   8.700   6.598 -0.2536  0.0021  0.1526
  956POPC   D2A13624   3.630   8.552   6.872  0.0529 -0.0114  0.4634
  956POPC   C3A13625   3.570   8.452   7.300 -0.1166 -0.1230 -0.0510
  956POPC   C4A13626   3.714   8.644   7.652 -0.4172  0.0694 -0.0462
  956POPC   C1B13627   3.197   8.274   6.826  0.0951 -0.0573  0.1809
  956POPC   C2B13628   3.094   8.307   7.224 -0.0289  0.2062  0.1204
  956POPC   C3B13629   2.983   8.309   7.701 -0.1540 -0.1189  0.3103
  956POPC   C4B13630   2.650   8.311   7.875 -0.1720  0.2927  0.0401
  957POPC   NC313631  16.908  13.097   6.394 -0.0364 -0.1982 -0.1230
  957POPC   PO413632  16.550  13.007   6.228 -0.0831 -0.2421  0.1606
  957POPC   GL113633  16.632  12.899   6.788 -0.0566  0.1612  0.0174
  957POPC   GL213634  16.809  13.198   6.851  0.2619  0.2242  0.1108
  957POPC   C1A13635  16.665  12.861   7.188  0.2933  0.0817  0.1910
  957POPC   D2A13636  16.501  12.686   7.532 -0.2246  0.0136 -0.2813
  957POPC   C3A13637  16.111  12.675   7.627  0.0194 -0.1219  0.4306
  957POPC   C4A13638  15.716  12.889   7.738 -0.3228 -0.0020  0.1914
  957POPC   C1B13639  16.582  13.346   7.101 -0.1152 -0.0895  0.0032
  957POPC   C2B13640  16.624  13.378   7.547  0.0466 -0.2465 -0.2299
  957POPC   C3B13641  16.395  13.140   7.813 -0.0753 -0.3207  0.0252
  957POPC   C4B13642  16.050  13.082   8.120  0.1932  0.1880  0.0554
  958POPC   NC313643   9.144   7.315   5.273 -0.1461 -0.1552  0.0481
  958POPC   PO413644   9.020   7.582   5.639  0.1691 -0.1345 -0.2647
  958POPC   GL113645   9.158   7.688   6.055 -0.3286  0.0027  0.1250
  958POPC   GL213646   9.536   7.733   6.155 -0.1915  0.3256 -0.3096
  958POPC   C1A13647   9.111   7.828   6.504  0.0185 -0.0577  0.1638
  958POPC   D2A13648   9.032   7.645   6.840  0.0887  0.0458 -0.2020
  958POPC   C3A13649   8.951   7.819   7.103  0.1267  0.1215 -0.0831
  958POPC   C4A13650   8.896   7.896   7.495 -0.0554  0.0267  0.3201
  958POPC   C1B13651   9.692   7.555   6.394 -0.1786  0.0649 -0.1153
  958POPC   C2B13652   9.820   7.611   6.728  0.0189 -0.2182 -0.2059
  958POPC   C3B13653   9.875   7.573   7.201  0.3528 -0.0980  0.0761
  958POPC   C4B13654   9.807   7.490   7.642  0.0982 -0.3147  0.1124
  959POPC   NC313655   2.517   5.643   6.137 -0.1529  0.0530 -0.0447
  959POPC   PO413656   2.997   5.607   6.331  0.0270 -0.0978  0.2248
  959POPC   GL113657   2.691   5.489   6.596 -0.0874  0.0916  0.0650
  959POPC   GL213658   2.439   5.649   6.644  0.3921 -0.1643 -0.0742
  959POPC   C1A13659   2.589   5.294   6.991  0.0172 -0.2626  0.1132
  959POPC   D2A13660   2.452   4.954   7.283  0.0366 -0.2566  0.2200
  959POPC   C3A13661   2.405   5.018   7.775  0.0183  0.2096  0.0757
  959POPC   C4A13662   2.038   5.020   7.985 -0.1059 -0.1249  0.1599
  959POPC   C1B13663   2.345   5.742   7.107  0.1644  0.2044  0.0115
  959POPC   C2B13664   2.389   5.838   7.513  0.0263 -0.2734  0.1210
  959POPC   C3B13665   2.560   5.808   7.844 -0.1280  0.1361  0.0167
  959POPC   C4B13666   2.708   6.014   8.138  0.2648  0.0767 -0.0424
  960POPC   NC313667   4.667   0.748   6.510 -0.0965  0.0952 -0.0601
  960POPC   PO413668   4.162   0.890   6.457  0.0003  0.0359 -0.1614
  960POPC   GL113669   4.399   1.113   6.820  0.1402 -0.3368 -0.0352
  960POPC   GL213670   4.426   1.363   6.888 -0.0500  0.0964  0.1930
  960POPC   C1A13671   4.531   0.971   7.226 -0.3997 -0.2235  0.2326
  960POPC   D2A13672   4.539   0.814   7.513 -0.0324  0.3859  0.1898
  960POPC   C3A13673   4.613   0.382   7.576 -0.0093  0.0446 -0.1197
  960POPC   C4A13674   4.591   0.007   7.653 -0.0332 -0.0503 -0.0561
  960POPC   C1B13675   4.376   1.446   7.336  0.1069  0.1031  0.6297
  960POPC   C2B13676   4.278   1.646   7.791 -0.3843 -0.0013 -0.0535
  960POPC   C3B13677   4.143   1.558   8.201  0.0247 -0.0761  0.2767
  960POPC   C4B13678   4.279   1.478   8.621  0.0169  0.0150 -0.0425
  961POPC   NC313679   5.717  11.297   6.149  0.0518  0.0986 -0.0686
  961POPC   PO413680   5.401  11.011   6.038  0.0961  0.0728 -0.3105
  961POPC   GL113681   5.190  11.303   6.317  0.2735  0.2872  0.0377
  961POPC   GL213682   5.448  11.623   6.419  0.2053  0.0163  0.0660
  961POPC   C1A13683   4.882  11.269   6.625  0.2827 -0.1706  0.1010
  961POPC   D2A13684   4.789  11.244   7.010 -0.0596 -0.1866 -0.2322
  961POPC   C3A13685   4.740  11.223   7.488 -0.0063  0.2279 -0.2336
  961POPC   C4A13686   4.707  11.166   7.865  0.2634  0.3978 -0.0500
  961POPC   C1B13687   5.652  11.543   6.770 -0.0102  0.0933 -0.1148
  961POPC   C2B13688   5.752  11.694   7.151  0.1703 -0.2902 -0.5961
  961POPC   C3B13689   6.028  11.596   7.404 -0.0884 -0.0098 -0.2408
  961POPC   C4B13690   6.317  11.318   7.469  0.0749  0.1413 -0.1404
  962POPC   NC313691   0.345   2.182   6.569 -0.1896  0.1881  0.1993
  962POPC   PO413692  -0.004   2.383   6.728 -0.0210  0.0231 -0.0750
  962POPC   GL113693  -0.175   2.381   7.106 -0.0528  0.2369  0.1216
  962POPC   GL213694  -0.247   2.101   7.129 -0.1726 -0.2865 -0.2178
  962POPC   C1A13695  -0.207   2.563   7.373  0.0989  0.0556  0.3726
  962POPC   D2A13696  -0.205   2.581   7.836 -0.1905 -0.0569  0.0906
  962POPC   C3A13697  -0.022   2.859   8.015 -0.1399  0.1430 -0.1248
  962POPC   C4A13698   0.034   3.079   8.439  0.0488 -0.0040 -0.0229
  962POPC   C1B13699  -0.287   2.074   7.576  0.0354 -0.0364 -0.1728
  962POPC   C2B13700  -0.309   1.864   7.961  0.3004 -0.0303 -0.0227
  962POPC   C3B13701  -0.268   1.911   8.322 -0.1836  0.1481 -0.2399
  962POPC   C4B13702  -0.148   2.085   8.527 -0.0855 -0.1763  0.1584
  963POPC   NC313703   0.983   5.165   5.980 -0.3077  0.1134 -0.0228
  963POPC   PO413704   1.365   5.002   6.175  0.1433  0.1713  0.2641
  963POPC   GL113705   1.107   5.084   6.516  0.0161  0.1531 -0.0221
  963POPC   GL213706   0.920   4.902   6.405  0.0426  0.0788  0.3269
  963POPC   C1A13707   0.959   5.156   6.945 -0.0518 -0.0442  0.2682
  963POPC   D2A13708   1.083   5.602   7.118  0.2742  0.0815  0.1701
  963POPC   C3A13709   0.943   5.950   7.025  0.0110 -0.2848  0.2553
  963POPC   C4A13710   0.946   6.306   7.162 -0.1803 -0.1435  0.0228
  963POPC   C1B13711   0.638   5.121   6.603  0.0101  0.1711  0.2321
  963POPC   C2B13712   0.497   5.311   7.037 -0.1950  0.4365  0.0210
  963POPC   C3B13713   0.582   5.634   7.289 -0.0836 -0.0874 -0.2866
  963POPC   C4B13714   0.696   5.984   7.625  0.0717  0.3235 -0.1202
  964POPC   NC313715   5.402   2.795   5.995 -0.0867 -0.0138 -0.1567
  964POPC   PO413716   5.368   2.912   6.462  0.0110 -0.0759  0.1618
  964POPC   GL113717   5.188   2.886   6.877  0.0206 -0.0721 -0.2003
  964POPC   GL213718   4.995   3.204   6.886  0.0520 -0.1426 -0.0924
  964POPC   C1A13719   5.193   2.855   7.361 -0.1669 -0.1449  0.1691
  964POPC   D2A13720   5.318   2.812   7.769  0.2320  0.1246  0.0250
  964POPC   C3A13721   5.388   2.818   8.152  0.1741  0.1376 -0.0517
  964POPC   C4A13722   5.213   2.690   8.534 -0.0773 -0.0580 -0.0674
  964POPC   C1B13723   5.139   3.292   7.219 -0.0383  0.0556 -0.0190
  964POPC   C2B13724   5.101   3.411   7.654 -0.4293  0.2551 -0.1652
  964POPC   C3B13725   4.968   3.438   8.035 -0.0812 -0.0970 -0.1010
  964POPC   C4B13726   5.243   3.689   8.313  0.1218  0.0193  0.2229
  965POPC   NC313727  10.382   1.417   5.591  0.2766  0.3040  0.1599
  965POPC   PO413728  10.014   1.125   5.728  0.2893  0.0312 -0.0316
  965POPC   GL113729  10.204   1.223   6.086  0.0069 -0.3261 -0.1106
  965POPC   GL213730   9.993   1.318   6.357  0.0793 -0.1270  0.0492
  965POPC   C1A13731  10.547   1.272   6.409  0.3765  0.2031  0.0828
  965POPC   D2A13732  10.723   1.384   6.911  0.0437  0.5732  0.2498
  965POPC   C3A13733  11.096   1.612   6.790  0.0878 -0.1214  0.3039
  965POPC   C4A13734  11.392   1.968   6.872 -0.1277  0.1506  0.0286
  965POPC   C1B13735  10.203   1.438   6.702  0.1278 -0.1190  0.0437
  965POPC   C2B13736  10.284   1.314   7.107 -0.1858  0.1463 -0.1582
  965POPC   C3B13737  10.333   1.497   7.560  0.4456 -0.0570 -0.1146
  965POPC   C4B13738  10.092   1.646   7.832 -0.0816 -0.0754  0.1002
  966POPC   NC313739   3.934  15.772   6.242  0.1511  0.1546 -0.0156
  966POPC   PO413740   4.210  15.649   6.443  0.0926  0.0234 -0.0286
  966POPC   GL113741   4.340  15.518   6.793 -0.3067 -0.1964 -0.0794
  966POPC   GL213742   4.415  15.817   6.898 -0.2568 -0.0209 -0.1326
  966POPC   C1A13743   4.315  15.534   7.280  0.2724  0.2991 -0.3405
  966POPC   D2A13744   4.204  15.241   7.637  0.1445 -0.1309 -0.0088
  966POPC   C3A13745   4.230  14.793   7.617  0.1081 -0.0523  0.2418
  966POPC   C4A13746   4.559  14.561   7.682 -0.0222  0.2832 -0.0994
  966POPC   C1B13747   4.443  16.074   7.261 -0.1236 -0.2309 -0.2543
  966POPC   C2B13748   4.379  16.020   7.690 -0.0349  0.0086  0.5041
  966POPC   C3B13749   4.370  15.977   8.097  0.0459 -0.3382  0.1364
  966POPC   C4B13750   4.114  16.249   8.443  0.4155  0.4621  0.2550
  967POPC   NC313751  13.473   2.187   5.261  0.3538  0.0296 -0.0014
  967POPC   PO413752  13.668   2.388   5.601 -0.2184  0.1109 -0.0608
  967POPC   GL113753  13.700   2.662   6.086 -0.1745 -0.3048 -0.0569
  967POPC   GL213754  13.437   2.835   6.084 -0.0691 -0.1710 -0.1371
  967POPC   C1A13755  13.824   2.695   6.511  0.2466 -0.1147  0.2142
  967POPC   D2A13756  14.188   2.530   6.618 -0.0279  0.1473  0.2008
  967POPC   C3A13757  14.274   2.596   7.009  0.3457  0.3254  0.2385
  967POPC   C4A13758  14.392   2.628   7.407  0.0893 -0.0480 -0.0247
  967POPC   C1B13759  13.408   2.932   6.556 -0.1315  0.0116  0.1632
  967POPC   C2B13760  13.463   3.068   6.939  0.1428 -0.0268  0.0426
  967POPC   C3B13761  13.611   3.066   7.336 -0.1172  0.1371  0.0988
  967POPC   C4B13762  13.730   3.210   7.730  0.1232 -0.0417  0.2538
  968POPC   NC313763   7.585   9.820   5.349 -0.2415 -0.0641  0.1230
  968POPC   PO413764   7.700   9.854   5.864 -0.1123 -0.0315  0.0244
  968POPC   GL113765   7.927   9.769   6.294 -0.1802  0.0677 -0.0980
  968POPC   GL213766   8.017  10.090   6.554 -0.0174 -0.2935 -0.2593
  968POPC   C1A13767   7.969   9.606   6.612  0.1697 -0.0703 -0.0610
  968POPC   D2A13768   8.000   9.537   7.050 -0.2944 -0.0147  0.1352
  968POPC   C3A13769   7.768   9.254   7.203  0.1310  0.2215 -0.3567
  968POPC   C4A13770   7.523   9.186   7.563 -0.2828  0.1638 -0.2737
  968POPC   C1B13771   8.155   9.967   6.940  0.2375 -0.0994 -0.1250
  968POPC   C2B13772   8.206   9.912   7.390  0.1453  0.0715 -0.2222
  968POPC   C3B13773   8.375   9.811   7.776  0.0613  0.0374  0.2190
  968POPC   C4B13774   8.403   9.916   8.213  0.0572 -0.1722  0.0555
  969POPC   NC313775   9.879  12.227   6.355 -0.1308  0.0429  0.0415
  969POPC   PO413776   9.941  12.679   6.553  0.0091  0.0191  0.1167
  969POPC   GL113777  10.186  12.866   6.809 -0.0765 -0.0164 -0.2346
  969POPC   GL213778  10.109  13.116   6.910 -0.0485  0.0253 -0.1691
  969POPC   C1A13779  10.305  12.671   7.290 -0.3134  0.1491  0.0662
  969POPC   D2A13780  10.508  12.448   7.655  0.0148 -0.1704  0.1307
  969POPC   C3A13781  10.629  12.617   8.059 -0.1302 -0.0750  0.2742
  969POPC   C4A13782  10.468  12.586   8.363  0.2531 -0.0433  0.1711
  969POPC   C1B13783   9.982  13.052   7.332 -0.1405 -0.2826  0.0645
  969POPC   C2B13784   9.765  13.015   7.774  0.0746 -0.1607 -0.0598
  969POPC   C3B13785   9.529  13.102   8.131  0.1230 -0.1428  0.0722
  969POPC   C4B13786   9.552  13.263   8.499  0.0107  0.3219  0.2012
  970POPC   NC313787  16.328   6.456   5.185  0.0256  0.1777 -0.0739
  970POPC   PO413788  16.642   6.623   5.552 -0.3286 -0.1080  0.1740
  970POPC   GL113789  16.752   6.812   5.988  0.0982 -0.0446 -0.0301
  970POPC   GL213790  16.813   7.193   6.078 -0.2545  0.0401  0.0426
  970POPC   C1A13791  17.138   6.913   6.345  0.0792 -0.1262 -0.2222
  970POPC   D2A13792  17.535   6.925   6.447 -0.1298  0.2385  0.1660
  970POPC   C3A13793  17.711   6.990   6.783  0.2082  0.0044  0.2519
  970POPC   C4A13794  17.824   6.916   7.130 -0.2026  0.3174 -0.1028
  970POPC   C1B13795  16.727   7.243   6.512 -0.0826  0.0571  0.0309
  970POPC   C2B13796  16.644   7.442   6.940 -0.0686  0.1119 -0.4021
  970POPC   C3B13797  16.760   7.470   7.323 -0.1139 -0.0144 -0.0363
  970POPC   C4B13798  16.929   7.081   7.577 -0.0842 -0.0607  0.2243
  971POPC   NC313799  15.414  13.155   5.916 -0.1258  0.2076  0.0912
  971POPC   PO413800  15.135  13.438   6.151  0.1499 -0.0217  0.4130
  971POPC   GL113801  15.006  13.273   6.482 -0.2215 -0.0493 -0.1297
  971POPC   GL213802  15.015  13.446   6.698 -0.0858  0.0784  0.1227
  971POPC   C1A13803  14.878  12.934   6.752 -0.0828 -0.2403  0.2257
  971POPC   D2A13804  14.766  12.552   6.974  0.0302  0.0077  0.0610
  971POPC   C3A13805  14.766  12.483   7.375  0.1001 -0.0719 -0.1231
  971POPC   C4A13806  14.766  12.397   7.765  0.0897  0.0800 -0.1921
  971POPC   C1B13807  15.226  13.400   7.014  0.0081 -0.3384 -0.2000
  971POPC   C2B13808  15.307  13.098   7.269 -0.0346  0.2061  0.2536
  971POPC   C3B13809  15.233  12.790   7.627  0.1554  0.0149 -0.0370
  971POPC   C4B13810  15.265  12.493   7.893  0.1206  0.0852  0.0470
  972POPC   NC313811   7.842  12.130   6.203 -0.1451  0.1740 -0.0020
  972POPC   PO413812   8.131  12.294   6.447 -0.1526  0.1123 -0.0396
  972POPC   GL113813   8.186  12.185   6.826 -0.0130 -0.2158  0.0843
  972POPC   GL213814   8.295  11.865   6.892 -0.0503  0.1708 -0.0235
  972POPC   C1A13815   8.209  12.247   7.149 -0.0811  0.0510  0.0122
  972POPC   D2A13816   8.028  12.350   7.560 -0.0697 -0.1928 -0.0354
  972POPC   C3A13817   8.296  12.536   7.870  0.0814  0.2897 -0.1671
  972POPC   C4A13818   8.233  12.599   8.337 -0.2540  0.0130  0.2076
  972POPC   C1B13819   8.437  11.684   7.187  0.1165 -0.0541 -0.0993
  972POPC   C2B13820   8.468  11.553   7.741 -0.3652  0.1951  0.0185
  972POPC   C3B13821   8.801  11.588   7.930 -0.0312  0.1838  0.0624
  972POPC   C4B13822   8.905  11.517   8.334 -0.2628 -0.0484 -0.0737
  973POPC   NC313823   7.219   5.916   6.366  0.1903  0.0082 -0.0077
  973POPC   PO413824   6.901   6.218   6.428  0.3378  0.0632 -0.0003
  973POPC   GL113825   6.576   6.089   6.840 -0.1398  0.0464  0.0554
  973POPC   GL213826   6.268   6.103   6.925  0.0424 -0.1405  0.0346
  973POPC   C1A13827   6.581   5.781   7.245 -0.3406  0.1722  0.2755
  973POPC   D2A13828   6.638   5.499   7.640  0.3315 -0.2195  0.1200
  973POPC   C3A13829   6.284   5.192   7.603  0.0024  0.2439  0.0997
  973POPC   C4A13830   6.288   4.830   7.827  0.0487 -0.0303 -0.0791
  973POPC   C1B13831   6.247   6.129   7.396 -0.2867 -0.2293  0.1414
  973POPC   C2B13832   6.123   6.166   7.778  0.0482  0.0900 -0.3633
  973POPC   C3B13833   5.754   6.020   7.976 -0.1439  0.1421  0.1641
  973POPC   C4B13834   5.407   5.932   8.337 -0.0013 -0.0500 -0.0414
  974POPC   NC313835   2.046   4.066   6.197  0.2524  0.1331 -0.0476
  974POPC   PO413836   1.990   3.667   6.248  0.0905  0.0417  0.4734
  974POPC   GL113837   1.937   3.454   6.707 -0.2710  0.0297 -0.1765
  974POPC   GL213838   1.561   3.514   6.811  0.0027  0.1222  0.0982
  974POPC   C1A13839   2.169   3.270   7.085 -0.0833  0.0424 -0.3692
  974POPC   D2A13840   2.067   3.100   7.524 -0.0343  0.2340 -0.0595
  974POPC   C3A13841   2.179   3.285   8.027 -0.3111 -0.0085 -0.0609
  974POPC   C4A13842   2.109   3.515   8.389  0.0077  0.1805  0.0720
  974POPC   C1B13843   1.341   3.745   7.070  0.0530  0.2012  0.1687
  974POPC   C2B13844   1.198   4.169   7.201 -0.0276  0.2269  0.1832
  974POPC   C3B13845   0.853   4.381   7.292 -0.3308  0.0852  0.2118
  974POPC   C4B13846   0.720   4.635   7.636 -0.2423  0.0210 -0.0311
  975POPC   NC313847   5.685   8.901   5.796 -0.1818  0.1661 -0.4608
  975POPC   PO413848   6.161   8.952   5.926 -0.0732  0.0359  0.3432
  975POPC   GL113849   6.088   9.000   6.373 -0.1328  0.0184  0.1487
  975POPC   GL213850   6.451   9.103   6.580  0.1133  0.1084 -0.2347
  975POPC   C1A13851   5.989   8.694   6.706 -0.1861 -0.2198  0.3104
  975POPC   D2A13852   5.835   8.362   6.962  0.0188 -0.2353 -0.0470
  975POPC   C3A13853   6.046   8.049   7.213 -0.1887 -0.0346  0.1952
  975POPC   C4A13854   5.990   7.565   7.500 -0.1394 -0.1034  0.0731
  975POPC   C1B13855   6.397   8.938   6.994 -0.1774  0.0082  0.0017
  975POPC   C2B13856   6.421   8.934   7.445 -0.0547 -0.0093  0.0491
  975POPC   C3B13857   6.449   8.788   7.851  0.0579 -0.3480 -0.0410
  975POPC   C4B13858   6.589   8.494   8.093  0.1662 -0.0438 -0.0119
  976POPC   NC313859  17.323   1.590   6.473 -0.1071 -0.2025  0.4174
  976POPC   PO413860  17.295   2.015   6.653 -0.1974  0.1110 -0.1534
  976POPC   GL113861  17.118   1.791   6.896  0.0605 -0.1855 -0.0856
  976POPC   GL213862  17.401   1.573   7.053 -0.1742 -0.0919 -0.0421
  976POPC   C1A13863  17.021   1.797   7.277 -0.2253  0.3306 -0.0171
  976POPC   D2A13864  16.951   1.826   7.620 -0.1388 -0.4321  0.2428
  976POPC   C3A13865  16.687   2.033   7.952  0.0789  0.1709  0.1221
  976POPC   C4A13866  16.657   1.920   8.387 -0.1003  0.1658  0.3105
  976POPC   C1B13867  17.408   1.589   7.423 -0.0748  0.0308 -0.0772
  976POPC   C2B13868  17.764   1.658   7.704 -0.4008 -0.1559  0.2204
  976POPC   C3B13869  17.812   1.731   8.141 -0.2465 -0.1168 -0.0666
  976POPC   C4B13870  17.971   1.806   8.547  0.0357  0.2103 -0.0379
  977POPC   NC313871   3.848  12.750   6.322  0.0394  0.1927 -0.1157
  977POPC   PO413872   3.880  13.168   6.449  0.0406 -0.0107 -0.1146
  977POPC   GL113873   3.766  13.151   6.924  0.0541  0.3053  0.0716
  977POPC   GL213874   3.542  13.356   6.778  0.0707 -0.3074 -0.2158
  977POPC   C1A13875   3.787  13.087   7.313  0.1837 -0.1568 -0.1387
  977POPC   D2A13876   3.518  13.159   7.662  0.1634 -0.0579 -0.0811
  977POPC   C3A13877   3.219  13.268   8.009 -0.2064 -0.4456  0.3120
  977POPC   C4A13878   3.110  13.442   8.428  0.2738 -0.0934  0.1401
  977POPC   C1B13879   3.538  13.534   7.278  0.0047 -0.0422  0.0428
  977POPC   C2B13880   3.455  13.660   7.719  0.0172  0.1163 -0.0668
  977POPC   C3B13881   3.429  13.819   8.237 -0.1510  0.0503 -0.1198
  977POPC   C4B13882   3.509  13.916   8.591 -0.2115  0.0554 -0.0222
  978POPC   NC313883   1.070   9.078   5.878 -0.2251  0.3714 -0.3313
  978POPC   PO413884   1.290   8.658   5.976 -0.2376 -0.0571  0.3096
  978POPC   GL113885   1.389   8.634   6.336  0.1315 -0.2820  0.1306
  978POPC   GL213886   1.663   8.850   6.298 -0.2245  0.0085  0.2618
  978POPC   C1A13887   1.297   8.595   6.731 -0.0788 -0.0170 -0.0952
  978POPC   D2A13888   1.402   8.304   6.958  0.0809 -0.1660  0.0118
  978POPC   C3A13889   1.744   8.011   6.932 -0.1788  0.0984 -0.2045
  978POPC   C4A13890   1.829   8.012   7.355 -0.1225 -0.0491  0.1669
  978POPC   C1B13891   1.734   8.810   6.719  0.0499  0.4177 -0.1652
  978POPC   C2B13892   1.562   8.723   7.159 -0.0270  0.0849 -0.1579
  978POPC   C3B13893   1.628   8.452   7.449 -0.1057  0.0840 -0.0851
  978POPC   C4B13894   1.668   8.357   7.839  0.0001  0.3184 -0.0304
  979POPC   NC313895  12.847   5.314   5.820 -0.1749 -0.1385  0.2696
  979POPC   PO413896  12.661   4.946   5.774  0.0955  0.0386 -0.3877
  979POPC   GL113897  12.604   5.020   6.239  0.2294  0.0405 -0.1021
  979POPC   GL213898  12.853   4.980   6.395  0.1887 -0.1366 -0.0403
  979POPC   C1A13899  12.481   4.850   6.667 -0.0038 -0.2786 -0.0427
  979POPC   D2A13900  12.202   4.622   6.832  0.0521 -0.0797  0.0716
  979POPC   C3A13901  12.222   4.784   7.298 -0.2045  0.1588  0.0842
  979POPC   C4A13902  12.391   4.711   7.775 -0.1384 -0.0747  0.0038
  979POPC   C1B13903  12.812   5.298   6.804  0.0838  0.1648  0.0540
  979POPC   C2B13904  12.848   5.406   7.205 -0.1267  0.0074  0.0391
  979POPC   C3B13905  12.763   5.320   7.615 -0.2729 -0.0066  0.0955
  979POPC   C4B13906  12.819   5.665   7.925  0.3486 -0.1278 -0.2133
  980POPC   NC313907   2.983  12.632   5.725  0.1713  0.2154 -0.1375
  980POPC   PO413908   3.053  12.222   5.945 -0.1209  0.3118  0.0906
  980POPC   GL113909   2.954  12.405   6.417 -0.1849 -0.2310  0.2718
  980POPC   GL213910   3.123  12.600   6.576 -0.3037  0.0491  0.2165
  980POPC   C1A13911   3.009  12.122   6.774 -0.2225  0.0454  0.0371
  980POPC   D2A13912   2.964  11.680   6.742  0.1346 -0.0285 -0.0897
  980POPC   C3A13913   2.836  11.396   7.032  0.0507  0.2691  0.1627
  980POPC   C4A13914   3.007  11.216   7.381 -0.0442  0.0443  0.1060
  980POPC   C1B13915   3.214  12.430   7.096  0.1985 -0.0518  0.0893
  980POPC   C2B13916   3.225  12.381   7.583  0.3398 -0.0083  0.0225
  980POPC   C3B13917   2.928  12.136   7.893 -0.0527 -0.1543  0.3294
  980POPC   C4B13918   2.888  12.054   8.344  0.3273  0.1433  0.1796
  981YOPC   NC313919  17.478   3.400   6.454 -0.1824 -0.2147  0.1546
  981YOPC   PO413920  17.748   3.729   6.415 -0.0675 -0.0800 -0.1334
  981YOPC   GL113921  17.562   3.711   6.876 -0.1115 -0.0802  0.0927
  981YOPC   GL213922  17.389   3.405   6.968 -0.1548 -0.0095  0.0078
  981YOPC   C1A13923  17.569   3.700   7.390 -0.0588  0.3893 -0.0508
  981YOPC   D2A13924  18.011   3.609   7.717 -0.2095 -0.1292 -0.0646
  981YOPC   C3A13925  17.990   3.761   8.232  0.0985  0.1180 -0.1460
  981YOPC   C4A13926  17.576   3.808   8.389 -0.1816 -0.1507 -0.2877
  981YOPC   C1B13927  17.214   3.373   7.354 -0.1318 -0.1176  0.0985
  981YOPC   C2B13928  17.119   3.018   7.539  0.0353 -0.0028  0.1352
  981YOPC   D3B13929  17.106   2.921   7.915  0.1541  0.1649 -0.1112
  981YOPC   C4B13930  17.187   3.133   8.276  0.1897  0.1931  0.0206
  982YOPC   NC313931  13.950   2.810   5.702  0.1758 -0.0772 -0.2074
  982YOPC   PO413932  13.779   3.222   5.751  0.0517 -0.0150 -0.4045
  982YOPC   GL113933  13.873   3.191   6.211  0.1279 -0.2025 -0.0519
  982YOPC   GL213934  14.187   3.253   6.385  0.0926 -0.2464 -0.1221
  982YOPC   C1A13935  13.767   3.397   6.638 -0.1259  0.0843  0.0098
  982YOPC   D2A13936  13.922   3.344   7.015 -0.1312  0.3157  0.0461
  982YOPC   C3A13937  14.117   3.049   7.307  0.3054 -0.0114 -0.2520
  982YOPC   C4A13938  14.084   2.844   7.733 -0.0222 -0.1118 -0.3800
  982YOPC   C1B13939  14.166   3.019   6.713  0.0304 -0.1872 -0.0508
  982YOPC   C2B13940  13.855   2.758   6.982  0.0247  0.0680  0.0259
  982YOPC   D3B13941  13.844   2.557   7.423 -0.1330 -0.0464 -0.1276
  982YOPC   C4B13942  13.614   2.708   7.782  0.1625 -0.0471  0.1920
  983YOPC   NC313943   2.939   6.022   6.014 -0.0827 -0.0521 -0.1217
  983YOPC   PO413944   2.492   6.189   6.006 -0.1922 -0.3032 -0.3584
  983YOPC   GL113945   2.400   6.491   6.344  0.0489  0.0942  0.5077
  983YOPC   GL213946   2.121   6.407   6.403  0.3709  0.0502  0.0823
  983YOPC   C1A13947   2.459   6.292   6.864 -0.0453  0.1865  0.0868
  983YOPC   D2A13948   2.692   6.185   7.319  0.3218  0.0897  0.1365
  983YOPC   C3A13949   2.514   6.344   7.738 -0.0655 -0.0510  0.1572
  983YOPC   C4A13950   2.330   6.643   8.051  0.1944  0.1260  0.1486
  983YOPC   C1B13951   2.101   6.589   6.757  0.0059  0.0988 -0.1404
  983YOPC   C2B13952   1.922   6.712   7.100 -0.0899 -0.2958 -0.3176
  983YOPC   D3B13953   1.685   6.923   7.476 -0.2109 -0.0794  0.1649
  983YOPC   C4B13954   1.526   7.148   7.824 -0.0664  0.0699 -0.1562
  984YOPC   NC313955   9.727   6.618   5.952 -0.0488 -0.0701  0.1372
  984YOPC   PO413956   9.425   6.796   5.802 -0.1794 -0.4445  0.0565
  984YOPC   GL113957   9.192   6.855   6.143  0.2364  0.0113 -0.1289
  984YOPC   GL213958   9.294   7.162   6.236  0.0525  0.0343  0.2177
  984YOPC   C1A13959   9.135   6.783   6.654 -0.0119  0.1667 -0.0155
  984YOPC   D2A13960   9.042   6.827   6.973  0.1664 -0.1591 -0.1194
  984YOPC   C3A13961   9.303   6.815   7.242  0.0995 -0.0341  0.0997
  984YOPC   C4A13962   9.368   7.065   7.540 -0.0806  0.1138  0.1768
  984YOPC   C1B13963   9.230   7.261   6.649 -0.0983 -0.0107  0.1309
  984YOPC   C2B13964   9.332   7.361   7.101  0.3203 -0.0908  0.2056
  984YOPC   D3B13965   8.995   7.285   7.264  0.0139  0.1056  0.0427
  984YOPC   C4B13966   8.764   7.004   7.362 -0.0545 -0.2127  0.2521
  985YOPC   NC313967   9.236  13.922   6.192 -0.3173 -0.0141 -0.0804
  985YOPC   PO413968   9.309  14.346   6.091 -0.0676 -0.3446  0.2264
  985YOPC   GL113969   9.504  14.557   6.418  0.1882  0.1902 -0.0001
  985YOPC   GL213970   9.424  14.889   6.449  0.0836 -0.1292 -0.0913
  985YOPC   C1A13971   9.371  14.517   6.894 -0.2524  0.3179  0.2512
  985YOPC   D2A13972   9.607  14.459   7.172  0.3120 -0.2407  0.0675
  985YOPC   C3A13973   9.538  14.569   7.497 -0.0229  0.0930 -0.2291
  985YOPC   C4A13974   9.598  14.572   7.922  0.0174 -0.0106 -0.0600
  985YOPC   C1B13975   9.306  15.143   6.718  0.3024 -0.0681 -0.2248
  985YOPC   C2B13976   9.184  15.604   6.811 -0.1916  0.1679  0.0181
  985YOPC   D3B13977   9.507  15.895   7.117  0.3199 -0.1449 -0.6226
  985YOPC   C4B13978   9.615  16.285   7.270 -0.0398  0.4465  0.0505
  986YOPC   NC313979  16.566   3.335   5.734 -0.2053  0.2329 -0.2308
  986YOPC   PO413980  16.093   3.352   5.841  0.3074  0.2095  0.1682
  986YOPC   GL113981  16.015   3.270   6.301 -0.0364  0.0432 -0.1452
  986YOPC   GL213982  15.761   3.445   6.533  0.4161 -0.0276  0.1954
  986YOPC   C1A13983  16.263   3.460   6.649  0.0150  0.0088  0.0440
  986YOPC   D2A13984  16.365   3.413   7.083  0.3781 -0.0344  0.0255
  986YOPC   C3A13985  16.212   3.320   7.420 -0.1280 -0.0693 -0.0608
  986YOPC   C4A13986  16.358   3.340   7.850  0.1608  0.0452 -0.0029
  986YOPC   C1B13987  15.839   3.148   6.859  0.0896 -0.0094 -0.2324
  986YOPC   C2B13988  15.744   3.174   7.311  0.1819  0.1213 -0.1415
  986YOPC   D3B13989  15.792   3.469   7.611  0.0115 -0.0206 -0.1259
  986YOPC   C4B13990  16.152   3.809   7.767 -0.0021  0.1683 -0.1170
  987YOPC   NC313991   2.705  17.109   6.783 -0.1206 -0.0861 -0.0600
  987YOPC   PO413992   2.635  16.632   6.807  0.1024  0.3095  0.0509
  987YOPC   GL113993   2.711  16.797   7.156  0.1459  0.4081 -0.3761
  987YOPC   GL213994   2.547  17.067   7.272  0.0758  0.0240  0.1104
  987YOPC   C1A13995   2.884  16.667   7.573 -0.1647  0.1252 -0.1247
  987YOPC   D2A13996   2.944  16.884   7.989  0.0538  0.2075  0.2391
  987YOPC   C3A13997   2.711  16.928   8.426 -0.1035  0.3103 -0.1047
  987YOPC   C4A13998   2.401  17.116   8.490 -0.1170 -0.0235  0.3487
  987YOPC   C1B13999   2.531  16.964   7.746  0.0495  0.2097 -0.3722
  987YOPC   C2B14000   2.355  16.877   8.079 -0.0977 -0.1667  0.0510
  987YOPC   D3B14001   2.338  16.573   8.413  0.3527  0.0347 -0.0536
  987YOPC   C4B14002   2.352  16.704   8.847  0.0319  0.0845 -0.1294
  988YOPC   NC314003   6.972  10.553   6.262 -0.1435  0.2248  0.2511
  988YOPC   PO414004   7.267  10.293   6.084 -0.1829 -0.1225  0.2803
  988YOPC   GL114005   7.416  10.514   6.444 -0.2635  0.2555  0.0703
  988YOPC   GL214006   7.647  10.525   6.610  0.1360  0.0215 -0.0728
  988YOPC   C1A14007   7.264  10.288   6.767 -0.0032  0.0764 -0.0548
  988YOPC   D2A14008   7.275  10.265   7.261  0.1892 -0.0761  0.0076
  988YOPC   C3A14009   6.917  10.262   7.403  0.0406  0.0974 -0.0695
  988YOPC   C4A14010   6.616  10.285   7.790  0.2652 -0.1264  0.0150
  988YOPC   C1B14011   7.745  10.413   6.989 -0.2780  0.2186 -0.0419
  988YOPC   C2B14012   7.725  10.408   7.448 -0.1785  0.1817 -0.1944
  988YOPC   D3B14013   7.316  10.265   7.751  0.0425 -0.2692  0.1037
  988YOPC   C4B14014   7.023   9.933   7.801  0.1020  0.2008  0.1465
  989YOPC   NC314015  10.567   0.439   5.984 -0.1141  0.1641 -0.4377
  989YOPC   PO414016  10.185   0.247   5.973 -0.2813 -0.1072 -0.0145
  989YOPC   GL114017  10.293   0.332   6.403  0.1123  0.2206 -0.2025
  989YOPC   GL214018  10.142   0.122   6.537 -0.3149  0.1887  0.0468
  989YOPC   C1A14019  10.207   0.638   6.673  0.0187  0.0710  0.1257
  989YOPC   D2A14020   9.977   0.805   7.034  0.1922 -0.2779 -0.3660
  989YOPC   C3A14021  10.152   0.931   7.477  0.0791 -0.0809  0.2848
  989YOPC   C4A14022  10.151   1.174   7.827  0.2759 -0.0204 -0.2470
  989YOPC   C1B14023  10.222   0.205   7.012 -0.1532 -0.0421  0.0352
  989YOPC   C2B14024  10.252  -0.036   7.389 -0.1450  0.1254 -0.2161
  989YOPC   D3B14025  10.141   0.088   7.844 -0.1880  0.0565  0.0765
  989YOPC   C4B14026  10.299   0.273   8.204  0.1496 -0.1806 -0.0006
  990YOPC   NC314027  11.149   1.018   6.004  0.1141 -0.0174  0.0947
  990YOPC   PO414028  11.271   0.900   6.400  0.2321  0.1217  0.3142
  990YOPC   GL114029  11.029   0.972   6.727  0.1552 -0.1047  0.0336
  990YOPC   GL214030  10.738   0.831   6.856 -0.1351 -0.0091  0.2977
  990YOPC   C1A14031  11.143   1.193   7.129  0.0450 -0.0568  0.3770
  990YOPC   D2A14032  11.180   1.138   7.589 -0.1863 -0.1433  0.3062
  990YOPC   C3A14033  11.033   0.986   8.025 -0.1068 -0.1227 -0.2832
  990YOPC   C4A14034  11.201   1.044   8.491  0.0692  0.0535 -0.2865
  990YOPC   C1B14035  10.716   1.040   7.350 -0.2688  0.1448  0.1820
  990YOPC   C2B14036  10.819   1.467   7.435 -0.1442  0.1376 -0.0563
  990YOPC   D3B14037  11.112   1.715   7.250 -0.0387 -0.4005 -0.0338
  990YOPC   C4B14038  11.357   2.044   7.438  0.0740 -0.3204 -0.1993
  991YOPC   NC314039   8.992  14.712   6.247  0.1485  0.1909 -0.2548
  991YOPC   PO414040   8.573  14.703   6.398 -0.0576  0.2325  0.2199
  991YOPC   GL114041   8.714  14.641   6.718 -0.0884 -0.0060 -0.1232
  991YOPC   GL214042   8.992  14.806   6.786  0.1559 -0.3269 -0.0463
  991YOPC   C1A14043   8.649  14.696   7.156 -0.0811  0.1602  0.1224
  991YOPC   D2A14044   8.702  14.663   7.504 -0.2999  0.2032 -0.0350
  991YOPC   C3A14045   8.622  14.939   7.894 -0.1389  0.1170  0.0898
  991YOPC   C4A14046   8.321  14.974   8.272  0.0888  0.0359 -0.1004
  991YOPC   C1B14047   9.141  14.809   7.246  0.1934  0.1873 -0.3732
  991YOPC   C2B14048   9.125  14.739   7.708  0.5796 -0.0863  0.2504
  991YOPC   D3B14049   8.950  14.464   7.969  0.0225 -0.1847  0.0799
  991YOPC   C4B14050   8.764  14.529   8.399  0.0778  0.0347  0.0084
  992YOPC   NC314051   0.965   2.623   6.499  0.4765  0.0526  0.0608
  992YOPC   PO414052   1.250   2.709   6.763 -0.1509 -0.0969  0.0175
  992YOPC   GL114053   1.171   2.526   7.070  0.0673 -0.2035 -0.1776
  992YOPC   GL214054   0.963   2.816   7.302 -0.1493  0.0633 -0.1709
  992YOPC   C1A14055   1.373   2.540   7.552 -0.1428 -0.0635  0.0323
  992YOPC   D2A14056   1.445   2.361   7.946  0.2593 -0.0422  0.2119
  992YOPC   C3A14057   1.189   2.163   8.290 -0.1441 -0.2307 -0.1593
  992YOPC   C4A14058   1.155   2.161   8.731 -0.2244  0.0655  0.1945
  992YOPC   C1B14059   1.037   2.776   7.795  0.2092  0.1464  0.0585
  992YOPC   C2B14060   1.120   2.916   8.250  0.2021  0.0043 -0.3025
  992YOPC   D3B14061   1.005   2.595   8.566 -0.0878  0.0576  0.0129
  992YOPC   C4B14062   0.618   2.453   8.678 -0.1222  0.0625  0.0127
  993YOPC   NC314063   4.535   7.655   5.698  0.1438 -0.0791  0.0652
  993YOPC   PO414064   4.201   7.407   5.809  0.1356  0.0537 -0.1039
  993YOPC   GL114065   4.080   7.305   6.225 -0.1033 -0.2007  0.1140
  993YOPC   GL214066   4.201   7.040   6.281 -0.0243  0.1803  0.1841
  993YOPC   C1A14067   3.993   7.591   6.506  0.0436  0.0309  0.1136
  993YOPC   D2A14068   4.244   7.906   6.761  0.0330 -0.1120  0.1792
  993YOPC   C3A14069   4.308   7.915   7.185 -0.0054 -0.1803 -0.1395
  993YOPC   C4A14070   4.249   7.894   7.540 -0.1056 -0.1683  0.1373
  993YOPC   C1B14071   4.080   7.126   6.692  0.1159  0.0125 -0.0284
  993YOPC   C2B14072   4.126   7.459   6.956  0.0289 -0.2623  0.0612
  993YOPC   D3B14073   4.193   7.434   7.370 -0.1356  0.0018  0.0171
  993YOPC   C4B14074   4.004   7.459   7.712  0.0106 -0.0056  0.1537
  994YOPC   NC314075   9.993   4.025   5.723  0.0272 -0.1715 -0.1115
  994YOPC   PO414076  10.396   3.800   5.963 -0.0157 -0.0153 -0.2706
  994YOPC   GL114077  10.392   3.926   6.404  0.0295  0.2428 -0.2877
  994YOPC   GL214078  10.087   3.810   6.582  0.0274  0.2254  0.1412
  994YOPC   C1A14079  10.701   3.937   6.812  0.1860  0.2025 -0.0553
  994YOPC   D2A14080  10.951   4.191   7.084  0.0650 -0.2028 -0.1295
  994YOPC   C3A14081  10.908   4.520   7.414 -0.1003 -0.3905 -0.0085
  994YOPC   C4A14082  11.008   4.502   7.869  0.0662 -0.1170  0.1588
  994YOPC   C1B14083  10.087   3.833   7.068 -0.1238  0.1330 -0.0564
  994YOPC   C2B14084  10.132   3.813   7.553 -0.1854 -0.3339  0.2040
  994YOPC   D3B14085   9.939   3.540   7.830 -0.0764  0.2461  0.1987
  994YOPC   C4B14086  10.042   3.230   8.259  0.2160  0.2551 -0.1101
  995YOPC   NC314087  16.859   0.015   6.716  0.0261 -0.2685  0.0131
  995YOPC   PO414088  16.523   0.233   6.515 -0.0906  0.0674 -0.1041
  995YOPC   GL114089  16.166   0.167   6.809 -0.4420  0.3544 -0.1191
  995YOPC   GL214090  15.962  -0.140   6.987  0.1324  0.0388 -0.1800
  995YOPC   C1A14091  16.141   0.194   7.273 -0.2033 -0.1897 -0.3802
  995YOPC   D2A14092  16.114   0.089   7.695  0.0069 -0.1407  0.1735
  995YOPC   C3A14093  15.836   0.235   8.101  0.3943  0.1286 -0.0337
  995YOPC   C4A14094  15.575   0.225   8.484 -0.0535 -0.0139  0.1051
  995YOPC   C1B14095  15.842  -0.217   7.346 -0.0131 -0.1254  0.1810
  995YOPC   C2B14096  15.831  -0.292   7.836  0.0608 -0.1458 -0.1514
  995YOPC   D3B14097  15.641  -0.239   8.264 -0.0032  0.2784  0.1748
  995YOPC   C4B14098  15.349  -0.352   8.516  0.2022 -0.1562 -0.2681
  996YOPC   NC314099   5.193  17.210   6.485 -0.2485  0.1091 -0.1284
  996YOPC   PO414100   4.868  16.800   6.423 -0.1505  0.1400  0.1537
  996YOPC   GL114101   4.865  16.861   6.877  0.0048  0.2819 -0.1948
  996YOPC   GL214102   4.778  16.730   7.108 -0.0749 -0.0365  0.1874
  996YOPC   C1A14103   5.011  17.190   7.279  0.0120 -0.0078 -0.1537
  996YOPC   D2A14104   5.039  17.521   7.566  0.0052  0.0667  0.1150
  996YOPC   C3A14105   4.993  17.579   8.027 -0.3941  0.1849  0.0985
  996YOPC   C4A14106   4.821  17.432   8.461 -0.0624  0.2283 -0.1660
  996YOPC   C1B14107   4.761  16.471   7.416 -0.0646 -0.1493 -0.0251
  996YOPC   C2B14108   4.735  16.365   7.894 -0.0160 -0.3636 -0.0900
  996YOPC   D3B14109   5.000  16.639   8.187 -0.0946  0.2818 -0.0067
  996YOPC   C4B14110   4.992  17.005   8.390 -0.1191  0.0360 -0.3874
  997YOPC   NC314111   7.368   6.833   5.913  0.1416  0.0477  0.3208
  997YOPC   PO414112   7.552   7.169   6.224 -0.1595 -0.0980  0.4186
  997YOPC   GL114113   7.656   7.108   6.576 -0.1938 -0.0386 -0.0949
  997YOPC   GL214114   7.385   7.217   6.706  0.0077 -0.1640 -0.2821
  997YOPC   C1A14115   7.810   7.080   6.965  0.0519  0.1030 -0.1910
  997YOPC   D2A14116   8.033   7.251   7.294  0.0272  0.0633  0.1637
  997YOPC   C3A14117   8.165   7.142   7.734 -0.3926 -0.0235 -0.1347
  997YOPC   C4A14118   8.460   7.193   8.133 -0.0405  0.2380  0.1069
  997YOPC   C1B14119   7.323   7.215   7.092  0.1423  0.0493  0.1914
  997YOPC   C2B14120   7.552   7.198   7.416 -0.1081 -0.1241  0.3347
  997YOPC   D3B14121   7.889   6.822   7.402  0.0547  0.0978  0.0324
  997YOPC   C4B14122   8.269   6.776   7.478  0.1745 -0.0573 -0.1381
  998YOPC   NC314123  17.288   4.997   5.970 -0.0387 -0.0518 -0.3890
  998YOPC   PO414124  17.401   5.503   5.845  0.1640  0.2742  0.2887
  998YOPC   GL114125  17.333   5.566   6.298 -0.1453  0.1402 -0.3768
  998YOPC   GL214126  17.264   5.888   6.332 -0.1082  0.0083  0.0838
  998YOPC   C1A14127  17.553   5.605   6.691  0.1307 -0.2463  0.1098
  998YOPC   D2A14128  17.732   5.500   7.139 -0.1244  0.1333  0.0098
  998YOPC   C3A14129  17.781   5.809   7.419 -0.0540 -0.0091 -0.1039
  998YOPC   C4A14130  17.929   5.983   7.841 -0.0595  0.1279  0.1012
  998YOPC   C1B14131  17.382   6.078   6.732 -0.2614 -0.1221  0.0740
  998YOPC   C2B14132  17.519   5.910   7.034  0.1241  0.3278 -0.2823
  998YOPC   D3B14133  17.293   5.721   7.452  0.0640  0.1271 -0.1088
  998YOPC   C4B14134  17.504   5.601   7.871  0.0786 -0.2853 -0.0765
  999YOPC   NC314135   6.496   6.866   5.976 -0.1288 -0.2341  0.1581
  999YOPC   PO414136   6.925   7.136   6.094  0.1382  0.2244  0.1729
  999YOPC   GL114137   6.834   7.273   6.538  0.2891  0.3480 -0.1071
  999YOPC   GL214138   6.833   7.006   6.852  0.2070  0.0892 -0.1126
  999YOPC   C1A14139   6.793   7.442   7.027  0.0197 -0.2301  0.2126
  999YOPC   D2A14140   6.849   7.333   7.472  0.1924 -0.1541 -0.1190
  999YOPC   C3A14141   7.201   7.227   7.743  0.0924  0.2647 -0.0879
  999YOPC   C4A14142   7.186   6.907   8.090  0.3522  0.1880 -0.0346
  999YOPC   C1B14143   6.866   6.872   7.218 -0.3171  0.2530  0.2549
  999YOPC   C2B14144   6.901   6.841   7.605 -0.1678 -0.1433  0.1346
  999YOPC   D3B14145   6.735   7.060   7.922  0.0780 -0.0853 -0.1624
  999YOPC   C4B14146   6.694   6.952   8.405  0.0183 -0.0927  0.0692
 1000YOPC   NC314147   8.075   5.821   6.297  0.2292 -0.0078 -0.0061
 1000YOPC   PO414148   7.826   6.189   6.338  0.1274  0.1205  0.0235
 1000YOPC   GL114149   8.005   6.201   6.670  0.1206 -0.3027  0.0727
 1000YOPC   GL214150   7.822   6.084   6.893  0.0823  0.3516 -0.0578
 1000YOPC   C1A14151   8.152   6.303   7.167  0.3331  0.1981 -0.0138
 1000YOPC   D2A14152   8.388   6.266   7.538 -0.1253  0.3516  0.2893
 1000YOPC   C3A14153   8.231   6.317   7.886 -0.1959 -0.1610 -0.0953
 1000YOPC   C4A14154   8.345   6.312   8.317  0.1551  0.1696  0.1698
 1000YOPC   C1B14155   7.690   5.901   7.229 -0.0195  0.3437  0.2343
 1000YOPC   C2B14156   7.966   5.996   7.560 -0.1057 -0.4695  0.0423
 1000YOPC   D3B14157   8.084   5.907   8.026 -0.1238  0.0364  0.0168
 1000YOPC   C4B14158   7.793   5.708   8.255  0.2529  0.0038  0.0851
 1001YOPC   NC314159   2.582  16.148   6.659 -0.1054 -0.1498 -0.0222
 1001YOPC   PO414160   2.134  16.355   6.636  0.0565  0.3125  0.0819
 1001YOPC   GL114161   1.862  16.314   6.967 -0.2473 -0.0732 -0.0964
 1001YOPC   GL214162   1.723  16.601   6.951  0.0016 -0.0516  0.2129
 1001YOPC   C1A14163   1.903  16.268   7.500  0.0322 -0.1465 -0.1134
 1001YOPC   D2A14164   2.136  16.238   7.918  0.3031 -0.2411  0.0006
 1001YOPC   C3A14165   2.003  16.013   8.271  0.1435 -0.0733  0.2971
 1001YOPC   C4A14166   1.807  15.787   8.560 -0.0871  0.0796  0.1065
 1001YOPC   C1B14167   1.632  16.664   7.362 -0.1899 -0.3258 -0.1334
 1001YOPC   C2B14168   1.490  16.535   7.795  0.0657 -0.0244  0.1238
 1001YOPC   D3B14169   1.411  16.635   8.240 -0.2722 -0.0127 -0.1044
 1001YOPC   C4B14170   1.406  16.764   8.681 -0.1672  0.1581  0.0423
 1002YOPC   NC314171   7.050  12.247   5.874 -0.2630  0.0720  0.1678
 1002YOPC   PO414172   7.002  12.359   6.270 -0.1867  0.0147 -0.2775
 1002YOPC   GL114173   6.957  12.282   6.750  0.1672 -0.0093 -0.3507
 1002YOPC   GL214174   7.287  12.215   6.893  0.0865  0.2408  0.2287
 1002YOPC   C1A14175   6.694  12.085   7.114 -0.0036  0.5365 -0.2878
 1002YOPC   D2A14176   6.316  12.015   7.496  0.0919 -0.0454  0.0888
 1002YOPC   C3A14177   6.321  11.919   7.915 -0.0932  0.1617 -0.3999
 1002YOPC   C4A14178   6.106  11.990   8.225 -0.2390 -0.1463 -0.0448
 1002YOPC   C1B14179   7.161  12.249   7.273  0.1820 -0.2240 -0.2676
 1002YOPC   C2B14180   6.804  12.235   7.670 -0.0460  0.5493 -0.0523
 1002YOPC   D3B14181   6.758  12.626   7.913 -0.0048 -0.0786 -0.0307
 1002YOPC   C4B14182   6.699  12.723   8.315  0.1715  0.0115  0.1787
 1003YOPC   NC314183   1.852   1.722   6.242 -0.2052 -0.0801  0.1888
 1003YOPC   PO414184   1.539   1.497   6.327  0.3584  0.2266 -0.3347
 1003YOPC   GL114185   1.353   1.296   6.729 -0.0628  0.1444 -0.0612
 1003YOPC   GL214186   1.182   1.400   7.035 -0.0148  0.1263 -0.0510
 1003YOPC   C1A14187   1.479   1.055   7.145  0.0814 -0.2017  0.1009
 1003YOPC   D2A14188   1.507   1.147   7.564  0.0116 -0.2246  0.1064
 1003YOPC   C3A14189   1.814   1.527   7.756  0.0163 -0.1136 -0.2578
 1003YOPC   C4A14190   2.147   1.794   7.905  0.1773  0.1902  0.0005
 1003YOPC   C1B14191   1.166   1.847   7.072 -0.1542  0.0679  0.0034
 1003YOPC   C2B14192   1.243   2.040   7.496 -0.2817 -0.0097 -0.1607
 1003YOPC   D3B14193   0.979   2.193   7.849 -0.1312  0.2327 -0.3044
 1003YOPC   C4B14194   0.799   2.466   8.140  0.0324 -0.1266 -0.0095
 1004YOPC   NC314195  12.456   8.332   6.076  0.2240 -0.1233 -0.0200
 1004YOPC   PO414196  11.997   8.238   6.146 -0.0007  0.1467 -0.2192
 1004YOPC   GL114197  12.186   8.535   6.508  0.0618 -0.0787 -0.1700
 1004YOPC   GL214198  12.440   8.621   6.500 -0.0077 -0.0475  0.0908
 1004YOPC   C1A14199  12.025   8.659   6.862 -0.1987 -0.0156  0.0602
 1004YOPC   D2A14200  12.107   8.640   7.261  0.2214  0.0578 -0.1505
 1004YOPC   C3A14201  11.878   8.418   7.606 -0.1727 -0.2200 -0.0772
 1004YOPC   C4A14202  11.882   8.349   7.975  0.1235  0.0668  0.1180
 1004YOPC   C1B14203  12.566   8.539   6.942 -0.0972 -0.0705 -0.0010
 1004YOPC   C2B14204  12.667   8.479   7.384  0.3206  0.0723 -0.0932
 1004YOPC   D3B14205  12.373   8.471   7.663  0.1716 -0.2557 -0.0423
 1004YOPC   C4B14206  12.123   8.872   7.725 -0.1907  0.1639 -0.1979
 1005YOPC   NC314207   7.541  17.244   5.994  0.2167  0.2799  0.1032
 1005YOPC   PO414208   7.603  16.851   6.121  0.1015 -0.0902 -0.1735
 1005YOPC   GL114209   8.008  16.864   6.420 -0.1661 -0.2154 -0.0052
 1005YOPC   GL214210   8.165  16.656   6.561 -0.2169 -0.0121 -0.2037
 1005YOPC   C1A14211   8.180  17.078   6.805 -0.1565 -0.0337  0.0685
 1005YOPC   D2A14212   8.313  17.396   6.988 -0.0755 -0.5085 -0.2457
 1005YOPC   C3A14213   8.044  17.577   7.322  0.1783  0.0423 -0.2834
 1005YOPC   C4A14214   7.681  17.468   7.770 -0.1201 -0.0363  0.3040
 1005YOPC   C1B14215   8.215  16.569   7.021 -0.2427 -0.0130 -0.4516
 1005YOPC   C2B14216   8.098  16.520   7.501  0.3064 -0.0393  0.0513
 1005YOPC   D3B14217   7.991  16.553   7.920 -0.1850 -0.0843 -0.3496
 1005YOPC   C4B14218   8.247  16.761   8.275 -0.2838 -0.1447 -0.2270
 1006YOPC   NC314219  15.514   9.623   5.125 -0.0704 -0.0097  0.0335
 1006YOPC   PO414220  15.587   9.434   5.460 -0.2122 -0.4427 -0.0627
 1006YOPC   GL114221  15.629   9.573   5.826  0.0384  0.0028 -0.0912
 1006YOPC   GL214222  15.900   9.438   5.908  0.1698 -0.0359  0.3112
 1006YOPC   C1A14223  15.513   9.654   6.281  0.2172 -0.0733 -0.3726
 1006YOPC   D2A14224  15.217   9.615   6.532  0.0632 -0.1256  0.1540
 1006YOPC   C3A14225  14.948   9.855   6.768  0.0511  0.0938  0.0226
 1006YOPC   C4A14226  14.847  10.300   6.886  0.2319  0.1696  0.1534
 1006YOPC   C1B14227  15.991   9.737   6.253 -0.3984  0.0928  0.0009
 1006YOPC   C2B14228  15.798   9.995   6.694 -0.3579  0.2852  0.4317
 1006YOPC   D3B14229  15.559   9.776   6.855 -0.0230  0.0664 -0.4820
 1006YOPC   C4B14230  15.262   9.579   7.042  0.0618  0.0960 -0.2577
 1007YOPC   NC314231   2.227  13.221   6.034  0.1693  0.2775 -0.0054
 1007YOPC   PO414232   1.797  13.356   5.932  0.1582 -0.0262  0.1024
 1007YOPC   GL114233   2.036  13.474   6.410 -0.0543  0.0689  0.0578
 1007YOPC   GL214234   1.841  13.360   6.736  0.2745 -0.1132  0.0573
 1007YOPC   C1A14235   2.257  13.643   6.733  0.0602  0.2268 -0.0921
 1007YOPC   D2A14236   2.626  13.585   6.785 -0.1427  0.1851 -0.1186
 1007YOPC   C3A14237   2.825  13.942   6.958 -0.0742  0.2313  0.1094
 1007YOPC   C4A14238   3.325  13.866   6.936  0.0983  0.0695  0.0547
 1007YOPC   C1B14239   2.015  13.343   7.140 -0.1263  0.0669 -0.1432
 1007YOPC   C2B14240   2.045  13.100   7.447 -0.4475 -0.0623 -0.1784
 1007YOPC   D3B14241   2.252  12.935   7.749 -0.1860 -0.0584  0.0757
 1007YOPC   C4B14242   2.285  12.804   8.169 -0.2778 -0.0270  0.0877
 1008YOPC   NC314243   4.241  12.138   6.348 -0.0561  0.2434 -0.0628
 1008YOPC   PO414244   4.291  12.562   6.258  0.1290  0.0260 -0.0987
 1008YOPC   GL114245   4.399  12.717   6.609 -0.0986 -0.0637  0.1449
 1008YOPC   GL214246   4.149  12.882   6.756 -0.0908  0.0866 -0.0023
 1008YOPC   C1A14247   4.562  12.589   7.020 -0.2163  0.1383 -0.1469
 1008YOPC   D2A14248   4.804  12.597   7.464  0.1285  0.1704  0.2846
 1008YOPC   C3A14249   4.758  12.793   7.890 -0.2277  0.0138  0.3762
 1008YOPC   C4A14250   4.738  12.709   8.290  0.4314  0.3523  0.1268
 1008YOPC   C1B14251   4.095  12.776   7.114 -0.1322  0.0948  0.1048
 1008YOPC   C2B14252   4.264  12.657   7.499 -0.2545  0.1491  0.2416
 1008YOPC   D3B14253   4.459  12.268   7.494  0.0476 -0.2545 -0.1836
 1008YOPC   C4B14254   4.439  11.902   7.437 -0.0154 -0.1713  0.0783
 1009YOPC   NC314255   1.284   4.718   5.734  0.0832  0.1969 -0.3168
 1009YOPC   PO414256   0.910   4.632   5.939 -0.2613 -0.1295  0.3667
 1009YOPC   GL114257   0.714   4.487   6.275 -0.1365  0.2688 -0.1624
 1009YOPC   GL214258   0.909   4.208   6.454  0.0624  0.1129  0.1765
 1009YOPC   C1A14259   0.416   4.701   6.622  0.0187 -0.2670 -0.1532
 1009YOPC   D2A14260   0.259   4.601   6.972  0.3444  0.3054  0.1457
 1009YOPC   C3A14261   0.356   4.365   7.286 -0.0600  0.1278 -0.0829
 1009YOPC   C4A14262   0.232   4.047   7.458 -0.0745 -0.1773  0.1865
 1009YOPC   C1B14263   0.852   4.593   6.811  0.0221 -0.0747  0.1476
 1009YOPC   C2B14264   0.655   4.875   7.170  0.2798 -0.0639  0.0173
 1009YOPC   D3B14265   0.835   5.157   7.529  0.1031 -0.0385 -0.0640
 1009YOPC   C4B14266   0.873   5.470   7.831 -0.2669  0.1785  0.2060
 1010YOPC   NC314267  17.219   2.465   6.469  0.1754 -0.1040  0.1659
 1010YOPC   PO414268  17.052   2.080   6.235 -0.0474  0.0766  0.2358
 1010YOPC   GL114269  16.738   2.198   6.629  0.2422  0.2144 -0.2767
 1010YOPC   GL214270  16.379   2.324   6.593 -0.0032 -0.0798 -0.2773
 1010YOPC   C1A14271  16.628   2.063   7.025 -0.2483 -0.0417 -0.1892
 1010YOPC   D2A14272  16.588   2.045   7.383 -0.0589 -0.2916  0.0376
 1010YOPC   C3A14273  16.277   1.986   7.740 -0.1253 -0.0845  0.1951
 1010YOPC   C4A14274  16.262   2.010   8.180  0.1708  0.3883 -0.1785
 1010YOPC   C1B14275  16.291   2.401   7.063 -0.0721  0.1474  0.0768
 1010YOPC   C2B14276  16.334   2.465   7.503  0.0552 -0.0126 -0.0593
 1010YOPC   D3B14277  16.483   2.465   7.922  0.0638 -0.2264 -0.1782
 1010YOPC   C4B14278  16.835   2.553   8.343 -0.1563 -0.1305  0.2080
 1011YOPC   NC314279   6.198  15.467   6.134  0.0492  0.1826 -0.0699
 1011YOPC   PO414280   6.142  15.888   6.338  0.2164 -0.2140 -0.0111
 1011YOPC   GL114281   6.122  16.118   6.695  0.0446 -0.2319 -0.2636
 1011YOPC   GL214282   5.732  16.111   6.670 -0.0711 -0.1009 -0.0524
 1011YOPC   C1A14283   6.344  16.034   7.029 -0.1718 -0.0674 -0.2479
 1011YOPC   D2A14284   6.402  15.923   7.469 -0.0757  0.0399 -0.1071
 1011YOPC   C3A14285   6.295  16.149   7.887 -0.2243  0.1817 -0.1322
 1011YOPC   C4A14286   6.257  16.375   8.271 -0.1654  0.0385  0.1517
 1011YOPC   C1B14287   5.850  16.106   7.162 -0.0550  0.1136  0.0552
 1011YOPC   C2B14288   5.907  16.045   7.601 -0.0178 -0.0530 -0.5097
 1011YOPC   D3B14289   5.837  16.399   7.892  0.0783 -0.0352  0.1054
 1011YOPC   C4B14290   5.460  16.654   7.965  0.0402  0.5395  0.1267
 1012YOPC   NC314291   7.319  12.803   6.134 -0.0417  0.2527 -0.0741
 1012YOPC   PO414292   7.489  12.412   6.355  0.1458 -0.1656  0.2515
 1012YOPC   GL114293   7.720  12.505   6.698  0.0005  0.0060  0.2462
 1012YOPC   GL214294   8.009  12.738   6.678  0.1709  0.3190  0.2340
 1012YOPC   C1A14295   7.681  12.534   7.082  0.0648  0.0048 -0.0199
 1012YOPC   D2A14296   7.512  12.477   7.529 -0.2960 -0.0132 -0.0779
 1012YOPC   C3A14297   7.643  12.528   7.913 -0.2995 -0.1215  0.0975
 1012YOPC   C4A14298   7.740  12.421   8.280 -0.1795  0.0739  0.1873
 1012YOPC   C1B14299   8.076  12.882   6.971  0.2535  0.0436  0.0821
 1012YOPC   C2B14300   8.146  12.906   7.430  0.1958  0.1260 -0.1094
 1012YOPC   D3B14301   8.145  13.289   7.754 -0.5658  0.0257  0.0404
 1012YOPC   C4B14302   7.917  13.563   8.006 -0.1294  0.0081 -0.1082
 1013YOPC   NC314303   3.303   2.614   6.263 -0.1837  0.2712 -0.0750
 1013YOPC   PO414304   3.106   2.203   6.412  0.0200  0.2303 -0.1208
 1013YOPC   GL114305   3.005   2.088   6.942 -0.1960 -0.1195 -0.4119
 1013YOPC   GL214306   2.950   1.707   6.905  0.0500  0.1471  0.0025
 1013YOPC   C1A14307   3.146   1.933   7.360  0.2061  0.0778  0.0272
 1013YOPC   D2A14308   3.412   1.958   7.541 -0.1862 -0.0293  0.0205
 1013YOPC   C3A14309   3.486   2.052   7.955  0.1517 -0.2173  0.0484
 1013YOPC   C4A14310   3.916   1.995   8.145  0.2639 -0.2674 -0.0194
 1013YOPC   C1B14311   2.829   1.555   7.295  0.3117 -0.1742  0.2731
 1013YOPC   C2B14312   2.599   1.782   7.551 -0.1391 -0.0704  0.1429
 1013YOPC   D3B14313   2.676   1.649   7.960  0.0639  0.1694  0.0636
 1013YOPC   C4B14314   2.880   1.570   8.268 -0.2411 -0.0634 -0.1401
 1014YOPC   NC314315   5.550   5.602   6.112  0.0383 -0.0058  0.1649
 1014YOPC   PO414316   5.920   5.742   6.268  0.4079 -0.3941  0.2064
 1014YOPC   GL114317   5.878   5.924   6.680  0.1734 -0.1084  0.1368
 1014YOPC   GL214318   5.527   5.849   6.651  0.1641 -0.2180  0.1188
 1014YOPC   C1A14319   5.861   6.054   7.104 -0.1121  0.3598 -0.3953
 1014YOPC   D2A14320   5.717   6.074   7.507 -0.0940  0.0812  0.1537
 1014YOPC   C3A14321   5.679   5.659   7.617  0.0397  0.1530  0.1114
 1014YOPC   C4A14322   5.462   5.527   7.960  0.0434 -0.4189  0.2960
 1014YOPC   C1B14323   5.634   5.591   7.052  0.0864  0.2157  0.2765
 1014YOPC   C2B14324   5.844   5.341   7.304 -0.0380  0.0690 -0.0851
 1014YOPC   D3B14325   5.719   5.190   7.692 -0.2235 -0.1386 -0.0906
 1014YOPC   C4B14326   5.855   4.962   7.980  0.0917  0.3077  0.2826
 1015YOPC   NC314327   2.558  17.626   6.493  0.2633  0.1634 -0.0991
 1015YOPC   PO414328   2.746  17.740   6.785 -0.0864 -0.1478  0.0204
 1015YOPC   GL114329   2.685  17.488   7.108  0.0267  0.0210  0.1439
 1015YOPC   GL214330   2.950  17.351   7.163 -0.1049  0.2146 -0.2863
 1015YOPC   C1A14331   2.613  17.455   7.615 -0.0125  0.2186 -0.0518
 1015YOPC   D2A14332   2.695  17.315   8.053  0.1108  0.0720 -0.2075
 1015YOPC   C3A14333   2.559  17.572   8.317  0.1710  0.3159  0.1746
 1015YOPC   C4A14334   2.577  17.823   8.658  0.5002  0.0195  0.2170
 1015YOPC   C1B14335   2.992  17.140   7.531 -0.1109  0.1294 -0.0866
 1015YOPC   C2B14336   3.189  17.279   7.865 -0.0535 -0.3716 -0.0573
 1015YOPC   D3B14337   3.146  17.224   8.345 -0.0815  0.1879 -0.3406
 1015YOPC   C4B14338   2.876  17.337   8.664  0.0176 -0.1261 -0.1325
 1016YOPC   NC314339   6.807   0.856   6.153 -0.1957 -0.1444  0.0740
 1016YOPC   PO414340   6.414   0.893   6.210 -0.1864  0.0923 -0.0568
 1016YOPC   GL114341   6.522   0.983   6.549  0.3069  0.0575 -0.0699
 1016YOPC   GL214342   6.792   0.928   6.631 -0.0173 -0.3338  0.1957
 1016YOPC   C1A14343   6.456   1.175   6.915  0.5051 -0.0117 -0.0707
 1016YOPC   D2A14344   6.634   1.162   7.342  0.0034 -0.0463  0.0754
 1016YOPC   C3A14345   6.655   1.177   7.664  0.1228 -0.1552  0.1105
 1016YOPC   C4A14346   6.646   0.941   7.996  0.0346  0.0027 -0.2426
 1016YOPC   C1B14347   6.874   0.842   7.078 -0.0848  0.0295 -0.0813
 1016YOPC   C2B14348   6.880   0.689   7.555 -0.0655 -0.3252 -0.1166
 1016YOPC   D3B14349   7.125   0.421   7.631  0.3968  0.1797  0.3183
 1016YOPC   C4B14350   7.200   0.060   7.816  0.1999 -0.1405 -0.1860
 1017YOPC   NC314351  13.780   8.778   5.807  0.0233  0.0986  0.0873
 1017YOPC   PO414352  13.267   8.747   5.867 -0.0834 -0.0436  0.4214
 1017YOPC   GL114353  13.389   8.863   6.288  0.1793  0.2410 -0.0295
 1017YOPC   GL214354  13.669   9.169   6.130 -0.1584 -0.1153  0.1289
 1017YOPC   C1A14355  13.580   9.047   6.660  0.3803  0.0877 -0.0265
 1017YOPC   D2A14356  13.438   9.015   7.207 -0.2769 -0.3317  0.1981
 1017YOPC   C3A14357  13.494   9.179   7.623  0.1321 -0.0878 -0.0380
 1017YOPC   C4A14358  13.435   9.272   8.017 -0.0006 -0.0954 -0.1773
 1017YOPC   C1B14359  13.958   9.376   6.457  0.2188  0.0018  0.1295
 1017YOPC   C2B14360  14.278   9.301   6.758 -0.1838 -0.2484 -0.0262
 1017YOPC   D3B14361  14.366   9.200   7.174 -0.1009 -0.4346 -0.2651
 1017YOPC   C4B14362  14.332   9.037   7.580  0.2156  0.1352 -0.0208
 1018YOPC   NC314363   0.067   7.527   5.591  0.1376  0.2903 -0.4088
 1018YOPC   PO414364   0.391   7.210   5.426  0.3197 -0.1532 -0.3953
 1018YOPC   GL114365   0.320   7.215   5.894 -0.1003 -0.0384 -0.1765
 1018YOPC   GL214366   0.372   6.958   6.126 -0.1206 -0.3334 -0.0112
 1018YOPC   C1A14367   0.244   7.340   6.392  0.0279 -0.2878  0.1599
 1018YOPC   D2A14368   0.485   7.288   6.843 -0.2057 -0.2881 -0.1769
 1018YOPC   C3A14369   0.401   7.582   7.130  0.0085 -0.0855  0.1308
 1018YOPC   C4A14370   0.513   7.636   7.574 -0.0714  0.0728 -0.0761
 1018YOPC   C1B14371   0.669   6.621   6.126  0.0336  0.1650  0.0560
 1018YOPC   C2B14372   1.063   6.275   6.177  0.1038 -0.0554  0.1374
 1018YOPC   D3B14373   0.975   5.895   6.392 -0.0241 -0.2342 -0.1465
 1018YOPC   C4B14374   1.074   5.561   6.573  0.0066  0.1682 -0.0948
 1019YOPC   NC314375   5.668  10.108   5.730 -0.1659  0.2329  0.1326
 1019YOPC   PO414376   5.917  10.222   6.060  0.3617 -0.1900 -0.4047
 1019YOPC   GL114377   5.862  10.145   6.474  0.0192  0.0112  0.1027
 1019YOPC   GL214378   6.101   9.984   6.581 -0.2307 -0.1434  0.0745
 1019YOPC   C1A14379   5.700  10.152   6.864 -0.3173  0.0471 -0.0461
 1019YOPC   D2A14380   5.849  10.143   7.288  0.1689  0.3106  0.0821
 1019YOPC   C3A14381   5.955   9.849   7.453 -0.0506  0.0966  0.0915
 1019YOPC   C4A14382   5.886   9.712   7.810 -0.1119  0.0687  0.0156
 1019YOPC   C1B14383   6.272  10.201   6.918  0.0027  0.0356 -0.0429
 1019YOPC   C2B14384   6.490  10.436   7.170  0.0826  0.0540  0.1482
 1019YOPC   D3B14385   6.245  10.396   7.521 -0.6799  0.2030  0.1939
 1019YOPC   C4B14386   6.112  10.187   7.845  0.2198  0.2807 -0.0877
 1020YOPC   NC314387   0.020   9.100   5.813  0.0548 -0.2993 -0.0703
 1020YOPC   PO414388  -0.330   9.058   5.928  0.3232 -0.0831 -0.1622
 1020YOPC   GL114389  -0.480   8.737   6.264  0.1151  0.3020 -0.0586
 1020YOPC   GL214390  -0.747   8.803   6.324  0.0221  0.2067 -0.1716
 1020YOPC   C1A14391  -0.472   8.376   6.516  0.0376 -0.1390  0.1708
 1020YOPC   D2A14392  -0.414   8.351   6.967  0.0773  0.1735 -0.0856
 1020YOPC   C3A14393  -0.571   8.563   7.377  0.1956  0.1133  0.0815
 1020YOPC   C4A14394  -0.902   8.862   7.626  0.1906  0.1748  0.0031
 1020YOPC   C1B14395  -0.566   8.950   6.750 -0.0730 -0.1106 -0.0392
 1020YOPC   C2B14396  -0.622   9.082   7.173  0.0077 -0.4377  0.2083
 1020YOPC   D3B14397  -0.831   9.345   7.475 -0.2326  0.0318 -0.1989
 1020YOPC   C4B14398  -1.002   9.546   7.907 -0.0432 -0.0222  0.0362
 1021YOPC   NC314399  12.634   4.434   5.830 -0.1912  0.2337 -0.0231
 1021YOPC   PO414400  12.736   4.047   5.769 -0.0706  0.3173  0.3027
 1021YOPC   GL114401  12.653   4.046   6.163  0.1306  0.2328 -0.3048
 1021YOPC   GL214402  12.457   3.934   6.368 -0.0092 -0.1325  0.0254
 1021YOPC   C1A14403  12.611   4.366   6.551 -0.2180  0.0590  0.1662
 1021YOPC   D2A14404  12.592   4.378   7.022 -0.0544  0.0356 -0.0170
 1021YOPC   C3A14405  12.948   4.485   7.210 -0.1766 -0.1782 -0.1520
 1021YOPC   C4A14406  13.390   4.667   7.300  0.1478 -0.0481 -0.1590
 1021YOPC   C1B14407  12.578   3.918   6.750  0.0883 -0.2352  0.0269
 1021YOPC   C2B14408  12.550   3.928   7.240 -0.1130 -0.0200  0.3301
 1021YOPC   D3B14409  12.231   3.969   7.493 -0.3216 -0.0826  0.0736
 1021YOPC   C4B14410  12.058   3.878   7.903  0.0286 -0.2110  0.3414
 1022YOPC   NC314411  13.968  14.498   6.090 -0.1239 -0.0452  0.1430
 1022YOPC   PO414412  14.042  14.152   6.271 -0.3600 -0.1387  0.1147
 1022YOPC   GL114413  14.125  14.186   6.739  0.0563  0.3579 -0.0229
 1022YOPC   GL214414  14.418  14.258   6.764  0.0977 -0.1246  0.2669
 1022YOPC   C1A14415  14.070  13.953   7.178  0.2933 -0.0680 -0.0668
 1022YOPC   D2A14416  14.071  13.734   7.502  0.0723 -0.1812 -0.0080
 1022YOPC   C3A14417  14.156  13.881   7.927  0.1843  0.1348  0.1943
 1022YOPC   C4A14418  14.294  13.857   8.348  0.1952 -0.1640 -0.2447
 1022YOPC   C1B14419  14.346  14.423   7.121  0.0035  0.1873  0.0361
 1022YOPC   C2B14420  14.280  14.312   7.566  0.1579  0.0277 -0.0369
 1022YOPC   D3B14421  14.088  14.428   7.995 -0.0226 -0.0664  0.3070
 1022YOPC   C4B14422  14.211  14.491   8.403  0.0644  0.0511 -0.2856
 1023YOPC   NC314423   4.870  14.431   6.240  0.1091 -0.2628  0.0080
 1023YOPC   PO414424   4.998  14.005   6.302  0.2863  0.0764  0.0231
 1023YOPC   GL114425   5.234  14.130   6.602  0.2973 -0.2354  0.2310
 1023YOPC   GL214426   5.303  13.877   6.863 -0.1784  0.1804  0.0784
 1023YOPC   C1A14427   5.221  14.292   7.030 -0.1897  0.1703 -0.1296
 1023YOPC   D2A14428   5.302  14.310   7.470  0.0138 -0.0913 -0.0505
 1023YOPC   C3A14429   5.409  14.040   7.823 -0.0893  0.1046  0.0216
 1023YOPC   C4A14430   5.688  13.924   8.079  0.0217 -0.3951 -0.0281
 1023YOPC   C1B14431   5.355  13.875   7.250  0.0091 -0.0166 -0.2405
 1023YOPC   C2B14432   5.346  13.563   7.545 -0.1006 -0.2479  0.1565
 1023YOPC   D3B14433   5.445  13.515   7.896 -0.0174  0.1014 -0.0041
 1023YOPC   C4B14434   5.584  13.508   8.348  0.1521 -0.0147  0.3380
 1024YOPC   NC314435   3.070   1.513   6.098  0.1067 -0.1503  0.1206
 1024YOPC   PO414436   3.198   1.223   6.507  0.4542  0.0074 -0.1734
 1024YOPC   GL114437   3.222   1.059   6.842 -0.2502  0.3206 -0.1625
 1024YOPC   GL214438   2.806   1.055   6.995 -0.2058  0.0568  0.3133
 1024YOPC   C1A14439   3.495   0.885   7.154  0.0820  0.0467 -0.0932
 1024YOPC   D2A14440   3.604   0.728   7.515 -0.1731 -0.2070 -0.2122
 1024YOPC   C3A14441   3.538   0.899   7.887 -0.2432 -0.2174  0.1655
 1024YOPC   C4A14442   3.719   1.198   8.078 -0.1174  0.1096 -0.1318
 1024YOPC   C1B14443   2.953   1.077   7.399  0.1712 -0.0946 -0.2282
 1024YOPC   C2B14444   2.938   1.148   7.782  0.1508 -0.1368 -0.1237
 1024YOPC   D3B14445   3.196   1.173   8.117  0.2575 -0.2502 -0.2722
 1024YOPC   C4B14446   3.282   1.444   8.589 -0.0775 -0.0903  0.1779
 1025YOPC   NC314447   2.264  11.285   6.234 -0.3216 -0.0756 -0.0266
 1025YOPC   PO414448   1.885  11.225   6.224  0.1844 -0.1243 -0.0506
 1025YOPC   GL114449   1.995  11.132   6.653  0.0886  0.2120 -0.1471
 1025YOPC   GL214450   2.113  10.828   6.569  0.0479 -0.0691 -0.0942
 1025YOPC   C1A14451   1.987  11.188   7.106 -0.3940  0.1986  0.0626
 1025YOPC   D2A14452   1.845  10.928   7.387  0.1900  0.4192  0.1336
 1025YOPC   C3A14453   1.996  10.879   7.707  0.0605  0.0975 -0.1447
 1025YOPC   C4A14454   2.219  10.692   8.080 -0.2088  0.0032 -0.1865
 1025YOPC   C1B14455   2.077  10.693   6.988 -0.1886  0.3311  0.2075
 1025YOPC   C2B14456   2.242  10.460   7.206 -0.3444  0.1178 -0.0881
 1025YOPC   D3B14457   2.245  10.426   7.629  0.0031 -0.2816 -0.0332
 1025YOPC   C4B14458   2.469  10.313   7.959  0.0043 -0.1048  0.2219
 1026YOPC   NC314459  17.357   9.968   5.874  0.2140  0.1093  0.0553
 1026YOPC   PO414460  17.661  10.105   6.141  0.1450  0.1226  0.0386
 1026YOPC   GL114461  17.758   9.872   6.446 -0.2853  0.1860  0.2828
 1026YOPC   GL214462  17.970   9.521   6.524 -0.0589  0.1172  0.0077
 1026YOPC   C1A14463  17.605   9.945   6.931 -0.0488  0.2387 -0.0362
 1026YOPC   D2A14464  17.682   9.815   7.388 -0.0378  0.1019 -0.4269
 1026YOPC   C3A14465  17.828   9.527   7.560 -0.0610  0.3634 -0.0141
 1026YOPC   C4A14466  18.136   9.261   7.816  0.1139 -0.1029 -0.6601
 1026YOPC   C1B14467  18.041   9.655   6.912 -0.1007  0.0776 -0.2710
 1026YOPC   C2B14468  18.360   9.665   7.229  0.1015  0.2147 -0.1737
 1026YOPC   D3B14469  18.741   9.570   7.102  0.1112  0.1789 -0.1371
 1026YOPC   C4B14470  19.199   9.278   7.203  0.0385 -0.0740  0.0426
 1027YOPC   NC314471   3.134   4.855   6.177 -0.2094 -0.2972  0.0281
 1027YOPC   PO414472   2.866   4.602   6.411 -0.3125 -0.1575  0.0154
 1027YOPC   GL114473   2.775   4.808   6.656  0.2176 -0.1420  0.1360
 1027YOPC   GL214474   2.960   5.061   6.638  0.1357 -0.1578 -0.1183
 1027YOPC   C1A14475   2.442   4.690   6.862 -0.1749 -0.2034  0.1045
 1027YOPC   D2A14476   2.098   4.557   7.125  0.1172  0.0138  0.0062
 1027YOPC   C3A14477   2.107   4.697   7.525  0.0731 -0.0208 -0.1254
 1027YOPC   C4A14478   2.064   4.484   7.901  0.2538  0.2686 -0.1333
 1027YOPC   C1B14479   3.074   5.417   6.904 -0.2742 -0.3435  0.1865
 1027YOPC   C2B14480   3.233   5.836   6.774  0.2617 -0.1795 -0.0478
 1027YOPC   D3B14481   3.121   6.279   6.761 -0.1951 -0.0642 -0.3412
 1027YOPC   C4B14482   2.863   6.620   6.779 -0.1555  0.0273 -0.4688
 1028YOPC   NC314483   4.816   4.141   6.454 -0.1185 -0.1168 -0.0912
 1028YOPC   PO414484   4.589   3.761   6.306 -0.2414 -0.2481 -0.0523
 1028YOPC   GL114485   4.485   3.860   6.749 -0.1303  0.0041 -0.0634
 1028YOPC   GL214486   4.167   4.115   6.871  0.0215  0.0329  0.1545
 1028YOPC   C1A14487   4.569   4.073   7.212 -0.2064  0.1595 -0.0144
 1028YOPC   D2A14488   4.854   4.226   7.559  0.3320  0.0710 -0.0910
 1028YOPC   C3A14489   5.375   4.102   7.540  0.2456 -0.4334 -0.3036
 1028YOPC   C4A14490   5.801   4.013   7.621 -0.0357 -0.0047  0.2050
 1028YOPC   C1B14491   4.044   4.228   7.177 -0.3385  0.2444 -0.0477
 1028YOPC   C2B14492   3.757   4.140   7.422 -0.3843  0.0096 -0.1571
 1028YOPC   D3B14493   3.828   4.235   7.845  0.0096  0.2857  0.1038
 1028YOPC   C4B14494   3.836   4.029   8.249 -0.1871 -0.1833 -0.0328
 1029YOPC   NC314495   3.716  14.480   5.936 -0.2445 -0.2426  0.1800
 1029YOPC   PO414496   3.916  14.285   6.336  0.2444 -0.1922 -0.1891
 1029YOPC   GL114497   3.938  14.086   6.692  0.1967 -0.1769 -0.0406
 1029YOPC   GL214498   4.260  14.106   6.835  0.1573  0.3157  0.2673
 1029YOPC   C1A14499   3.784  13.986   7.122  0.0096  0.0036  0.1873
 1029YOPC   D2A14500   3.843  13.937   7.532 -0.0705  0.1100 -0.0792
 1029YOPC   C3A14501   3.583  14.135   7.869  0.1989  0.1156  0.1215
 1029YOPC   C4A14502   3.126  14.152   7.878  0.0411  0.2886  0.1607
 1029YOPC   C1B14503   4.257  14.184   7.268 -0.3707  0.0244 -0.0413
 1029YOPC   C2B14504   4.285  14.196   7.738 -0.0185 -0.0295  0.4441
 1029YOPC   D3B14505   4.339  14.398   8.077 -0.1969 -0.0845  0.2516
 1029YOPC   C4B14506   4.806  14.616   8.083  0.2114  0.1549 -0.0364
 1030YOPC   NC314507   2.470   3.422   6.053  0.1448  0.2893  0.2289
 1030YOPC   PO414508   2.496   3.915   5.980 -0.0640  0.0282  0.2329
 1030YOPC   GL114509   2.421   3.823   6.447  0.2200 -0.2221 -0.3200
 1030YOPC   GL214510   2.275   3.976   6.576 -0.3603  0.1796 -0.0324
 1030YOPC   C1A14511   2.411   3.647   6.945 -0.0438 -0.1938  0.1453
 1030YOPC   D2A14512   2.263   3.698   7.425  0.0146  0.0350  0.0092
 1030YOPC   C3A14513   2.135   3.816   7.787  0.2278 -0.1984 -0.3985
 1030YOPC   C4A14514   1.825   3.977   8.079  0.0116  0.1974 -0.0761
 1030YOPC   C1B14515   2.441   4.178   6.946  0.0773 -0.2088 -0.3067
 1030YOPC   C2B14516   2.323   4.190   7.352  0.0142  0.0237 -0.0543
 1030YOPC   D3B14517   2.560   4.426   7.669 -0.0194 -0.1908  0.1290
 1030YOPC   C4B14518   2.525   4.708   8.156 -0.0925  0.3545 -0.1374
 1031YOPC   NC314519   3.895   4.246   6.066 -0.0046 -0.2330  0.0910
 1031YOPC   PO414520   3.948   4.604   6.314  0.0650 -0.2448 -0.2078
 1031YOPC   GL114521   3.766   4.407   6.691 -0.0747  0.1443 -0.2170
 1031YOPC   GL214522   3.781   4.012   6.506 -0.0792  0.0426 -0.0377
 1031YOPC   C1A14523   3.528   4.487   7.175  0.1275 -0.1526  0.0648
 1031YOPC   D2A14524   3.334   4.426   7.563  0.2666 -0.0891  0.1362
 1031YOPC   C3A14525   2.995   4.199   7.472 -0.1529 -0.2045 -0.1387
 1031YOPC   C4A14526   2.724   3.922   7.311 -0.0554  0.3116  0.1900
 1031YOPC   C1B14527   3.700   3.973   6.975 -0.1398  0.1065  0.1280
 1031YOPC   C2B14528   3.350   3.932   7.214  0.4590 -0.1954  0.0365
 1031YOPC   D3B14529   3.412   3.863   7.712 -0.0043 -0.0107  0.0972
 1031YOPC   C4B14530   3.382   4.119   8.022 -0.4581 -0.0700  0.1375
 1032YOPC   NC314531   4.314  10.711   5.631 -0.1634  0.2633  0.1914
 1032YOPC   PO414532   4.518  10.770   6.063  0.0667  0.1399  0.0284
 1032YOPC   GL114533   4.545  10.653   6.463 -0.0615 -0.2694 -0.0436
 1032YOPC   GL214534   4.704  10.825   6.676 -0.2512  0.2412  0.0661
 1032YOPC   C1A14535   4.324  10.424   6.850  0.0005 -0.2144  0.0317
 1032YOPC   D2A14536   4.255  10.305   7.239  0.1770  0.2475  0.0575
 1032YOPC   C3A14537   4.457  10.248   7.584 -0.0032  0.3432 -0.0177
 1032YOPC   C4A14538   4.680  10.173   7.931  0.1275 -0.1273  0.0506
 1032YOPC   C1B14539   5.006  10.823   6.949  0.2145 -0.3022 -0.0256
 1032YOPC   C2B14540   5.403  10.847   7.174  0.1167  0.1108  0.0783
 1032YOPC   D3B14541   5.292  11.118   7.596 -0.2725  0.0605  0.0493
 1032YOPC   C4B14542   5.159  11.378   7.907 -0.1513 -0.1753 -0.0221
 1033YOPC   NC314543   4.516   2.624   6.223 -0.3005  0.0529  0.2025
 1033YOPC   PO414544   4.355   2.646   6.636 -0.0411 -0.1072  0.0044
 1033YOPC   GL114545   4.187   2.612   7.074 -0.0467  0.1135  0.3015
 1033YOPC   GL214546   3.864   2.638   7.117  0.1817 -0.1440  0.3251
 1033YOPC   C1A14547   4.290   2.506   7.397 -0.3036  0.0651  0.1308
 1033YOPC   D2A14548   4.452   2.667   7.723 -0.1128  0.1973  0.1149
 1033YOPC   C3A14549   4.398   2.869   8.135 -0.0062 -0.1626  0.2545
 1033YOPC   C4A14550   4.148   3.084   8.483 -0.1844  0.1579 -0.0552
 1033YOPC   C1B14551   3.827   2.731   7.562 -0.1500  0.0362 -0.3627
 1033YOPC   C2B14552   3.922   2.978   7.989  0.0793  0.2236  0.0447
 1033YOPC   D3B14553   3.676   3.176   8.287  0.0047  0.1245  0.0033
 1033YOPC   C4B14554   3.486   3.155   8.727  0.0032  0.1400  0.1792
 1034YOPC   NC314555   7.022  15.446   6.294  0.0113  0.3487  0.0488
 1034YOPC   PO414556   6.713  15.371   6.042 -0.1082 -0.5709  0.0589
 1034YOPC   GL114557   6.905  14.982   6.331 -0.0327 -0.0656 -0.1737
 1034YOPC   GL214558   6.749  14.756   6.434 -0.1418  0.2641 -0.1609
 1034YOPC   C1A14559   6.836  15.101   6.770  0.0299 -0.0262 -0.1598
 1034YOPC   D2A14560   6.843  15.262   7.180  0.0802 -0.0303  0.0198
 1034YOPC   C3A14561   7.163  15.220   7.501  0.2379 -0.0029 -0.0704
 1034YOPC   C4A14562   7.103  15.281   7.852 -0.1284 -0.0751 -0.0237
 1034YOPC   C1B14563   6.889  14.638   6.951  0.3077  0.1199 -0.0618
 1034YOPC   C2B14564   7.226  14.312   7.088  0.2958  0.3314  0.1257
 1034YOPC   D3B14565   7.366  14.269   7.497 -0.1786 -0.1019 -0.2194
 1034YOPC   C4B14566   7.712  14.410   7.849  0.3075  0.0174 -0.0554
 1035YOPC   NC314567   3.733   7.125   5.958 -0.0972  0.2096  0.0256
 1035YOPC   PO414568   3.835   6.707   6.106  0.3383 -0.1492  0.1660
 1035YOPC   GL114569   3.848   6.593   6.529  0.1180 -0.1529 -0.1941
 1035YOPC   GL214570   4.061   6.383   6.628  0.2993  0.1433 -0.2358
 1035YOPC   C1A14571   3.934   6.735   6.959 -0.1758 -0.0876  0.3477
 1035YOPC   D2A14572   4.062   6.913   7.211  0.1471 -0.1819 -0.4296
 1035YOPC   C3A14573   3.867   6.944   7.575 -0.0541  0.5103 -0.2343
 1035YOPC   C4A14574   3.732   7.155   7.916  0.1348 -0.0759  0.0705
 1035YOPC   C1B14575   4.116   6.152   7.084 -0.1531  0.0193  0.1691
 1035YOPC   C2B14576   4.225   6.033   7.462  0.1390  0.2620 -0.1359
 1035YOPC   D3B14577   3.866   6.103   7.786 -0.2240  0.1661  0.2041
 1035YOPC   C4B14578   3.514   6.017   7.933 -0.2929 -0.2180 -0.0544
 1036YOPC   NC314579  13.831  17.488   6.285 -0.3663  0.0366 -0.1735
 1036YOPC   PO414580  13.668  17.944   6.406  0.0555  0.1622 -0.0403
 1036YOPC   GL114581  13.569  18.265   6.766  0.1490 -0.1406  0.1178
 1036YOPC   GL214582  13.687  18.504   6.883  0.3669  0.1365 -0.1844
 1036YOPC   C1A14583  13.412  18.166   7.194  0.1391 -0.0932 -0.0877
 1036YOPC   D2A14584  13.316  18.202   7.636  0.0239  0.1049 -0.1135
 1036YOPC   C3A14585  12.942  18.108   7.917 -0.0779 -0.2473  0.2050
 1036YOPC   C4A14586  12.955  18.000   8.309 -0.1294 -0.2137 -0.0667
 1036YOPC   C1B14587  13.747  18.398   7.381 -0.2335 -0.2018  0.2083
 1036YOPC   C2B14588  13.800  18.331   7.880 -0.1903  0.2132  0.2721
 1036YOPC   D3B14589  13.768  18.636   8.192  0.0844 -0.0844  0.2097
 1036YOPC   C4B14590  13.728  19.032   8.424  0.1776  0.0145  0.3132
 1037YOPC   NC314591   0.246   6.651   5.153  0.1235  0.3817 -0.1425
 1037YOPC   PO414592  -0.041   6.574   5.427 -0.0490  0.2801 -0.0979
 1037YOPC   GL114593  -0.028   6.576   5.884  0.0145 -0.0915  0.1634
 1037YOPC   GL214594  -0.141   6.254   6.083 -0.1521  0.3095 -0.2237
 1037YOPC   C1A14595   0.158   6.570   6.285  0.0367 -0.1215  0.0787
 1037YOPC   D2A14596   0.453   6.828   6.563  0.1528 -0.3081 -0.1373
 1037YOPC   C3A14597   0.728   7.176   6.415  0.3402 -0.0113 -0.1307
 1037YOPC   C4A14598   0.710   7.623   6.474  0.0190 -0.1437 -0.2682
 1037YOPC   C1B14599  -0.368   6.477   6.404  0.0109 -0.1663  0.1492
 1037YOPC   C2B14600  -0.380   6.648   6.812 -0.4358 -0.1192 -0.1374
 1037YOPC   D3B14601  -0.133   6.387   7.146 -0.0667 -0.3600  0.0420
 1037YOPC   C4B14602  -0.195   6.196   7.514 -0.0484 -0.1621  0.1144
 1038YOPC   NC314603   4.739   1.677   6.688  0.1007  0.0573  0.1713
 1038YOPC   PO414604   4.604   1.255   6.423 -0.0926  0.0791 -0.2604
 1038YOPC   GL114605   5.031   1.165   6.745  0.4525  0.0478 -0.0737
 1038YOPC   GL214606   4.958   0.965   6.971 -0.1761 -0.6265  0.2382
 1038YOPC   C1A14607   5.347   1.268   7.136  0.1365  0.0600 -0.0661
 1038YOPC   D2A14608   5.547   1.438   7.653 -0.2170  0.0959 -0.0664
 1038YOPC   C3A14609   5.459   1.061   7.943 -0.0452  0.1834  0.4091
 1038YOPC   C4A14610   5.390   0.992   8.371  0.1416 -0.0866  0.0134
 1038YOPC   C1B14611   4.997   0.643   7.274  0.2319 -0.0099 -0.1311
 1038YOPC   C2B14612   5.085   0.396   7.693  0.0095 -0.1260 -0.0402
 1038YOPC   D3B14613   4.781   0.319   8.049 -0.0039  0.2573 -0.0073
 1038YOPC   C4B14614   4.473   0.133   8.376  0.0903 -0.0740  0.2019
 1039YOPC   NC314615  15.724  11.718   5.834 -0.1633 -0.0722  0.0296
 1039YOPC   PO414616  15.394  11.932   5.868  0.2330 -0.0165 -0.0483
 1039YOPC   GL114617  15.389  11.682   6.214 -0.0332  0.2728 -0.1859
 1039YOPC   GL214618  15.645  11.873   6.320 -0.0804 -0.0263  0.0334
 1039YOPC   C1A14619  15.317  11.314   6.527  0.0050  0.2205 -0.1135
 1039YOPC   D2A14620  15.296  10.926   6.740 -0.0807 -0.0911  0.0934
 1039YOPC   C3A14621  15.471  10.954   7.101 -0.2231 -0.2727 -0.1099
 1039YOPC   C4A14622  15.839  10.800   7.398  0.2673  0.1441 -0.0535
 1039YOPC   C1B14623  15.405  11.836   6.694 -0.0782  0.1839  0.1948
 1039YOPC   C2B14624  15.126  11.639   6.973  0.1678  0.2698  0.0057
 1039YOPC   D3B14625  15.292  11.612   7.388 -0.0492 -0.0892 -0.1234
 1039YOPC   C4B14626  15.307  11.191   7.622 -0.1035 -0.0106  0.0268
 1040YOPC   NC314627  11.931  11.875   6.392 -0.1921  0.2973 -0.1463
 1040YOPC   PO414628  11.530  11.964   6.215  0.1578  0.0181 -0.0514
 1040YOPC   GL114629  11.447  11.959   6.606  0.3026 -0.1545 -0.0011
 1040YOPC   GL214630  11.541  12.266   6.637  0.0619  0.2694 -0.0737
 1040YOPC   C1A14631  11.479  11.883   6.979  0.0879 -0.5465  0.3425
 1040YOPC   D2A14632  11.244  12.096   7.409 -0.3627 -0.2811  0.0701
 1040YOPC   C3A14633  11.251  11.886   7.768  0.0641 -0.3509  0.0878
 1040YOPC   C4A14634  11.376  11.504   7.944 -0.1297  0.1796 -0.4209
 1040YOPC   C1B14635  11.355  12.432   6.932 -0.3048  0.0181  0.0676
 1040YOPC   C2B14636  10.990  12.538   7.227  0.0833 -0.0455 -0.1887
 1040YOPC   D3B14637  11.038  12.501   7.660  0.0510 -0.0476 -0.1854
 1040YOPC   C4B14638  11.104  12.282   7.988  0.2960 -0.0759 -0.0203
 1041YOPC   NC314639  14.990   4.130   5.634 -0.1674  0.1542  0.1424
 1041YOPC   PO414640  15.348   4.258   5.955 -0.0153  0.1561  0.2168
 1041YOPC   GL114641  15.273   4.179   6.366  0.2600  0.3750  0.1957
 1041YOPC   GL214642  15.196   4.398   6.527 -0.0968 -0.0088 -0.1159
 1041YOPC   C1A14643  15.348   4.006   6.838  0.0146  0.3355  0.0466
 1041YOPC   D2A14644  15.196   3.973   7.250 -0.1496 -0.2010  0.1598
 1041YOPC   C3A14645  15.306   3.820   7.597 -0.2764  0.1758  0.2225
 1041YOPC   C4A14646  15.579   3.778   7.987  0.1679  0.0619 -0.1015
 1041YOPC   C1B14647  15.089   4.410   6.949  0.0169  0.3299  0.0644
 1041YOPC   C2B14648  14.777   4.371   7.261  0.0367  0.1522  0.1984
 1041YOPC   D3B14649  14.744   4.530   7.646  0.0801 -0.1972 -0.0707
 1041YOPC   C4B14650  14.577   4.756   8.041 -0.4900  0.0619  0.0628
 1042YOPC   NC314651  11.731   4.134   5.571  0.0925 -0.0196 -0.0428
 1042YOPC   PO414652  11.877   3.820   5.938  0.3446 -0.0366  0.0548
 1042YOPC   GL114653  11.951   3.917   6.279 -0.0018  0.0513  0.2764
 1042YOPC   GL214654  11.699   3.824   6.499  0.0672  0.1520  0.1008
 1042YOPC   C1A14655  12.072   4.161   6.654  0.1595  0.0799  0.0953
 1042YOPC   D2A14656  12.129   4.175   7.046 -0.1343  0.0965 -0.0721
 1042YOPC   C3A14657  11.792   4.560   7.117  0.0821 -0.1543  0.1837
 1042YOPC   C4A14658  11.876   4.996   7.011 -0.0946 -0.0706  0.0807
 1042YOPC   C1B14659  11.573   3.808   7.003  0.1741 -0.0163 -0.1533
 1042YOPC   C2B14660  11.710   4.128   7.292 -0.2380  0.3327 -0.1562
 1042YOPC   D3B14661  11.652   3.952   7.659  0.0557 -0.0767 -0.0423
 1042YOPC   C4B14662  11.547   3.714   8.043 -0.2610 -0.1711 -0.0851
 1043YOPC   NC314663  16.928  11.548   6.153  0.0576  0.0024 -0.0774
 1043YOPC   PO414664  16.745  11.160   6.262  0.2106  0.1177  0.0140
 1043YOPC   GL114665  16.913  11.304   6.641  0.0517  0.4077 -0.1172
 1043YOPC   GL214666  17.180  11.255   6.569 -0.0000 -0.1265 -0.0474
 1043YOPC   C1A14667  16.671  11.252   7.033 -0.0411 -0.0606 -0.3436
 1043YOPC   D2A14668  16.724  11.318   7.439  0.1354 -0.1022  0.1259
 1043YOPC   C3A14669  16.811  11.006   7.759 -0.1233  0.0103 -0.1936
 1043YOPC   C4A14670  16.730  10.878   8.131  0.2084 -0.1243 -0.0991
 1043YOPC   C1B14671  17.159  11.305   7.089 -0.4468  0.1052  0.1614
 1043YOPC   C2B14672  17.169  11.579   7.466 -0.1568 -0.0886  0.1754
 1043YOPC   D3B14673  17.041  11.439   7.927  0.0824 -0.0082 -0.2750
 1043YOPC   C4B14674  17.099  11.241   8.238 -0.1064 -0.3473  0.1033
 1044YOPC   NC314675   3.066  11.678   5.957  0.0012 -0.1496  0.0576
 1044YOPC   PO414676   3.329  11.491   6.305 -0.1439  0.4790  0.2747
 1044YOPC   GL114677   3.345  11.341   6.731 -0.2980 -0.0089 -0.0139
 1044YOPC   GL214678   3.555  11.574   6.758  0.1144  0.0135  0.0848
 1044YOPC   C1A14679   3.609  11.185   7.049  0.2066 -0.0870  0.0038
 1044YOPC   D2A14680   3.573  11.046   7.462 -0.1571 -0.0572  0.0627
 1044YOPC   C3A14681   3.769  10.853   7.838 -0.2693 -0.1049  0.2360
 1044YOPC   C4A14682   3.644  10.536   8.072 -0.0245 -0.1214 -0.4789
 1044YOPC   C1B14683   3.330  11.568   7.171 -0.0991 -0.1430 -0.0426
 1044YOPC   C2B14684   3.367  11.395   7.704  0.1010  0.3351  0.0887
 1044YOPC   D3B14685   3.470  11.283   8.107  0.0018  0.0146 -0.1474
 1044YOPC   C4B14686   3.685  11.228   8.492  0.0288  0.0111  0.1523
 1045YOPC   NC314687  11.797  17.326   6.246  0.0389  0.0954 -0.2227
 1045YOPC   PO414688  11.871  16.965   6.032  0.0311  0.2730 -0.1244
 1045YOPC   GL114689  11.942  16.942   6.587 -0.1326  0.1658 -0.3258
 1045YOPC   GL214690  11.785  16.650   6.757 -0.0435 -0.1359  0.1886
 1045YOPC   C1A14691  12.145  17.030   6.981  0.2429  0.1777  0.1054
 1045YOPC   D2A14692  12.057  17.135   7.378  0.1522  0.0147  0.0914
 1045YOPC   C3A14693  11.949  17.218   7.870 -0.3391  0.1808 -0.0644
 1045YOPC   C4A14694  11.772  17.495   8.164  0.0638 -0.1698 -0.0985
 1045YOPC   C1B14695  11.974  16.613   7.197 -0.0597 -0.1987 -0.0578
 1045YOPC   C2B14696  12.200  16.695   7.572  0.0458  0.0763  0.0334
 1045YOPC   D3B14697  12.037  16.675   7.924  0.0434 -0.1321 -0.2994
 1045YOPC   C4B14698  12.096  16.912   8.265  0.0288  0.2891  0.1189
 1046YOPC   NC314699   4.628  15.411   6.351 -0.0628 -0.0717 -0.2231
 1046YOPC   PO414700   4.967  15.025   6.344  0.2140 -0.0768  0.0711
 1046YOPC   GL114701   5.125  14.921   6.746 -0.2434  0.2201  0.0576
 1046YOPC   GL214702   4.987  14.612   6.720 -0.2830 -0.2032  0.4000
 1046YOPC   C1A14703   5.452  14.768   7.041  0.4208  0.0928 -0.0940
 1046YOPC   D2A14704   5.616  14.695   7.473  0.0414 -0.1100 -0.4106
 1046YOPC   C3A14705   5.607  15.033   7.770 -0.1648  0.3163 -0.2135
 1046YOPC   C4A14706   5.562  15.243   8.065  0.1473 -0.3464  0.1198
 1046YOPC   C1B14707   4.977  14.648   7.211  0.0930  0.3341 -0.1100
 1046YOPC   C2B14708   5.112  14.725   7.634  0.0369 -0.3280  0.0224
 1046YOPC   D3B14709   5.199  14.881   8.030 -0.0520  0.1312  0.2494
 1046YOPC   C4B14710   4.981  14.875   8.472 -0.2325 -0.1154 -0.2039
 1047YOPC   NC314711   3.565  17.417   6.268  0.3064  0.0980 -0.0217
 1047YOPC   PO414712   3.681  17.038   6.456 -0.0088 -0.0904  0.0270
 1047YOPC   GL114713   3.769  16.968   6.861 -0.0735 -0.0824  0.0426
 1047YOPC   GL214714   3.635  16.649   6.948 -0.1290  0.0416  0.0023
 1047YOPC   C1A14715   3.890  17.032   7.226  0.2396  0.0179 -0.0208
 1047YOPC   D2A14716   3.988  16.898   7.680 -0.0919 -0.1048 -0.1152
 1047YOPC   C3A14717   4.134  17.153   8.083 -0.2113  0.1572 -0.1618
 1047YOPC   C4A14718   4.514  17.317   8.054  0.1329  0.2703  0.0026
 1047YOPC   C1B14719   3.717  16.577   7.344 -0.1088  0.0996 -0.0456
 1047YOPC   C2B14720   3.677  16.441   7.779  0.2265  0.0328  0.4564
 1047YOPC   D3B14721   3.613  16.397   8.191  0.1065 -0.0029 -0.1600
 1047YOPC   C4B14722   3.658  16.409   8.637  0.0201 -0.0392 -0.0623
 1048YOPC   NC314723   0.152  14.397   5.867  0.2315  0.1675  0.1506
 1048YOPC   PO414724   0.093  14.625   6.197  0.0772 -0.0641 -0.1998
 1048YOPC   GL114725   0.216  14.814   6.530  0.0154  0.4764  0.1595
 1048YOPC   GL214726  -0.045  15.034   6.673  0.5034 -0.2597 -0.0148
 1048YOPC   C1A14727   0.417  14.665   6.956  0.0045  0.3115 -0.1106
 1048YOPC   D2A14728   0.422  14.464   7.285  0.0084 -0.2088 -0.1679
 1048YOPC   C3A14729   0.202  14.455   7.601  0.0948 -0.0053 -0.3565
 1048YOPC   C4A14730   0.160  14.676   7.912  0.2695  0.2198  0.3026
 1048YOPC   C1B14731   0.123  15.130   7.033  0.0612 -0.0178 -0.0984
 1048YOPC   C2B14732   0.436  15.483   7.210  0.1097  0.1344 -0.2045
 1048YOPC   D3B14733   0.608  15.446   7.696  0.0411  0.0929  0.0388
 1048YOPC   C4B14734   0.993  15.572   7.783 -0.1961 -0.1686 -0.0546
 1049YOPC   NC314735  16.515   5.130   5.611 -0.0053 -0.1370 -0.0355
 1049YOPC   PO414736  16.348   5.323   6.014  0.0626  0.0666  0.0655
 1049YOPC   GL114737  16.389   5.153   6.306 -0.2985  0.2129 -0.0347
 1049YOPC   GL214738  16.513   4.820   6.272  0.0951 -0.0544  0.1107
 1049YOPC   C1A14739  16.735   5.168   6.581 -0.0370 -0.0185  0.5380
 1049YOPC   D2A14740  16.605   5.302   6.880  0.0124 -0.0485  0.0656
 1049YOPC   C3A14741  16.587   5.202   7.298 -0.1280 -0.0838 -0.0212
 1049YOPC   C4A14742  16.759   5.107   7.569 -0.0565 -0.0882 -0.1085
 1049YOPC   C1B14743  16.381   4.851   6.705  0.1223 -0.1825  0.0008
 1049YOPC   C2B14744  16.251   4.920   7.092  0.1252 -0.0508  0.1036
 1049YOPC   D3B14745  16.383   4.703   7.494 -0.1887 -0.2293 -0.1855
 1049YOPC   C4B14746  16.652   4.744   7.826 -0.0730  0.0352  0.0951
 1050YOPC   NC314747  16.521   1.416   6.065 -0.2256 -0.1395  0.0489
 1050YOPC   PO414748  16.024   1.313   6.069  0.0596  0.1615 -0.1243
 1050YOPC   GL114749  16.127   1.469   6.443 -0.2216  0.2062  0.0077
 1050YOPC   GL214750  16.365   1.191   6.558  0.0446  0.1662  0.3572
 1050YOPC   C1A14751  15.965   1.477   6.821  0.0051 -0.3269  0.1348
 1050YOPC   D2A14752  15.680   1.306   7.076  0.0731 -0.1798  0.0343
 1050YOPC   C3A14753  15.608   1.317   7.570  0.0545  0.0214  0.1873
 1050YOPC   C4A14754  15.481   1.581   7.817  0.0767 -0.0010 -0.0993
 1050YOPC   C1B14755  16.224   1.125   6.980 -0.0568 -0.2213 -0.2854
 1050YOPC   C2B14756  16.059   1.183   7.357  0.0278 -0.0666 -0.0031
 1050YOPC   D3B14757  16.204   1.149   7.723 -0.0200 -0.1639 -0.0092
 1050YOPC   C4B14758  16.193   0.926   8.134 -0.1211 -0.4782  0.1508
 1051YOPC   NC314759  11.028   6.741   6.030  0.0614 -0.0544 -0.3107
 1051YOPC   PO414760  11.240   6.460   5.854  0.0061 -0.1375 -0.0426
 1051YOPC   GL114761  11.389   6.548   6.294  0.1248 -0.0704  0.1261
 1051YOPC   GL214762  11.559   6.310   6.445  0.0018 -0.0984 -0.2651
 1051YOPC   C1A14763  11.266   6.774   6.732  0.1384 -0.0686 -0.1333
 1051YOPC   D2A14764  11.090   6.770   7.112 -0.0276 -0.1085  0.0591
 1051YOPC   C3A14765  10.709   7.013   7.088 -0.2206 -0.1391  0.1535
 1051YOPC   C4A14766  10.750   7.429   7.072  0.2779 -0.0104 -0.2820
 1051YOPC   C1B14767  11.541   6.270   6.948 -0.1403 -0.1856  0.1107
 1051YOPC   C2B14768  11.414   6.383   7.223 -0.2216  0.0458  0.0022
 1051YOPC   D3B14769  11.177   6.107   7.529 -0.0580  0.0132 -0.3070
 1051YOPC   C4B14770  11.179   5.822   7.885  0.0779  0.1480 -0.1084
 1052YOPC   NC314771   9.438   1.617   5.978 -0.1263  0.0005  0.0655
 1052YOPC   PO414772   9.891   1.612   5.891 -0.0118 -0.0210  0.0134
 1052YOPC   GL114773   9.864   1.762   6.269  0.2325 -0.0406  0.1735
 1052YOPC   GL214774  10.087   1.906   6.467  0.1554 -0.2691 -0.1575
 1052YOPC   C1A14775   9.516   1.966   6.535 -0.2108 -0.0902  0.1304
 1052YOPC   D2A14776   9.299   1.805   6.951 -0.2443  0.0112  0.1271
 1052YOPC   C3A14777   9.189   1.447   7.071 -0.0891 -0.0528  0.1352
 1052YOPC   C4A14778   9.304   1.053   7.241 -0.2033  0.0749  0.1321
 1052YOPC   C1B14779   9.912   1.852   6.900 -0.2998  0.0610 -0.5487
 1052YOPC   C2B14780   9.976   1.754   7.345 -0.0130 -0.0535 -0.0247
 1052YOPC   D3B14781   9.731   1.892   7.705 -0.1581  0.4157  0.0295
 1052YOPC   C4B14782   9.366   1.851   8.002  0.0590  0.3549  0.1401
 1053YOPC   NC314783   3.988   2.023   5.870  0.3194  0.0298 -0.3892
 1053YOPC   PO414784   3.764   1.652   6.196  0.2663 -0.1490  0.1983
 1053YOPC   GL114785   3.699   1.610   6.672  0.2003 -0.0900 -0.2901
 1053YOPC   GL214786   3.567   1.406   6.846  0.0535  0.2005 -0.2358
 1053YOPC   C1A14787   3.464   1.841   6.931 -0.0942 -0.0205 -0.2365
 1053YOPC   D2A14788   3.797   2.101   7.176 -0.3716  0.0405  0.0808
 1053YOPC   C3A14789   3.886   2.202   7.669 -0.0437  0.0345  0.0375
 1053YOPC   C4A14790   4.017   2.457   7.976 -0.0709 -0.0216  0.1919
 1053YOPC   C1B14791   3.410   1.431   7.225 -0.0752 -0.1292 -0.0464
 1053YOPC   C2B14792   3.387   1.240   7.568  0.1065  0.0077 -0.2197
 1053YOPC   D3B14793   3.213   1.567   7.819  0.3761 -0.0749  0.2171
 1053YOPC   C4B14794   2.968   2.035   7.893  0.1805  0.3086 -0.1368
 1054YOPC   NC314795   3.664  10.048   5.995  0.0975  0.0978 -0.1216
 1054YOPC   PO414796   3.750   9.619   6.123 -0.1455 -0.2304  0.0868
 1054YOPC   GL114797   3.683   9.763   6.490  0.1195 -0.2206 -0.0060
 1054YOPC   GL214798   3.367   9.947   6.621 -0.1314 -0.2712 -0.0779
 1054YOPC   C1A14799   3.740   9.717   6.895  0.1134 -0.0806 -0.1101
 1054YOPC   D2A14800   3.427   9.704   7.137 -0.1995  0.0674 -0.1584
 1054YOPC   C3A14801   3.282   9.608   7.532 -0.2028 -0.4198 -0.1374
 1054YOPC   C4A14802   3.255   9.558   7.981 -0.1465 -0.0304 -0.1415
 1054YOPC   C1B14803   3.403  10.208   7.080 -0.1468 -0.1035  0.0306
 1054YOPC   C2B14804   3.590  10.562   7.395  0.2901 -0.1821 -0.1432
 1054YOPC   D3B14805   3.975  10.451   7.595  0.0618  0.0199 -0.1703
 1054YOPC   C4B14806   4.159  10.508   7.980 -0.1133 -0.0231  0.1538
 1055YOPC   NC314807  14.079   6.927   5.917 -0.0483  0.2974 -0.0292
 1055YOPC   PO414808  14.354   6.837   5.699 -0.0305 -0.0856 -0.2170
 1055YOPC   GL114809  14.416   6.663   6.187  0.0897  0.0722 -0.2310
 1055YOPC   GL214810  14.549   6.960   6.403 -0.1892  0.1703  0.1150
 1055YOPC   C1A14811  14.073   6.515   6.451  0.1655 -0.2334 -0.2496
 1055YOPC   D2A14812  13.746   6.395   6.708  0.0654 -0.0917 -0.0231
 1055YOPC   C3A14813  13.600   6.046   6.910 -0.0780  0.0597 -0.0464
 1055YOPC   C4A14814  13.614   5.655   7.086  0.1260  0.2643  0.1075
 1055YOPC   C1B14815  14.528   6.516   6.664 -0.0604  0.0009 -0.0257
 1055YOPC   C2B14816  14.135   6.456   6.995  0.2230  0.1343  0.1677
 1055YOPC   D3B14817  13.955   6.430   7.425 -0.1922  0.0985 -0.3237
 1055YOPC   C4B14818  13.653   6.598   7.714  0.2404  0.2764 -0.1617
 1056YOPC   NC314819   7.577   5.363   5.752 -0.3098  0.0211  0.0462
 1056YOPC   PO414820   7.941   5.325   6.149 -0.0858 -0.2379  0.0136
 1056YOPC   GL114821   7.981   5.173   6.562 -0.1219  0.0302  0.0781
 1056YOPC   GL214822   8.036   4.846   6.604 -0.1468  0.1204 -0.1271
 1056YOPC   C1A14823   7.923   5.308   6.997 -0.0308 -0.2374 -0.0404
 1056YOPC   D2A14824   7.971   5.125   7.381  0.1502  0.0903 -0.0419
 1056YOPC   C3A14825   8.324   4.987   7.773  0.0957  0.0149 -0.1085
 1056YOPC   C4A14826   8.706   4.722   7.852  0.0427 -0.2243 -0.0511
 1056YOPC   C1B14827   8.177   4.813   7.030  0.0143 -0.3004  0.0298
 1056YOPC   C2B14828   8.319   4.661   7.397 -0.0186  0.1261  0.0621
 1056YOPC   D3B14829   8.125   4.537   7.763 -0.0178  0.3354 -0.0759
 1056YOPC   C4B14830   7.925   4.317   8.175  0.1009 -0.0243 -0.2209
 1057YOPC   NC314831   2.458   9.092   5.703  0.2040  0.1600  0.0924
 1057YOPC   PO414832   2.081   8.978   5.632 -0.1853  0.1153  0.3518
 1057YOPC   GL114833   2.123   9.020   6.097  0.1185  0.0421 -0.1082
 1057YOPC   GL214834   2.093   8.621   6.141  0.0769 -0.0290  0.3047
 1057YOPC   C1A14835   2.409   9.084   6.487 -0.3096 -0.3424 -0.3720
 1057YOPC   D2A14836   2.888   9.031   6.599  0.0641  0.0311 -0.2275
 1057YOPC   C3A14837   3.057   8.773   7.015  0.1734 -0.1191 -0.4733
 1057YOPC   C4A14838   3.013   8.751   7.455 -0.1123 -0.0501 -0.0792
 1057YOPC   C1B14839   2.171   8.662   6.574  0.0565 -0.0708  0.0664
 1057YOPC   C2B14840   1.999   8.480   6.996  0.1059 -0.2555 -0.1254
 1057YOPC   D3B14841   2.116   8.515   7.366  0.0095 -0.1492  0.1222
 1057YOPC   C4B14842   2.156   8.481   7.846  0.1104  0.0711 -0.0477
 1058YOPC   NC314843  15.127  13.874   6.405 -0.0277  0.1764 -0.1043
 1058YOPC   PO414844  15.616  14.089   6.504 -0.2500  0.3671  0.2943
 1058YOPC   GL114845  15.416  13.864   6.818  0.0240  0.2523 -0.0600
 1058YOPC   GL214846  15.652  13.668   6.940  0.2170  0.2335 -0.0343
 1058YOPC   C1A14847  15.254  13.789   7.243 -0.2047 -0.1199 -0.1551
 1058YOPC   D2A14848  15.116  13.759   7.784 -0.0905  0.1774  0.2078
 1058YOPC   C3A14849  15.263  13.607   8.130 -0.2721  0.0988  0.0864
 1058YOPC   C4A14850  15.520  13.308   8.449  0.1166 -0.4764 -0.1343
 1058YOPC   C1B14851  15.682  13.440   7.256 -0.1241 -0.1320 -0.2936
 1058YOPC   C2B14852  15.435  13.384   7.631 -0.0754 -0.0003 -0.4805
 1058YOPC   D3B14853  15.340  13.070   8.059  0.0367  0.1009 -0.0435
 1058YOPC   C4B14854  14.965  12.814   8.254  0.1669  0.1042 -0.2144
 1059YOPC   NC314855   1.909   6.163   6.022  0.0046 -0.2292 -0.3474
 1059YOPC   PO414856   1.736   5.739   6.047  0.0128 -0.1370 -0.0879
 1059YOPC   GL114857   1.578   5.918   6.320  0.0599  0.0387  0.1356
 1059YOPC   GL214858   1.578   6.247   6.415 -0.0011  0.0406 -0.1287
 1059YOPC   C1A14859   1.483   5.851   6.724 -0.0161 -0.0207 -0.2837
 1059YOPC   D2A14860   1.436   6.059   7.158  0.1547 -0.2260  0.2003
 1059YOPC   C3A14861   1.385   6.423   7.410  0.1543 -0.1303 -0.0334
 1059YOPC   C4A14862   1.588   6.526   7.764  0.0983 -0.1216  0.0838
 1059YOPC   C1B14863   1.897   6.136   6.805 -0.1592 -0.1394  0.1511
 1059YOPC   C2B14864   2.110   6.251   7.213 -0.2417  0.2434  0.2788
 1059YOPC   D3B14865   1.910   6.180   7.610  0.0172 -0.0503  0.1003
 1059YOPC   C4B14866   1.771   5.854   7.864 -0.0350 -0.3511 -0.0124
 1060YOPC   NC314867  13.695   4.061   5.956 -0.1206 -0.0838 -0.1291
 1060YOPC   PO414868  13.951   4.390   6.107 -0.2258  0.0062 -0.1125
 1060YOPC   GL114869  13.852   4.716   6.419 -0.0071 -0.0476 -0.2021
 1060YOPC   GL214870  13.524   4.720   6.379  0.1644  0.0077  0.2926
 1060YOPC   C1A14871  13.733   4.762   6.897 -0.1452 -0.0519  0.1367
 1060YOPC   D2A14872  13.886   4.908   7.168 -0.2799  0.0256 -0.2470
 1060YOPC   C3A14873  13.691   5.010   7.617 -0.1135 -0.0288  0.2519
 1060YOPC   C4A14874  13.304   4.773   7.807  0.3012 -0.0150 -0.1189
 1060YOPC   C1B14875  13.187   4.634   6.634 -0.2083  0.0249 -0.0948
 1060YOPC   C2B14876  12.976   4.806   6.869  0.2558  0.1018  0.1034
 1060YOPC   D3B14877  12.707   4.922   7.187  0.1318 -0.1505  0.0031
 1060YOPC   C4B14878  12.832   4.815   7.563  0.0402  0.2766  0.2743
 1061YOPC   NC314879   3.089  15.834   6.573 -0.0214 -0.0359 -0.0863
 1061YOPC   PO414880   3.451  15.621   6.370 -0.1807  0.1667  0.1740
 1061YOPC   GL114881   3.749  15.523   6.695 -0.1534  0.0986  0.1280
 1061YOPC   GL214882   3.452  15.494   6.848  0.2786 -0.1341 -0.0463
 1061YOPC   C1A14883   3.939  15.271   6.929  0.3631 -0.2953  0.0088
 1061YOPC   D2A14884   4.165  15.010   7.109 -0.1742  0.0596 -0.0342
 1061YOPC   C3A14885   4.305  14.698   6.815  0.0684  0.2325  0.0997
 1061YOPC   C4A14886   4.507  14.548   7.161 -0.0406 -0.0440 -0.1752
 1061YOPC   C1B14887   3.212  15.316   7.166  0.2273 -0.2600 -0.1243
 1061YOPC   C2B14888   3.322  15.342   7.543 -0.0174  0.1601 -0.0249
 1061YOPC   D3B14889   3.163  14.985   7.811  0.3742  0.1737 -0.0154
 1061YOPC   C4B14890   2.841  14.595   7.833  0.5718 -0.0767  0.2264
 1062YOPC   NC314891  14.105  12.932   6.248 -0.3627  0.1532 -0.1908
 1062YOPC   PO414892  14.183  13.288   6.336 -0.2548 -0.2747  0.0906
 1062YOPC   GL114893  13.962  13.105   6.728  0.0322  0.0452  0.1295
 1062YOPC   GL214894  13.744  13.386   6.751  0.2027 -0.1002 -0.1754
 1062YOPC   C1A14895  13.999  12.994   7.119 -0.1374  0.1199 -0.1837
 1062YOPC   D2A14896  14.223  12.904   7.512  0.4291 -0.1952  0.3078
 1062YOPC   C3A14897  14.210  12.568   7.755  0.1832  0.1344 -0.1310
 1062YOPC   C4A14898  14.098  12.151   7.879  0.3538 -0.0480  0.1826
 1062YOPC   C1B14899  13.771  13.489   7.111 -0.0389 -0.0723 -0.1275
 1062YOPC   C2B14900  13.592  13.621   7.477  0.0521  0.0219  0.0028
 1062YOPC   D3B14901  13.423  13.314   7.802 -0.0697  0.0934  0.0530
 1062YOPC   C4B14902  13.650  13.072   8.204 -0.1336  0.1028  0.1202
 1063YOPC   NC314903   7.630   0.309   5.936 -0.1023 -0.2142 -0.0882
 1063YOPC   PO414904   7.918  -0.059   6.013  0.1542 -0.0767  0.0338
 1063YOPC   GL114905   7.793  -0.184   6.489 -0.1351  0.0406  0.1182
 1063YOPC   GL214906   7.530  -0.421   6.504 -0.1742  0.2068  0.0104
 1063YOPC   C1A14907   7.741  -0.267   6.922 -0.2828 -0.2231 -0.4217
 1063YOPC   D2A14908   7.455  -0.196   7.296  0.0658 -0.2719  0.0389
 1063YOPC   C3A14909   7.132   0.006   7.202  0.0118  0.2636 -0.3835
 1063YOPC   C4A14910   7.050   0.385   7.089 -0.2959  0.1334  0.0661
 1063YOPC   C1B14911   7.382   0.032   6.719 -0.0781  0.2166  0.0108
 1063YOPC   C2B14912   7.523   0.286   7.025 -0.0649  0.2318 -0.3071
 1063YOPC   D3B14913   7.559   0.264   7.494  0.0551 -0.1610  0.1118
 1063YOPC   C4B14914   7.899   0.286   7.757  0.1518 -0.1667  0.4329
 1064YOPC   NC314915  15.696   6.129   5.993  0.1414  0.0397  0.0326
 1064YOPC   PO414916  15.593   5.785   6.042 -0.1191  0.1208  0.3360
 1064YOPC   GL114917  15.663   5.801   6.428 -0.0123  0.1659 -0.2189
 1064YOPC   GL214918  15.979   5.946   6.461  0.0039 -0.1991 -0.1249
 1064YOPC   C1A14919  15.561   5.861   6.762 -0.1317  0.1585  0.1007
 1064YOPC   D2A14920  15.643   5.889   7.225 -0.1088 -0.2008  0.1739
 1064YOPC   C3A14921  15.364   5.898   7.630 -0.2266  0.0729  0.2600
 1064YOPC   C4A14922  15.195   5.870   8.025  0.1056 -0.0839 -0.1572
 1064YOPC   C1B14923  16.022   6.050   6.926  0.3196 -0.0426 -0.0585
 1064YOPC   C2B14924  16.053   6.198   7.341  0.0244  0.1545 -0.5382
 1064YOPC   D3B14925  15.962   5.973   7.736 -0.1182 -0.0475  0.2718
 1064YOPC   C4B14926  15.963   6.119   8.169 -0.0250  0.1850  0.3651
 1065YOPC   NC314927   0.767  15.222   6.260 -0.0028  0.0753 -0.3395
 1065YOPC   PO414928   1.125  15.226   6.513  0.0808  0.2570  0.1159
 1065YOPC   GL114929   1.197  15.196   6.883  0.0358 -0.1455 -0.1101
 1065YOPC   GL214930   1.376  15.398   6.932  0.1058  0.1991  0.2990
 1065YOPC   C1A14931   1.340  15.072   7.284  0.1351 -0.1202 -0.3446
 1065YOPC   D2A14932   1.505  15.259   7.640  0.0285  0.0643  0.1037
 1065YOPC   C3A14933   1.428  15.133   8.090 -0.1210 -0.1583 -0.2565
 1065YOPC   C4A14934   1.113  15.102   8.487  0.0071  0.0082  0.2749
 1065YOPC   C1B14935   1.294  15.709   7.271 -0.2676 -0.1316  0.0035
 1065YOPC   C2B14936   0.823  15.879   7.376  0.1171  0.1100 -0.1837
 1065YOPC   D3B14937   0.698  15.924   7.706  0.1429 -0.0118  0.0887
 1065YOPC   C4B14938   0.796  15.856   8.136 -0.1483  0.2245 -0.0555
 1066YOPC   NC314939   8.117   8.952   6.139  0.4029  0.3064  0.0099
 1066YOPC   PO414940   8.352   8.494   6.347  0.0150  0.2865  0.3524
 1066YOPC   GL114941   8.166   8.642   6.615 -0.0132 -0.0651  0.0534
 1066YOPC   GL214942   7.869   8.811   6.537 -0.2601  0.1402 -0.0864
 1066YOPC   C1A14943   7.926   8.770   7.112 -0.0390  0.0138  0.3061
 1066YOPC   D2A14944   8.014   8.873   7.513  0.1921  0.1506  0.0058
 1066YOPC   C3A14945   7.915   9.198   7.853  0.2239  0.0717  0.0287
 1066YOPC   C4A14946   7.961   9.584   8.094  0.0149  0.0636  0.1560
 1066YOPC   C1B14947   7.853   9.119   6.739 -0.2515 -0.1840 -0.2610
 1066YOPC   C2B14948   7.500   9.341   6.807  0.1554 -0.2151 -0.1688
 1066YOPC   D3B14949   7.253   9.306   7.164  0.3639 -0.0579 -0.2343
 1066YOPC   C4B14950   6.958   9.058   7.397 -0.2823 -0.0573 -0.1238
 1067YOPC   NC314951  17.655  11.563   5.961  0.2749  0.2012  0.1333
 1067YOPC   PO414952  17.448  11.524   6.251 -0.1363  0.1489 -0.1679
 1067YOPC   GL114953  17.706  11.367   6.562 -0.0210 -0.1710  0.0965
 1067YOPC   GL214954  18.002  11.209   6.461  0.3084 -0.0130 -0.2272
 1067YOPC   C1A14955  17.622  11.400   6.940  0.1078  0.2322 -0.3626
 1067YOPC   D2A14956  17.618  11.383   7.295 -0.1997 -0.2328  0.0361
 1067YOPC   C3A14957  17.392  11.035   7.559  0.0136  0.1809  0.0368
 1067YOPC   C4A14958  17.291  10.844   7.911 -0.0565 -0.2973  0.1411
 1067YOPC   C1B14959  18.148  11.117   6.910 -0.1648 -0.0926 -0.0832
 1067YOPC   C2B14960  18.095  11.204   7.346  0.0253 -0.1796  0.2062
 1067YOPC   D3B14961  17.907  11.117   7.712 -0.1827  0.3523 -0.1989
 1067YOPC   C4B14962  17.567  11.323   7.958  0.0835 -0.2485 -0.1179
 1068YOPC   NC314963   1.856   5.003   6.073  0.3274 -0.2390 -0.2512
 1068YOPC   PO414964   2.204   5.239   6.124  0.0676 -0.0277  0.0618
 1068YOPC   GL114965   2.009   5.407   6.477  0.1292 -0.2929 -0.1416
 1068YOPC   GL214966   1.634   5.393   6.469  0.3557  0.0116 -0.0765
 1068YOPC   C1A14967   1.976   5.591   6.788  0.0106 -0.0517 -0.1949
 1068YOPC   D2A14968   1.904   5.779   7.264  0.1056  0.0032  0.3294
 1068YOPC   C3A14969   1.578   5.632   7.363 -0.3074  0.0564 -0.0035
 1068YOPC   C4A14970   1.170   5.719   7.545  0.0853 -0.1435 -0.1488
 1068YOPC   C1B14971   1.498   5.331   6.972 -0.2333 -0.0592 -0.2418
 1068YOPC   C2B14972   1.351   5.199   7.423 -0.0056 -0.0070  0.0922
 1068YOPC   D3B14973   1.623   5.308   7.752  0.3926  0.0321  0.2140
 1068YOPC   C4B14974   1.736   5.471   8.150 -0.2832  0.2290 -0.0591
 1069YOPC   NC314975   3.471  16.578   6.485  0.2638  0.0583  0.0804
 1069YOPC   PO414976   3.801  16.310   6.377  0.3607 -0.2300  0.1478
 1069YOPC   GL114977   3.977  16.060   6.724  0.0050  0.1123  0.0928
 1069YOPC   GL214978   3.936  16.274   7.060  0.0890  0.2120  0.1720
 1069YOPC   C1A14979   3.951  15.771   7.066  0.2002 -0.2973  0.0367
 1069YOPC   D2A14980   3.670  15.542   7.269  0.0076  0.0482  0.1429
 1069YOPC   C3A14981   3.778  15.579   7.645 -0.0902  0.0259  0.1335
 1069YOPC   C4A14982   3.451  15.389   8.034 -0.3557  0.1229  0.0250
 1069YOPC   C1B14983   3.931  16.160   7.432 -0.1002  0.2476  0.0754
 1069YOPC   C2B14984   3.947  16.035   7.877  0.4886 -0.1258  0.2262
 1069YOPC   D3B14985   3.773  15.807   8.145  0.4398  0.1642 -0.1978
 1069YOPC   C4B14986   3.937  15.702   8.560  0.1425 -0.0532 -0.0449
 1070YOPC   NC314987  13.534   6.894   5.779 -0.1662 -0.3174 -0.0308
 1070YOPC   PO414988  13.580   7.247   6.008 -0.1210 -0.1053  0.4865
 1070YOPC   GL114989  13.423   7.656   6.330 -0.1121  0.1671  0.1917
 1070YOPC   GL214990  13.428   7.941   6.190  0.0573 -0.0553  0.0856
 1070YOPC   C1A14991  13.511   8.006   6.692  0.0660  0.4128  0.1259
 1070YOPC   D2A14992  13.363   8.079   7.034  0.4882 -0.2908 -0.2666
 1070YOPC   C3A14993  13.545   7.984   7.311  0.0184 -0.0309  0.0141
 1070YOPC   C4A14994  13.626   7.856   7.683  0.2259 -0.1651  0.2170
 1070YOPC   C1B14995  13.275   8.271   6.391 -0.0632 -0.0353 -0.0318
 1070YOPC   C2B14996  13.235   8.635   6.646  0.1051 -0.1398  0.0037
 1070YOPC   D3B14997  13.132   8.535   7.069 -0.0146  0.1608  0.3147
 1070YOPC   C4B14998  13.105   8.727   7.479 -0.2226 -0.1635  0.0317
 1071YOPC   NC314999   4.469  10.278   6.182  0.2081  0.2026  0.0207
 1071YOPC   PO415000   4.175  10.232   5.883  0.2356 -0.0309 -0.0956
 1071YOPC   GL115001   3.973  10.161   6.364  0.1352  0.2524 -0.3610
 1071YOPC   GL215002   4.208   9.957   6.627 -0.0307  0.0055  0.0186
 1071YOPC   C1A15003   3.833  10.269   6.855  0.0592 -0.0603 -0.0467
 1071YOPC   D2A15004   3.843  10.022   7.327  0.0442  0.2704 -0.1334
 1071YOPC   C3A15005   3.514  10.062   7.583  0.1765 -0.1950 -0.3171
 1071YOPC   C4A15006   3.216  10.082   7.744  0.0817 -0.0620 -0.1885
 1071YOPC   C1B15007   4.286   9.857   7.069 -0.3916  0.0323 -0.1749
 1071YOPC   C2B15008   4.282   9.809   7.506 -0.0151  0.1145  0.0012
 1071YOPC   D3B15009   4.079  10.058   7.849 -0.1781 -0.0971  0.2110
 1071YOPC   C4B15010   3.704  10.047   8.231 -0.2617  0.0651  0.3143
 1072YOPC   NC315011   2.017   0.668   6.716  0.1348  0.3288 -0.0475
 1072YOPC   PO415012   1.774   1.028   6.530  0.1142 -0.0517  0.1338
 1072YOPC   GL115013   1.925   1.103   6.889  0.2221  0.1897 -0.1139
 1072YOPC   GL215014   1.848   1.516   7.027  0.0703 -0.0086  0.3146
 1072YOPC   C1A15015   1.937   1.032   7.306 -0.4195 -0.0744 -0.0393
 1072YOPC   D2A15016   1.880   0.754   7.623 -0.0081  0.1108  0.1115
 1072YOPC   C3A15017   1.926   0.870   8.023  0.0911  0.0098  0.1861
 1072YOPC   C4A15018   2.249   0.832   8.313 -0.0988 -0.1044  0.2197
 1072YOPC   C1B15019   1.512   1.593   7.323  0.0740 -0.0425 -0.2551
 1072YOPC   C2B15020   1.150   1.561   7.552  0.0593  0.0218 -0.1633
 1072YOPC   D3B15021   1.230   1.644   8.020  0.0881  0.0442 -0.0566
 1072YOPC   C4B15022   1.340   1.566   8.522 -0.2815  0.2539 -0.3471
 1073YOPC   NC315023   9.889   4.995   5.662 -0.1019  0.3029  0.0430
 1073YOPC   PO415024   9.476   5.240   5.551 -0.0525 -0.2551 -0.0873
 1073YOPC   GL115025   9.515   5.028   5.985  0.1311  0.3104  0.1586
 1073YOPC   GL215026   9.835   4.819   6.301  0.5463 -0.2588 -0.0010
 1073YOPC   C1A15027   9.444   5.169   6.438 -0.0156  0.4316 -0.3221
 1073YOPC   D2A15028   9.450   5.266   6.832 -0.2291  0.2885 -0.1922
 1073YOPC   C3A15029   9.305   5.535   7.016  0.1825  0.4259  0.1282
 1073YOPC   C4A15030   9.143   5.903   7.090  0.1722  0.0728  0.0869
 1073YOPC   C1B15031  10.046   4.665   6.611 -0.1709  0.1269  0.2786
 1073YOPC   C2B15032  10.213   4.283   6.857  0.0869  0.1820 -0.1319
 1073YOPC   D3B15033  10.494   4.196   7.205 -0.0175  0.2758 -0.1532
 1073YOPC   C4B15034  10.636   3.938   7.603 -0.2248  0.2272 -0.2141
 1074YOPC   NC315035  13.306  16.205   6.030  0.0286  0.1902  0.0981
 1074YOPC   PO415036  12.826  16.116   5.965  0.1238 -0.1089  0.0380
 1074YOPC   GL115037  12.914  16.174   6.441  0.0280 -0.0887  0.1756
 1074YOPC   GL215038  13.266  16.064   6.544  0.1842  0.2386 -0.1381
 1074YOPC   C1A15039  12.889  16.120   6.871 -0.0120 -0.2044 -0.1503
 1074YOPC   D2A15040  13.005  16.108   7.258 -0.3263 -0.0835 -0.0899
 1074YOPC   C3A15041  13.343  16.303   7.486  0.1375 -0.1724  0.0565
 1074YOPC   C4A15042  13.428  16.384   7.927 -0.0279  0.1201  0.2910
 1074YOPC   C1B15043  13.368  16.242   6.842 -0.3797 -0.1546  0.1116
 1074YOPC   C2B15044  13.622  16.710   6.789  0.0141 -0.0191 -0.1080
 1074YOPC   D3B15045  13.620  16.717   7.187 -0.1982 -0.1857  0.0812
 1074YOPC   C4B15046  13.419  16.746   7.531 -0.4127  0.2875 -0.0928
 1075YOPC   NC315047   2.705   2.349   6.607  0.0516  0.0101  0.0839
 1075YOPC   PO415048   2.560   1.906   6.604 -0.0603 -0.0324  0.1176
 1075YOPC   GL115049   2.538   1.976   6.999 -0.0578  0.2176  0.1471
 1075YOPC   GL215050   2.585   2.234   7.082  0.2397 -0.0471 -0.1652
 1075YOPC   C1A15051   2.250   1.771   7.193 -0.1120 -0.1332  0.2195
 1075YOPC   D2A15052   1.961   1.840   7.378  0.0260 -0.4501 -0.0230
 1075YOPC   C3A15053   1.734   2.011   7.699  0.1735  0.1084  0.2388
 1075YOPC   C4A15054   1.705   1.886   8.101  0.0814  0.3190 -0.1570
 1075YOPC   C1B15055   2.764   2.266   7.498 -0.2079  0.1126  0.0745
 1075YOPC   C2B15056   2.783   2.489   7.790  0.0551  0.0976 -0.0731
 1075YOPC   D3B15057   3.056   2.537   8.134  0.4601  0.0974  0.0424
 1075YOPC   C4B15058   3.182   2.797   8.452  0.0196 -0.2891 -0.0676
 1076YOPC   NC315059  12.116   5.877   5.768  0.1609  0.4313  0.0276
 1076YOPC   PO415060  11.624   5.954   5.686 -0.2486  0.0457 -0.0123
 1076YOPC   GL115061  11.428   5.761   6.120  0.0200  0.0765 -0.3225
 1076YOPC   GL215062  11.170   5.440   6.099  0.1062 -0.0134  0.0079
 1076YOPC   C1A15063  11.293   5.841   6.556  0.0065  0.0496  0.1173
 1076YOPC   D2A15064  11.257   5.890   6.975  0.0327  0.0469 -0.1362
 1076YOPC   C3A15065  11.560   5.881   7.346 -0.1257  0.0286 -0.1827
 1076YOPC   C4A15066  11.652   5.800   7.719 -0.2025 -0.2489  0.1362
 1076YOPC   C1B15067  10.997   5.376   6.573  0.1061  0.3843 -0.1033
 1076YOPC   C2B15068  10.881   5.590   6.979  0.0204  0.2272 -0.2125
 1076YOPC   D3B15069  11.170   5.604   7.381 -0.1764 -0.0878 -0.0918
 1076YOPC   C4B15070  11.379   5.406   7.707 -0.1107  0.1452  0.0299
 1077YOPC   NC315071  15.936  15.613   6.366  0.0660 -0.3331 -0.0756
 1077YOPC   PO415072  16.298  15.372   6.337  0.1119 -0.1785 -0.2126
 1077YOPC   GL115073  16.355  15.570   6.716 -0.0293  0.0416  0.0172
 1077YOPC   GL215074  16.597  15.580   6.941 -0.0907 -0.1308 -0.0590
 1077YOPC   C1A15075  16.239  15.375   7.204 -0.0758 -0.0335 -0.0427
 1077YOPC   D2A15076  16.158  15.201   7.632  0.3643  0.2617 -0.0188
 1077YOPC   C3A15077  15.809  15.437   7.950 -0.0508  0.1412 -0.1592
 1077YOPC   C4A15078  15.725  15.924   8.111 -0.1666  0.2415  0.0526
 1077YOPC   C1B15079  16.695  15.537   7.397  0.0078  0.1531 -0.1929
 1077YOPC   C2B15080  16.850  15.622   7.735  0.1015  0.1984 -0.1732
 1077YOPC   D3B15081  16.916  15.315   8.129  0.1446  0.0207  0.0277
 1077YOPC   C4B15082  17.024  15.084   8.575 -0.2148  0.0052 -0.1158
 1078YOPC   NC315083  15.897  12.874   6.048 -0.0656  0.1462 -0.0731
 1078YOPC   PO415084  15.882  13.279   6.056  0.1824 -0.2538 -0.1116
 1078YOPC   GL115085  15.965  13.150   6.497 -0.0040 -0.2274  0.0882
 1078YOPC   GL215086  16.314  13.257   6.623 -0.2234  0.1528  0.0504
 1078YOPC   C1A15087  15.664  13.159   6.831  0.1086  0.3233  0.0627
 1078YOPC   D2A15088  15.768  12.856   7.228 -0.1523  0.0910  0.0776
 1078YOPC   C3A15089  15.890  12.430   7.132  0.2193  0.0606  0.2982
 1078YOPC   C4A15090  16.071  12.219   7.377  0.1372  0.3247 -0.2289
 1078YOPC   C1B15091  16.093  13.224   7.014 -0.2252 -0.1471  0.0407
 1078YOPC   C2B15092  16.221  13.117   7.345 -0.1029  0.2122 -0.1243
 1078YOPC   D3B15093  15.915  13.302   7.654 -0.1485 -0.2485 -0.0236
 1078YOPC   C4B15094  15.732  13.455   8.013  0.0114  0.0285  0.0257
 1079YOPC   NC315095   8.071   6.867   6.205 -0.0350  0.3715 -0.0317
 1079YOPC   PO415096   7.721   6.670   6.214  0.0152 -0.0650 -0.0430
 1079YOPC   GL115097   7.603   6.430   6.647  0.2950 -0.3236  0.1310
 1079YOPC   GL215098   7.363   6.314   6.572 -0.0170 -0.0056 -0.0306
 1079YOPC   C1A15099   7.706   6.552   7.019  0.3993  0.0579  0.1423
 1079YOPC   D2A15100   7.684   6.363   7.448  0.1310  0.2485  0.0806
 1079YOPC   C3A15101   7.823   6.572   7.808 -0.2657 -0.0221 -0.2544
 1079YOPC   C4A15102   8.118   6.799   8.149  0.2163  0.3350 -0.2393
 1079YOPC   C1B15103   7.361   6.215   7.074 -0.1316  0.1257  0.1773
 1079YOPC   C2B15104   7.205   6.364   7.580 -0.2995 -0.0805 -0.2015
 1079YOPC   D3B15105   7.399   6.488   8.005 -0.0229  0.1060 -0.1215
 1079YOPC   C4B15106   7.667   6.782   8.351  0.0398  0.0028 -0.0031
 1080YOPC   NC315107   4.293   5.455   6.227 -0.1711  0.0489  0.0368
 1080YOPC   PO415108   3.975   5.308   6.252  0.3373  0.1394 -0.0067
 1080YOPC   GL115109   3.793   5.486   6.551 -0.0779 -0.1558  0.1873
 1080YOPC   GL215110   3.636   5.675   6.529 -0.0698  0.1657 -0.0424
 1080YOPC   C1A15111   3.631   5.289   6.935  0.1470  0.1716 -0.3176
 1080YOPC   D2A15112   3.404   5.438   7.287 -0.0989 -0.2840  0.1682
 1080YOPC   C3A15113   2.985   5.262   7.365 -0.1335 -0.0175  0.3262
 1080YOPC   C4A15114   2.632   5.416   7.457 -0.1525  0.2635 -0.1466
 1080YOPC   C1B15115   3.682   5.803   7.021  0.3415  0.2028  0.1751
 1080YOPC   C2B15116   3.580   5.962   7.320 -0.1741  0.0075 -0.3462
 1080YOPC   D3B15117   3.242   6.317   7.313 -0.0203 -0.1816 -0.0926
 1080YOPC   C4B15118   2.943   6.606   7.297 -0.1187 -0.1213 -0.1334
 1081YOPC   NC315119  14.762   1.490   6.295 -0.0765 -0.1820 -0.2360
 1081YOPC   PO415120  14.357   1.170   6.422 -0.3164  0.0436 -0.5313
 1081YOPC   GL115121  14.345   1.448   6.796  0.2735 -0.0769  0.0124
 1081YOPC   GL215122  14.616   1.603   6.761  0.0684  0.3771 -0.2112
 1081YOPC   C1A15123  14.166   1.563   7.130  0.0407 -0.0698  0.1553
 1081YOPC   D2A15124  13.876   1.587   7.463  0.2911  0.2942 -0.1972
 1081YOPC   C3A15125  14.097   1.751   7.864 -0.4243  0.3457 -0.1475
 1081YOPC   C4A15126  14.201   1.855   8.183 -0.3328  0.0710 -0.0895
 1081YOPC   C1B15127  14.663   1.571   7.156 -0.1093 -0.0092  0.0057
 1081YOPC   C2B15128  14.545   1.663   7.669  0.0881  0.0826  0.3747
 1081YOPC   D3B15129  14.608   2.053   7.930 -0.0070 -0.0499  0.0730
 1081YOPC   C4B15130  14.555   2.295   8.374 -0.1141 -0.0514 -0.1504
 1082YOPC   NC315131   6.520  13.949   6.147 -0.2571 -0.1166  0.1234
 1082YOPC   PO415132   6.152  14.313   6.150 -0.0219  0.0146  0.2004
 1082YOPC   GL115133   6.437  14.317   6.463 -0.1739 -0.0108 -0.2645
 1082YOPC   GL215134   6.721  14.169   6.607 -0.0168 -0.2436  0.1702
 1082YOPC   C1A15135   6.375  14.521   6.859 -0.1088 -0.2252 -0.0228
 1082YOPC   D2A15136   6.197  14.381   7.343 -0.0263  0.0654  0.0130
 1082YOPC   C3A15137   6.406  14.543   7.684 -0.3348  0.1673  0.1344
 1082YOPC   C4A15138   6.369  14.666   8.111  0.2715 -0.0808  0.0182
 1082YOPC   C1B15139   6.665  14.180   7.090 -0.0658 -0.0582  0.1161
 1082YOPC   C2B15140   6.843  14.416   7.386 -0.1346  0.2328  0.1077
 1082YOPC   D3B15141   6.870  14.391   7.833  0.2699 -0.0136  0.2074
 1082YOPC   C4B15142   6.998  14.421   8.298 -0.2497 -0.1444  0.2219
 1083YOPC   NC315143   3.179   6.910   5.994 -0.3349 -0.1146  0.0992
 1083YOPC   PO415144   3.232   6.429   5.904 -0.1060  0.0989 -0.1363
 1083YOPC   GL115145   3.385   6.500   6.290  0.0161  0.1667 -0.2180
 1083YOPC   GL215146   3.630   6.193   6.438 -0.1783 -0.0517 -0.2749
 1083YOPC   C1A15147   3.372   6.705   6.733  0.0153  0.3510  0.1172
 1083YOPC   D2A15148   3.464   6.771   7.156 -0.1126  0.0634  0.0874
 1083YOPC   C3A15149   3.233   7.026   7.349  0.1356  0.2784  0.3225
 1083YOPC   C4A15150   3.193   6.989   7.791  0.0689  0.2474  0.0053
 1083YOPC   C1B15151   3.658   6.307   6.979 -0.1924 -0.1530  0.1972
 1083YOPC   C2B15152   3.771   6.428   7.356 -0.0021  0.1396 -0.0470
 1083YOPC   D3B15153   3.531   6.490   7.699  0.1387  0.1635  0.0848
 1083YOPC   C4B15154   3.813   6.597   7.970 -0.1392 -0.1921 -0.2769
 1084YOPC   NC315155  15.586  16.473   6.478  0.1813  0.1066  0.2046
 1084YOPC   PO415156  15.566  16.875   6.709 -0.0502 -0.1406  0.1883
 1084YOPC   GL115157  15.625  17.097   7.100  0.2465 -0.0729  0.0966
 1084YOPC   GL215158  15.424  17.362   6.823  0.3430  0.0504  0.0702
 1084YOPC   C1A15159  15.533  17.084   7.543 -0.0424 -0.0283 -0.4297
 1084YOPC   D2A15160  15.468  17.044   7.975 -0.2557  0.1795 -0.1769
 1084YOPC   C3A15161  15.467  16.848   8.392 -0.3202 -0.1331 -0.2430
 1084YOPC   C4A15162  15.059  16.983   8.701  0.1607  0.2040 -0.1997
 1084YOPC   C1B15163  15.330  17.513   7.156 -0.0912 -0.0184 -0.0348
 1084YOPC   C2B15164  15.370  17.602   7.651 -0.2256 -0.1764  0.0071
 1084YOPC   D3B15165  15.221  17.504   8.030 -0.1683 -0.2253  0.1329
 1084YOPC   C4B15166  15.103  17.739   8.390  0.2566 -0.0586  0.0192
 1085YOPC   NC315167  13.260  15.223   6.282 -0.0450 -0.0517 -0.0891
 1085YOPC   PO415168  13.627  15.555   6.199 -0.0665 -0.0089 -0.4253
 1085YOPC   GL115169  13.490  15.552   6.622  0.1044  0.1069  0.0123
 1085YOPC   GL215170  13.688  15.799   6.782 -0.3932 -0.0166  0.0732
 1085YOPC   C1A15171  13.380  15.701   7.142  0.1096  0.0763  0.0768
 1085YOPC   D2A15172  13.335  15.792   7.564 -0.0729 -0.0195  0.1877
 1085YOPC   C3A15173  13.490  15.917   7.933  0.0292 -0.1163  0.1283
 1085YOPC   C4A15174  13.560  16.179   8.345  0.1085  0.0062  0.0857
 1085YOPC   C1B15175  14.091  15.812   6.960  0.0954  0.2492  0.2721
 1085YOPC   C2B15176  14.433  15.974   7.211  0.4055  0.0595  0.2753
 1085YOPC   D3B15177  14.337  15.871   7.618  0.0315  0.1040  0.1514
 1085YOPC   C4B15178  14.457  15.864   7.995  0.2734  0.1118 -0.1108
 1086YOPC   NC315179  16.092  10.293   5.353  0.1226  0.1563 -0.0089
 1086YOPC   PO415180  15.686  10.388   5.551 -0.1143 -0.1756  0.0288
 1086YOPC   GL115181  15.936  10.232   5.904  0.1375 -0.3202  0.2035
 1086YOPC   GL215182  15.709  10.014   5.969  0.1885 -0.1685  0.0927
 1086YOPC   C1A15183  16.060  10.269   6.337  0.1306  0.1211  0.0242
 1086YOPC   D2A15184  16.186  10.461   6.710 -0.0511  0.2420  0.0996
 1086YOPC   C3A15185  15.997  10.875   6.763  0.1219 -0.1411 -0.0454
 1086YOPC   C4A15186  15.831  11.178   6.513 -0.3813 -0.1970 -0.0008
 1086YOPC   C1B15187  15.484  10.163   6.317  0.1655 -0.0650 -0.0213
 1086YOPC   C2B15188  15.336  10.230   6.798 -0.2393  0.2165 -0.1566
 1086YOPC   D3B15189  15.215  10.010   7.249  0.0979 -0.3887 -0.0780
 1086YOPC   C4B15190  15.186   9.805   7.541  0.0499  0.0807  0.0337
 1087YOPC   NC315191  15.803   4.079   5.952  0.1376 -0.2347  0.1769
 1087YOPC   PO415192  15.795   3.696   6.091 -0.0738  0.1144  0.5008
 1087YOPC   GL115193  15.978   3.832   6.348  0.1701 -0.3865 -0.2254
 1087YOPC   GL215194  15.742   4.029   6.561 -0.0267  0.1491  0.1738
 1087YOPC   C1A15195  16.203   3.929   6.741  0.0350  0.0964  0.1433
 1087YOPC   D2A15196  16.574   3.840   6.838  0.1832  0.2012 -0.1805
 1087YOPC   C3A15197  16.607   3.849   7.348  0.0215  0.3208  0.1871
 1087YOPC   C4A15198  16.736   3.869   7.808 -0.2592 -0.0483 -0.0210
 1087YOPC   C1B15199  15.751   4.056   7.023 -0.2152 -0.1100 -0.0005
 1087YOPC   C2B15200  15.730   4.065   7.479  0.0331 -0.1484 -0.2244
 1087YOPC   D3B15201  15.860   4.160   7.989 -0.0593  0.0032 -0.1337
 1087YOPC   C4B15202  16.059   4.238   8.378  0.1895  0.0195 -0.0863
 1088YOPC   NC315203  11.834  10.695   5.958 -0.0863 -0.2058 -0.1328
 1088YOPC   PO415204  12.242  10.807   5.810 -0.0632  0.0868  0.3622
 1088YOPC   GL115205  12.252  10.709   6.234  0.2196  0.0805 -0.0290
 1088YOPC   GL215206  12.536  10.872   6.500 -0.0071  0.0080  0.0385
 1088YOPC   C1A15207  12.095  10.561   6.689  0.0325 -0.1473 -0.2741
 1088YOPC   D2A15208  12.057  10.147   6.993 -0.0318  0.0826 -0.1797
 1088YOPC   C3A15209  11.906  10.182   7.448  0.0263 -0.1504 -0.0854
 1088YOPC   C4A15210  11.871  10.281   7.889  0.2541  0.0621  0.3431
 1088YOPC   C1B15211  12.898  10.890   6.804  0.0622  0.0615 -0.2156
 1088YOPC   C2B15212  12.916  10.887   7.219 -0.0169  0.4457 -0.0675
 1088YOPC   D3B15213  13.143  11.017   7.608  0.0079  0.0293 -0.1050
 1088YOPC   C4B15214  12.930  11.193   7.968 -0.2894  0.2730 -0.0718
 1089YOPC   NC315215  10.724   7.164   5.736  0.0883  0.0064  0.0086
 1089YOPC   PO415216  11.000   7.210   6.103 -0.3960 -0.1022 -0.0039
 1089YOPC   GL115217  11.009   7.547   6.403 -0.2166 -0.0433  0.4716
 1089YOPC   GL215218  11.064   7.931   6.435  0.0435  0.1240  0.0529
 1089YOPC   C1A15219  11.137   7.262   6.778 -0.0076  0.0729 -0.2343
 1089YOPC   D2A15220  11.173   7.224   7.209  0.0307 -0.0250 -0.1606
 1089YOPC   C3A15221  11.159   7.039   7.622  0.1253 -0.2364  0.1067
 1089YOPC   C4A15222  11.022   6.914   8.043 -0.0687  0.0681 -0.0590
 1089YOPC   C1B15223  10.793   7.878   6.753  0.1665 -0.0676 -0.2078
 1089YOPC   C2B15224  10.727   7.958   7.161  0.1487 -0.1071  0.0396
 1089YOPC   D3B15225  10.565   7.984   7.629  0.1346 -0.2404 -0.1139
 1089YOPC   C4B15226  10.501   7.971   8.072  0.1459  0.2387 -0.1410
 1090YOPC   NC315227   9.566   9.797   5.970  0.2892  0.1435 -0.0891
 1090YOPC   PO415228   9.188   9.946   6.048 -0.0928  0.2767 -0.0763
 1090YOPC   GL115229   9.294  10.040   6.457 -0.1226 -0.1288 -0.1995
 1090YOPC   GL215230   9.624  10.116   6.432  0.2190 -0.1990  0.0613
 1090YOPC   C1A15231   9.201   9.906   6.793 -0.2597  0.0558  0.0834
 1090YOPC   D2A15232   9.036   9.828   7.106 -0.3453  0.0250  0.2014
 1090YOPC   C3A15233   9.155   9.903   7.557  0.0545 -0.1686 -0.2421
 1090YOPC   C4A15234   8.839   9.807   7.957  0.1398  0.0076  0.0210
 1090YOPC   C1B15235   9.652  10.054   6.840  0.1822  0.1979 -0.0141
 1090YOPC   C2B15236   9.534   9.847   7.188  0.2975  0.0949  0.1186
 1090YOPC   D3B15237   9.793   9.807   7.504  0.0591 -0.1688  0.0827
 1090YOPC   C4B15238   9.831   9.462   7.815  0.2798 -0.2149 -0.0032
 1091YOPC   NC315239  12.460  13.186   6.161  0.5234 -0.1508  0.3746
 1091YOPC   PO415240  12.798  13.059   6.320  0.0528 -0.0856 -0.0276
 1091YOPC   GL115241  12.611  12.900   6.792  0.1689  0.0633  0.0165
 1091YOPC   GL215242  12.280  12.939   6.751  0.1208  0.0162 -0.1816
 1091YOPC   C1A15243  12.621  12.866   7.155 -0.0028 -0.1365  0.0486
 1091YOPC   D2A15244  12.619  12.816   7.650  0.0432  0.0687  0.0305
 1091YOPC   C3A15245  12.919  12.562   7.829 -0.5493 -0.0904  0.0093
 1091YOPC   C4A15246  12.911  12.358   8.260  0.2218 -0.1457 -0.1975
 1091YOPC   C1B15247  12.173  13.063   7.190  0.2046  0.3119  0.3173
 1091YOPC   C2B15248  12.111  12.969   7.558 -0.1301  0.3658  0.0417
 1091YOPC   D3B15249  11.976  12.868   7.891  0.2195 -0.2784 -0.1085
 1091YOPC   C4B15250  11.645  12.835   8.189 -0.2250  0.0203  0.0122
 1092YOPC   NC315251  14.596  10.743   5.862  0.0544 -0.0074  0.2413
 1092YOPC   PO415252  14.540  11.254   5.846 -0.2008 -0.0317 -0.3347
 1092YOPC   GL115253  14.576  11.010   6.289 -0.1695 -0.0114  0.2354
 1092YOPC   GL215254  14.914  11.241   6.265 -0.3069 -0.0273 -0.3219
 1092YOPC   C1A15255  14.538  10.729   6.632  0.1087 -0.2707  0.3398
 1092YOPC   D2A15256  14.458  10.555   7.078 -0.1357 -0.1262  0.0067
 1092YOPC   C3A15257  14.703  10.436   7.375 -0.0991  0.0125  0.0150
 1092YOPC   C4A15258  15.006  10.395   7.765 -0.0516  0.0237 -0.0077
 1092YOPC   C1B15259  14.822  11.181   6.721  0.1598  0.0231 -0.0935
 1092YOPC   C2B15260  15.046  11.216   7.145 -0.1401 -0.0066  0.0280
 1092YOPC   D3B15261  14.875  10.929   7.514 -0.1807  0.1901 -0.1683
 1092YOPC   C4B15262  14.624  10.761   7.847 -0.1032  0.0801 -0.0297
 1093YOPC   NC315263  16.321   7.832   5.699  0.0275 -0.1396  0.0987
 1093YOPC   PO415264  16.649   8.015   5.804  0.1446  0.0695  0.2129
 1093YOPC   GL115265  16.808   7.933   6.159 -0.2688 -0.1578  0.0473
 1093YOPC   GL215266  16.617   7.675   6.197 -0.1670 -0.0152 -0.2597
 1093YOPC   C1A15267  16.819   7.899   6.642  0.0442  0.0756  0.0502
 1093YOPC   D2A15268  16.831   7.956   7.053  0.4015 -0.1578 -0.3289
 1093YOPC   C3A15269  17.021   8.077   7.363 -0.2854  0.1903 -0.0997
 1093YOPC   C4A15270  17.174   8.198   7.690 -0.1916 -0.0561 -0.2573
 1093YOPC   C1B15271  16.143   7.983   6.341 -0.0657  0.0744 -0.3219
 1093YOPC   C2B15272  15.855   8.178   6.694 -0.2088  0.0848 -0.1011
 1093YOPC   D3B15273  15.952   8.063   7.126 -0.0654 -0.2734  0.2015
 1093YOPC   C4B15274  16.265   8.096   7.405  0.1432  0.0372 -0.0604
 1094YOPC   NC315275  12.351  16.777   5.975  0.0509 -0.1378 -0.2283
 1094YOPC   PO415276  12.451  16.831   6.456 -0.0226 -0.3002  0.0005
 1094YOPC   GL115277  12.693  17.039   6.775 -0.3242 -0.1274 -0.2838
 1094YOPC   GL215278  12.518  17.328   6.742  0.0244  0.2951 -0.2995
 1094YOPC   C1A15279  12.654  17.185   7.219  0.2940 -0.1005 -0.0756
 1094YOPC   D2A15280  12.569  17.138   7.650 -0.0814 -0.3111  0.3909
 1094YOPC   C3A15281  12.550  16.826   7.901  0.1164 -0.1070 -0.3035
 1094YOPC   C4A15282  12.498  16.384   7.890  0.1719  0.3222  0.0985
 1094YOPC   C1B15283  12.991  17.433   6.958  0.0523  0.1635  0.1643
 1094YOPC   C2B15284  13.359  17.150   6.828 -0.1829  0.1008  0.0768
 1094YOPC   D3B15285  13.750  17.194   7.101  0.1830 -0.3052 -0.1441
 1094YOPC   C4B15286  13.663  17.226   7.493 -0.1628  0.1936 -0.0695
 1095YOPC   NC315287  13.502   1.662   6.077 -0.0778  0.0562 -0.0764
 1095YOPC   PO415288  13.958   1.840   5.960  0.2694  0.0100 -0.0630
 1095YOPC   GL115289  13.932   2.087   6.335  0.1186  0.0424 -0.0571
 1095YOPC   GL215290  13.669   2.156   6.212 -0.0371 -0.0725  0.0347
 1095YOPC   C1A15291  13.875   2.176   6.734 -0.1223  0.0180  0.0296
 1095YOPC   D2A15292  13.562   2.392   7.011 -0.1930 -0.2418 -0.0092
 1095YOPC   C3A15293  13.318   2.323   7.438 -0.0711  0.0305 -0.0364
 1095YOPC   C4A15294  13.284   2.210   7.849  0.1364 -0.0322 -0.3870
 1095YOPC   C1B15295  13.390   2.404   6.436 -0.1783  0.1001 -0.4839
 1095YOPC   C2B15296  13.144   2.533   6.734 -0.0542 -0.1110 -0.1333
 1095YOPC   D3B15297  13.215   2.753   7.212 -0.0383 -0.1548  0.3299
 1095YOPC   C4B15298  13.151   2.907   7.579  0.1862  0.0728 -0.1242
 1096YOPC   NC315299   0.394   4.438   5.900  0.1850 -0.2100  0.0363
 1096YOPC   PO415300   0.084   4.761   5.950 -0.2714 -0.0545  0.0837
 1096YOPC   GL115301   0.066   4.889   6.291 -0.1749 -0.0342  0.2603
 1096YOPC   GL215302   0.123   5.239   6.435 -0.0802  0.0750  0.1913
 1096YOPC   C1A15303  -0.174   4.753   6.643 -0.0941  0.1460 -0.0495
 1096YOPC   D2A15304  -0.366   4.593   6.999  0.0074 -0.3012 -0.0963
 1096YOPC   C3A15305  -0.233   4.763   7.410 -0.3008  0.0475 -0.4395
 1096YOPC   C4A15306   0.239   4.740   7.615  0.0954 -0.1000 -0.0544
 1096YOPC   C1B15307   0.093   5.137   6.753 -0.0856 -0.0527 -0.0065
 1096YOPC   C2B15308   0.116   5.036   7.193  0.3155 -0.3520 -0.3255
 1096YOPC   D3B15309   0.326   5.259   7.533 -0.0151  0.0960  0.0899
 1096YOPC   C4B15310   0.525   5.040   7.885 -0.1480 -0.3346  0.0633
 1097YOPC   NC315311  10.779   9.497   5.793 -0.1292  0.1207 -0.1454
 1097YOPC   PO415312  10.341   9.348   5.855 -0.2673  0.2793 -0.0909
 1097YOPC   GL115313  10.404   9.180   6.259 -0.1145 -0.0697 -0.1085
 1097YOPC   GL215314  10.128   9.222   6.524  0.0283  0.1090 -0.3832
 1097YOPC   C1A15315  10.598   9.346   6.660  0.0508  0.2651 -0.2243
 1097YOPC   D2A15316  10.763   9.518   6.974 -0.1330 -0.1308  0.1551
 1097YOPC   C3A15317  10.719   9.480   7.343 -0.0131  0.0520  0.2272
 1097YOPC   C4A15318  10.815   9.284   7.622 -0.0477  0.1975  0.0876
 1097YOPC   C1B15319  10.201   9.167   6.958 -0.1365 -0.1698 -0.0220
 1097YOPC   C2B15320  10.568   9.052   7.237 -0.3259  0.0732 -0.1218
 1097YOPC   D3B15321  10.508   8.868   7.631  0.1173  0.0071  0.1694
 1097YOPC   C4B15322  10.500   8.891   8.124  0.0715  0.1158 -0.2197
 1098YOPC   NC315323   6.826   8.405   6.267 -0.1678 -0.0773 -0.0565
 1098YOPC   PO415324   7.022   7.937   6.296  0.0788 -0.1178 -0.0012
 1098YOPC   GL115325   7.058   7.796   6.709 -0.2099  0.3185  0.0069
 1098YOPC   GL215326   7.370   7.729   6.683  0.4181  0.1714 -0.0401
 1098YOPC   C1A15327   7.200   7.716   7.232  0.0239 -0.2548  0.2033
 1098YOPC   D2A15328   7.195   7.737   7.662  0.2039 -0.0734 -0.0821
 1098YOPC   C3A15329   7.280   7.579   8.162 -0.1483 -0.1701  0.1759
 1098YOPC   C4A15330   7.549   7.289   8.306  0.1230 -0.1167 -0.0612
 1098YOPC   C1B15331   7.623   7.964   7.074 -0.1098  0.1860 -0.2234
 1098YOPC   C2B15332   7.573   8.041   7.488 -0.2317  0.2084 -0.2403
 1098YOPC   D3B15333   7.928   7.998   7.949 -0.2257 -0.1236 -0.2111
 1098YOPC   C4B15334   8.146   8.013   8.356 -0.0197 -0.2844  0.1909
 1099YOPC   NC315335   2.154   9.877   6.185 -0.0506 -0.3499 -0.0772
 1099YOPC   PO415336   1.795  10.090   6.112  0.2562 -0.0849  0.1501
 1099YOPC   GL115337   1.677   9.973   6.506 -0.0208  0.0188  0.1169
 1099YOPC   GL215338   1.893   9.906   6.674  0.0574 -0.0092 -0.2130
 1099YOPC   C1A15339   1.532   9.598   6.656 -0.0574  0.0481 -0.1172
 1099YOPC   D2A15340   1.450   9.182   6.727  0.2260  0.1083 -0.1376
 1099YOPC   C3A15341   1.101   9.094   6.919 -0.2494 -0.1646 -0.2342
 1099YOPC   C4A15342   1.237   8.999   7.412  0.1747 -0.0671 -0.1712
 1099YOPC   C1B15343   1.872   9.748   7.104 -0.1178  0.2347  0.0259
 1099YOPC   C2B15344   2.000   9.548   7.524 -0.3588 -0.2186 -0.1133
 1099YOPC   D3B15345   1.729   9.315   7.742 -0.2590 -0.0526  0.1824
 1099YOPC   C4B15346   1.711   8.937   7.682 -0.1786  0.1506 -0.1298
 1100YOPC   NC315347  16.979  12.044   5.479 -0.1173 -0.1562  0.1770
 1100YOPC   PO415348  16.819  11.869   5.827  0.2206  0.0085 -0.3264
 1100YOPC   GL115349  16.599  11.978   6.280 -0.2801  0.1219  0.0797
 1100YOPC   GL215350  16.603  11.793   6.424 -0.0795 -0.0077  0.3302
 1100YOPC   C1A15351  16.595  12.246   6.664 -0.1029 -0.0073 -0.0535
 1100YOPC   D2A15352  16.412  12.436   6.983 -0.0717 -0.2027  0.1032
 1100YOPC   C3A15353  16.148  12.751   6.869 -0.2823 -0.1924  0.4136
 1100YOPC   C4A15354  15.807  12.705   6.670 -0.2927  0.0015  0.0775
 1100YOPC   C1B15355  16.502  11.641   6.718 -0.2084  0.3964  0.0567
 1100YOPC   C2B15356  16.324  11.317   6.644  0.1623 -0.0330  0.2803
 1100YOPC   D3B15357  16.127  11.289   7.001  0.0989 -0.0179  0.1025
 1100YOPC   C4B15358  16.275  11.075   7.327  0.1020  0.2570 -0.0539
 1101YOPC   NC315359   9.477  16.901   6.178 -0.1467 -0.1419  0.1842
 1101YOPC   PO415360   9.472  17.332   6.190  0.0241  0.3243  0.2103
 1101YOPC   GL115361   9.261  17.396   6.501  0.2968 -0.0593 -0.0098
 1101YOPC   GL215362   9.213  17.717   6.467  0.0023 -0.0631  0.0183
 1101YOPC   C1A15363   9.092  17.438   6.871 -0.0601  0.2108  0.2472
 1101YOPC   D2A15364   8.809  17.545   7.207  0.1736  0.1787 -0.3688
 1101YOPC   C3A15365   8.486  17.413   7.496  0.1691 -0.2643  0.2082
 1101YOPC   C4A15366   8.234  17.655   7.823 -0.2806 -0.1523 -0.0386
 1101YOPC   C1B15367   9.101  17.912   6.850  0.0349  0.0684 -0.0933
 1101YOPC   C2B15368   9.202  17.906   7.265  0.0810 -0.4467 -0.0126
 1101YOPC   D3B15369   9.026  17.708   7.683  0.0052  0.0570  0.1300
 1101YOPC   C4B15370   9.209  17.641   8.069 -0.0022  0.2252  0.1765
 1102YOPC   NC315371   4.494   8.344   6.036  0.3341 -0.2576  0.2488
 1102YOPC   PO415372   4.916   8.379   5.913 -0.2587  0.1449 -0.2484
 1102YOPC   GL115373   4.928   8.278   6.312  0.1861  0.0239  0.1242
 1102YOPC   GL215374   4.666   8.048   6.536 -0.0701  0.0067  0.0591
 1102YOPC   C1A15375   5.227   8.287   6.723  0.0771  0.3522 -0.0709
 1102YOPC   D2A15376   4.978   8.073   7.170  0.0195 -0.0428  0.2277
 1102YOPC   C3A15377   5.229   8.264   7.488 -0.0138  0.1959  0.1137
 1102YOPC   C4A15378   5.442   8.624   7.685 -0.3353 -0.0187 -0.2956
 1102YOPC   C1B15379   5.056   7.832   6.603 -0.0675  0.3519 -0.1959
 1102YOPC   C2B15380   5.398   7.501   6.623 -0.3437  0.3936  0.0205
 1102YOPC   D3B15381   5.446   7.121   6.857 -0.1291 -0.0384  0.3822
 1102YOPC   C4B15382   5.389   6.817   7.223  0.1107  0.0365 -0.1782
 1103YOPC   NC315383   7.364   2.453   5.807  0.0154  0.2421 -0.0015
 1103YOPC   PO415384   6.965   2.498   5.976 -0.0375  0.2052 -0.0848
 1103YOPC   GL115385   7.142   2.566   6.351 -0.0518  0.2219 -0.0279
 1103YOPC   GL215386   6.933   2.798   6.455  0.0444 -0.0484  0.0983
 1103YOPC   C1A15387   7.212   2.610   6.803 -0.2108 -0.0635  0.1231
 1103YOPC   D2A15388   6.831   2.640   7.043  0.0230 -0.3495 -0.4144
 1103YOPC   C3A15389   6.934   2.576   7.522  0.3267 -0.0563  0.2348
 1103YOPC   C4A15390   7.244   2.566   7.852 -0.1011 -0.0762 -0.1707
 1103YOPC   C1B15391   7.256   3.085   6.783 -0.0991 -0.2347 -0.1790
 1103YOPC   C2B15392   7.611   3.242   6.977 -0.0516  0.2001  0.1496
 1103YOPC   D3B15393   7.841   3.153   7.385 -0.4146  0.1568  0.3748
 1103YOPC   C4B15394   7.964   3.002   7.762  0.2191 -0.1337 -0.1340
 1104YOPC   NC315395  14.291  16.928   6.514 -0.2893  0.1413  0.2241
 1104YOPC   PO415396  14.281  17.372   6.516  0.3470  0.2759 -0.1028
 1104YOPC   GL115397  14.328  17.254   6.909 -0.1236  0.0766 -0.0385
 1104YOPC   GL215398  14.557  17.073   6.961 -0.2961  0.0395 -0.2815
 1104YOPC   C1A15399  14.156  17.360   7.321  0.2990  0.0665 -0.0754
 1104YOPC   D2A15400  14.093  17.348   7.802  0.0748  0.0512 -0.1862
 1104YOPC   C3A15401  13.652  17.309   8.023  0.2884  0.0735  0.0683
 1104YOPC   C4A15402  13.384  16.974   7.950 -0.1171  0.0874 -0.0636
 1104YOPC   C1B15403  14.532  16.972   7.427 -0.2644 -0.0957 -0.0931
 1104YOPC   C2B15404  14.551  16.834   7.828 -0.0361  0.2146 -0.0315
 1104YOPC   D3B15405  14.220  16.994   8.107  0.0874 -0.3563 -0.0466
 1104YOPC   C4B15406  13.883  17.020   8.412 -0.2537 -0.2174 -0.0499
 1105YOPC   NC315407   2.822   0.875   6.506  0.0355 -0.0171  0.3605
 1105YOPC   PO415408   2.406   0.955   6.654  0.1147  0.1374  0.0606
 1105YOPC   GL115409   2.330   0.829   7.070 -0.0975  0.1982  0.1097
 1105YOPC   GL215410   2.468   0.537   7.023 -0.2700 -0.1881 -0.0273
 1105YOPC   C1A15411   2.376   0.786   7.514 -0.4788  0.1952  0.0331
 1105YOPC   D2A15412   2.417   0.696   7.863  0.0612 -0.0505  0.0670
 1105YOPC   C3A15413   2.671   0.962   8.139  0.1311  0.1712  0.0916
 1105YOPC   C4A15414   2.876   1.118   8.512 -0.1846  0.1114  0.1047
 1105YOPC   C1B15415   2.488   0.296   7.482  0.0885  0.0922  0.2161
 1105YOPC   C2B15416   2.464   0.170   7.877 -0.0371 -0.0187  0.0648
 1105YOPC   D3B15417   2.670   0.396   8.141  0.0040  0.0155 -0.1779
 1105YOPC   C4B15418   2.632   0.634   8.521  0.1486  0.1180 -0.1521
 1106YOPC   NC315419   0.849  16.266   6.476 -0.0103  0.1955 -0.1961
 1106YOPC   PO415420   0.633  15.794   6.481 -0.1033  0.1345  0.0633
 1106YOPC   GL115421   0.701  15.523   6.717  0.1603  0.0269 -0.1762
 1106YOPC   GL215422   0.863  15.592   6.970  0.1943 -0.0521  0.2557
 1106YOPC   C1A15423   0.604  15.117   6.882  0.0174  0.0742  0.0030
 1106YOPC   D2A15424   0.875  14.774   7.027 -0.0755 -0.4099  0.2392
 1106YOPC   C3A15425   1.014  14.784   7.475  0.1896 -0.2551 -0.1911
 1106YOPC   C4A15426   1.048  15.076   7.750 -0.0671 -0.1374  0.1672
 1106YOPC   C1B15427   0.870  15.263   7.275 -0.0905  0.1755 -0.2207
 1106YOPC   C2B15428   0.530  14.969   7.358  0.0722 -0.2185 -0.0048
 1106YOPC   D3B15429   0.582  14.839   7.784  0.0021 -0.0955  0.0229
 1106YOPC   C4B15430   0.718  15.250   8.151  0.0528  0.1530 -0.1189
 1107YOPC   NC315431   5.397  10.448   6.091 -0.0143  0.1962 -0.1356
 1107YOPC   PO415432   5.357  10.070   6.278  0.1549  0.0886  0.1463
 1107YOPC   GL115433   5.286   9.883   6.659 -0.0364  0.1412  0.0370
 1107YOPC   GL215434   5.555   9.713   6.695  0.2362 -0.1803 -0.0376
 1107YOPC   C1A15435   5.374   9.882   7.205 -0.2938 -0.3452 -0.0769
 1107YOPC   D2A15436   5.453   9.924   7.660  0.0880 -0.1224 -0.0331
 1107YOPC   C3A15437   5.669  10.203   7.744  0.0122  0.1812 -0.0849
 1107YOPC   C4A15438   5.757  10.433   8.149 -0.0813 -0.1190  0.0139
 1107YOPC   C1B15439   5.747   9.546   7.055  0.1179 -0.0584  0.0488
 1107YOPC   C2B15440   6.031   9.411   7.411  0.1612 -0.2330 -0.2211
 1107YOPC   D3B15441   5.948   9.164   7.718  0.0713 -0.0930 -0.2501
 1107YOPC   C4B15442   5.891   8.762   7.642 -0.3161 -0.2351 -0.1367
 1108YOPC   NC315443   0.530   1.182   6.427 -0.2040 -0.0593  0.3603
 1108YOPC   PO415444   0.474   0.831   6.760  0.2177  0.3329 -0.4075
 1108YOPC   GL115445   0.344   0.987   7.147  0.2330 -0.2618  0.4423
 1108YOPC   GL215446   0.025   1.107   7.296  0.0324 -0.1640 -0.2192
 1108YOPC   C1A15447   0.449   1.120   7.538  0.0318  0.2738  0.1967
 1108YOPC   D2A15448   0.226   1.226   8.017  0.0515 -0.1186  0.0563
 1108YOPC   C3A15449   0.504   1.368   8.283  0.2833 -0.0168 -0.1987
 1108YOPC   C4A15450   0.847   1.563   8.456  0.0470  0.3634  0.0902
 1108YOPC   C1B15451  -0.102   1.189   7.697  0.1514 -0.0015 -0.1375
 1108YOPC   C2B15452  -0.277   1.368   8.132  0.3257 -0.2161 -0.1956
 1108YOPC   D3B15453  -0.035   1.383   8.497 -0.1055  0.0579  0.0769
 1108YOPC   C4B15454  -0.029   1.255   8.884 -0.1401  0.3804  0.0899
 1109YOPC   NC315455   4.236  11.129   6.258  0.0439 -0.1741 -0.2361
 1109YOPC   PO415456   3.819  11.307   6.460  0.2065  0.3690  0.3693
 1109YOPC   GL115457   4.079  11.383   6.775  0.1293 -0.4363  0.1790
 1109YOPC   GL215458   4.335  11.183   6.767 -0.4386  0.1943 -0.0689
 1109YOPC   C1A15459   4.362  11.478   7.164  0.2808  0.0203  0.1047
 1109YOPC   D2A15460   4.339  11.470   7.723  0.0265 -0.2673  0.0748
 1109YOPC   C3A15461   4.216  11.086   7.974  0.0104  0.1508  0.1102
 1109YOPC   C4A15462   4.147  10.894   8.284  0.0887 -0.3167  0.1566
 1109YOPC   C1B15463   4.482  10.893   7.140  0.0710  0.0261 -0.0386
 1109YOPC   C2B15464   4.376  10.809   7.553  0.0784  0.0972  0.1542
 1109YOPC   D3B15465   4.579  10.694   7.902  0.2707  0.0580  0.3721
 1109YOPC   C4B15466   4.485  10.503   8.371 -0.2294 -0.1608 -0.1065
 1110YOPC   NC315467   1.449  12.857   6.186 -0.1898  0.0416  0.0469
 1110YOPC   PO415468   1.577  13.166   6.364  0.1234 -0.0389 -0.2548
 1110YOPC   GL115469   1.501  12.946   6.703 -0.2293 -0.1527 -0.2267
 1110YOPC   GL215470   1.370  12.646   6.662 -0.1118  0.1268  0.1129
 1110YOPC   C1A15471   1.611  12.946   7.161 -0.0339  0.1954  0.0849
 1110YOPC   D2A15472   1.621  12.907   7.562 -0.0131  0.0168 -0.0338
 1110YOPC   C3A15473   1.757  12.897   7.948  0.1052 -0.1869 -0.1114
 1110YOPC   C4A15474   1.636  12.795   8.403 -0.2486 -0.1622  0.3075
 1110YOPC   C1B15475   1.263  12.368   7.002 -0.0436  0.1695 -0.1166
 1110YOPC   C2B15476   1.074  11.980   7.228 -0.2084  0.0194 -0.2014
 1110YOPC   D3B15477   0.678  12.034   7.493  0.0734  0.1830  0.0472
 1110YOPC   C4B15478   0.536  12.214   7.806 -0.1747 -0.2280  0.1544
 1111YOPC   NC315479   1.709  16.466   6.435  0.1206 -0.0038 -0.1593
 1111YOPC   PO415480   1.379  16.166   6.422  0.0568 -0.1275 -0.1206
 1111YOPC   GL115481   1.462  16.135   6.765 -0.2513 -0.0754  0.0136
 1111YOPC   GL215482   1.568  15.867   6.889 -0.1846  0.1254 -0.1956
 1111YOPC   C1A15483   1.414  16.225   7.269  0.1586 -0.1895 -0.0674
 1111YOPC   D2A15484   1.236  16.084   7.660 -0.2523  0.2165  0.2529
 1111YOPC   C3A15485   1.588  16.079   8.098  0.2204  0.0250  0.3951
 1111YOPC   C4A15486   1.521  16.249   8.476  0.2083 -0.1779 -0.2212
 1111YOPC   C1B15487   1.820  15.841   7.240 -0.1970  0.2765  0.0182
 1111YOPC   C2B15488   1.747  15.734   7.671  0.3906  0.0267  0.0053
 1111YOPC   D3B15489   1.520  15.631   8.012  0.0204 -0.0222 -0.2056
 1111YOPC   C4B15490   1.242  15.643   8.269 -0.0164  0.3059 -0.1984
 1112YOPC   NC315491   1.012  12.112   5.959 -0.0763  0.1527  0.1026
 1112YOPC   PO415492   1.159  12.437   6.189  0.3357  0.0743 -0.2086
 1112YOPC   GL115493   1.197  12.045   6.435 -0.2448  0.1037  0.3123
 1112YOPC   GL215494   0.850  12.000   6.421  0.0105  0.3188 -0.1683
 1112YOPC   C1A15495   1.312  11.811   6.795 -0.0742  0.0504  0.0660
 1112YOPC   D2A15496   1.616  11.954   7.152 -0.3678 -0.2340 -0.3144
 1112YOPC   C3A15497   1.439  11.927   7.521  0.1660 -0.3131  0.0119
 1112YOPC   C4A15498   1.107  11.953   7.796 -0.1835 -0.1578 -0.1742
 1112YOPC   C1B15499   0.746  12.068   6.853  0.0699  0.1121  0.2052
 1112YOPC   C2B15500   0.847  12.431   7.240  0.1328  0.1593 -0.0362
 1112YOPC   D3B15501   1.168  12.476   7.517 -0.1698  0.0131  0.0275
 1112YOPC   C4B15502   1.274  12.604   7.969 -0.0584 -0.0690 -0.2500
 1113YOPC   NC315503  12.408  14.266   6.771 -0.2050  0.1818 -0.0840
 1113YOPC   PO415504  12.114  13.908   6.729 -0.1853  0.1840 -0.1978
 1113YOPC   GL115505  12.186  14.096   7.169  0.3473  0.2336 -0.0567
 1113YOPC   GL215506  12.437  13.945   7.151  0.0213 -0.1286 -0.2123
 1113YOPC   C1A15507  12.097  14.003   7.610 -0.0515  0.2400  0.1471
 1113YOPC   D2A15508  11.853  13.944   7.939 -0.1257  0.0498  0.1139
 1113YOPC   C3A15509  11.777  14.072   8.273 -0.2627 -0.1314 -0.3510
 1113YOPC   C4A15510  11.452  14.103   8.458  0.1767  0.2041  0.0363
 1113YOPC   C1B15511  12.552  13.795   7.563 -0.0076 -0.1307 -0.2763
 1113YOPC   C2B15512  12.403  13.814   7.949  0.1566 -0.3559 -0.0120
 1113YOPC   D3B15513  12.652  13.648   8.209 -0.3676 -0.1330  0.2736
 1113YOPC   C4B15514  13.052  13.538   8.206  0.0873 -0.0666 -0.1802
 1114YOPC   NC315515   8.461   7.784   5.712 -0.0922 -0.1096  0.0335
 1114YOPC   PO415516   8.435   8.165   5.910 -0.0477  0.0866  0.2330
 1114YOPC   GL115517   8.709   7.929   6.181  0.0799 -0.1496  0.1795
 1114YOPC   GL215518   8.638   8.068   6.464  0.0647  0.0598 -0.3695
 1114YOPC   C1A15519   8.676   7.559   6.449  0.1973 -0.1321  0.2216
 1114YOPC   D2A15520   8.781   7.265   6.858 -0.1792  0.1034  0.1157
 1114YOPC   C3A15521   8.406   7.153   7.018 -0.4025  0.1141  0.1994
 1114YOPC   C4A15522   8.129   6.728   6.853  0.1357 -0.0472  0.1643
 1114YOPC   C1B15523   8.645   8.133   6.856 -0.1314 -0.1865  0.1560
 1114YOPC   C2B15524   8.516   8.114   7.236  0.0576 -0.1948  0.0578
 1114YOPC   D3B15525   8.426   8.087   7.680  0.4153  0.0042  0.2909
 1114YOPC   C4B15526   8.517   7.823   8.003  0.3522  0.1221  0.0309
 1115YOPC   NC315527   6.400   9.331   6.134  0.0472 -0.0407 -0.0319
 1115YOPC   PO415528   6.774   9.451   6.285  0.6082  0.1610  0.1072
 1115YOPC   GL115529   6.487   9.572   6.618 -0.0539 -0.1261 -0.1387
 1115YOPC   GL215530   6.082   9.526   6.447 -0.0750  0.1277 -0.1100
 1115YOPC   C1A15531   6.297   9.645   7.057 -0.0801 -0.0590 -0.2201
 1115YOPC   D2A15532   6.468   9.958   7.380 -0.2952  0.1366  0.2861
 1115YOPC   C3A15533   6.422   9.790   7.797 -0.1855 -0.0679 -0.1486
 1115YOPC   C4A15534   6.752   9.698   8.156  0.0050  0.1539  0.3884
 1115YOPC   C1B15535   5.969   9.189   6.856  0.1662 -0.0397 -0.2825
 1115YOPC   C2B15536   5.916   8.891   7.153  0.2727 -0.3211 -0.1071
 1115YOPC   D3B15537   5.600   9.090   7.288 -0.0637  0.0722  0.1802
 1115YOPC   C4B15538   5.531   9.413   7.567 -0.1351 -0.0870  0.2859
 1116YOPC   NC315539   5.934  16.406   6.261 -0.1294  0.1732 -0.3274
 1116YOPC   PO415540   6.243  16.816   6.241  0.3618  0.0733  0.2403
 1116YOPC   GL115541   6.602  16.794   6.504  0.4822  0.1274  0.0890
 1116YOPC   GL215542   6.576  16.503   6.673 -0.3611 -0.0064 -0.3160
 1116YOPC   C1A15543   6.868  16.923   6.763  0.2953 -0.0378  0.1593
 1116YOPC   D2A15544   7.140  16.709   7.089  0.0903 -0.2698  0.1356
 1116YOPC   C3A15545   6.826  16.392   7.251  0.1855 -0.0297  0.1223
 1116YOPC   C4A15546   6.751  16.238   7.696  0.0252 -0.1300 -0.0587
 1116YOPC   C1B15547   6.829  16.092   6.840  0.4450  0.0328 -0.1521
 1116YOPC   C2B15548   6.956  15.713   6.773 -0.0699  0.1678  0.1307
 1116YOPC   D3B15549   7.248  15.568   7.174  0.0711 -0.0921  0.0983
 1116YOPC   C4B15550   7.337  15.673   7.582  0.0633  0.0190  0.1651
 1117YOPC   NC315551  12.580   9.439   5.921  0.1288 -0.1687 -0.1197
 1117YOPC   PO415552  12.676   9.856   5.811 -0.0739 -0.0220  0.1260
 1117YOPC   GL115553  12.975   9.702   6.146  0.1654 -0.2219 -0.1774
 1117YOPC   GL215554  12.775   9.720   6.358  0.3395  0.0364  0.0387
 1117YOPC   C1A15555  13.235   9.505   6.447 -0.1373 -0.1475 -0.0808
 1117YOPC   D2A15556  13.319   9.385   6.909  0.0238 -0.2381 -0.0782
 1117YOPC   C3A15557  13.390   9.507   7.264 -0.3273  0.1752 -0.0565
 1117YOPC   C4A15558  13.204   9.661   7.685  0.1429 -0.0435  0.1496
 1117YOPC   C1B15559  12.839   9.497   6.856 -0.1288  0.2443  0.0001
 1117YOPC   C2B15560  12.642   9.460   7.119  0.0718  0.1160 -0.0142
 1117YOPC   D3B15561  12.747   9.601   7.525 -0.0912 -0.0045  0.0123
 1117YOPC   C4B15562  12.665   9.725   7.933  0.0644  0.0398  0.2765
 1118YOPC   NC315563  13.396  11.606   5.789 -0.2512  0.1037  0.1689
 1118YOPC   PO415564  13.444  11.996   6.030  0.0186  0.0118  0.5280
 1118YOPC   GL115565  13.256  12.038   6.295  0.1635 -0.0610  0.2398
 1118YOPC   GL215566  12.996  11.877   6.509  0.0007 -0.2105  0.2459
 1118YOPC   C1A15567  13.246  12.271   6.794  0.1299  0.1132 -0.0030
 1118YOPC   D2A15568  13.554  12.266   7.165  0.1071  0.0098 -0.1193
 1118YOPC   C3A15569  13.304  12.032   7.428 -0.1651  0.0358  0.2024
 1118YOPC   C4A15570  13.069  12.058   7.826  0.1091 -0.0805 -0.2124
 1118YOPC   C1B15571  12.924  11.903   7.013 -0.1170  0.0817  0.0829
 1118YOPC   C2B15572  12.782  11.775   7.412 -0.3765 -0.2617 -0.4090
 1118YOPC   D3B15573  13.070  11.597   7.627 -0.1873 -0.0690  0.2106
 1118YOPC   C4B15574  13.330  11.604   8.057  0.1209  0.2097  0.0009
 1119YOPC   NC315575   8.716   9.836   5.897 -0.0772  0.0710 -0.4237
 1119YOPC   PO415576   8.556   9.516   6.044 -0.0217 -0.2052  0.1134
 1119YOPC   GL115577   8.481   9.470   6.524 -0.0490 -0.0361 -0.0382
 1119YOPC   GL215578   8.350   9.124   6.594  0.0013 -0.0701  0.0678
 1119YOPC   C1A15579   8.569   9.627   6.990 -0.5134  0.3045 -0.0416
 1119YOPC   D2A15580   8.693   9.686   7.429 -0.0352 -0.0661  0.0112
 1119YOPC   C3A15581   8.686   9.409   7.747 -0.1063 -0.0161  0.0097
 1119YOPC   C4A15582   8.437   9.089   7.843 -0.3043 -0.3108  0.2138
 1119YOPC   C1B15583   8.317   9.117   7.037  0.1063  0.0173 -0.3384
 1119YOPC   C2B15584   8.258   9.356   7.451  0.2095 -0.1100 -0.0859
 1119YOPC   D3B15585   7.870   9.607   7.600  0.0444 -0.1652 -0.0736
 1119YOPC   C4B15586   7.800  10.036   7.829  0.0865  0.1665 -0.0002
 1120YOPC   NC315587   5.118  13.065   6.056 -0.0476 -0.1389  0.0168
 1120YOPC   PO415588   5.380  12.685   5.950  0.1211 -0.1401  0.1696
 1120YOPC   GL115589   5.331  12.741   6.380  0.0556  0.4439 -0.0321
 1120YOPC   GL215590   5.088  12.847   6.536  0.1004 -0.1131  0.3342
 1120YOPC   C1A15591   5.402  12.495   6.758 -0.0195  0.2309 -0.2799
 1120YOPC   D2A15592   5.213  12.450   7.202 -0.0240  0.1948  0.2711
 1120YOPC   C3A15593   4.882  12.221   7.188 -0.0054 -0.0175 -0.0476
 1120YOPC   C4A15594   4.479  12.072   6.919  0.3259 -0.1575  0.0276
 1120YOPC   C1B15595   5.123  12.923   7.021  0.2310  0.1503 -0.1671
 1120YOPC   C2B15596   5.262  13.011   7.393  0.2983 -0.1163 -0.1738
 1120YOPC   D3B15597   5.061  13.193   7.751  0.2845  0.2189  0.0093
 1120YOPC   C4B15598   4.720  13.250   7.985 -0.0444  0.0419 -0.1813
 1121YOPC   NC315599  14.734   9.795   5.778  0.3273 -0.0972  0.0269
 1121YOPC   PO415600  14.720  10.248   5.696 -0.1021  0.1526 -0.1709
 1121YOPC   GL115601  14.883  10.327   6.060 -0.0071  0.0194  0.0647
 1121YOPC   GL215602  15.040  10.032   6.250  0.1032  0.3450  0.0208
 1121YOPC   C1A15603  15.015  10.623   6.492  0.0912  0.1824  0.0825
 1121YOPC   D2A15604  14.899  10.778   7.014 -0.0524  0.2564 -0.4167
 1121YOPC   C3A15605  15.185  10.511   7.288  0.2316 -0.0275 -0.2546
 1121YOPC   C4A15606  15.410  10.695   7.628  0.0957  0.2665  0.0864
 1121YOPC   C1B15607  14.571  10.050   6.407 -0.0120  0.0708  0.0994
 1121YOPC   C2B15608  14.313  10.276   6.658 -0.3785  0.0894  0.1251
 1121YOPC   D3B15609  14.245  10.096   7.076  0.5541  0.2046 -0.1605
 1121YOPC   C4B15610  14.176  10.145   7.509 -0.0309 -0.2769  0.1393
 1122YOPC   NC315611  15.796  15.159   6.374 -0.0112  0.2797 -0.1884
 1122YOPC   PO415612  16.104  14.908   6.550  0.0235 -0.0810 -0.0031
 1122YOPC   GL115613  16.379  14.780   6.992  0.0631  0.0686  0.0202
 1122YOPC   GL215614  16.204  14.543   7.022 -0.0606  0.4497 -0.2439
 1122YOPC   C1A15615  16.528  14.933   7.352  0.0070 -0.3271  0.1552
 1122YOPC   D2A15616  16.634  15.178   7.696 -0.1962  0.0445  0.0458
 1122YOPC   C3A15617  16.392  15.256   8.143 -0.1734 -0.2433  0.0565
 1122YOPC   C4A15618  16.512  15.339   8.467 -0.1536 -0.1748 -0.0010
 1122YOPC   C1B15619  16.195  14.594   7.509 -0.3099 -0.1151  0.0896
 1122YOPC   C2B15620  16.386  14.798   7.877 -0.3790 -0.1234 -0.1398
 1122YOPC   D3B15621  16.462  14.794   8.346 -0.2324  0.2524 -0.0327
 1122YOPC   C4B15622  16.617  14.847   8.700 -0.0067 -0.0882 -0.4503
 1123YOPC   NC315623   8.231   0.096   6.408  0.1730 -0.3865  0.1218
 1123YOPC   PO415624   7.846   0.309   6.368 -0.1676  0.0389  0.0274
 1123YOPC   GL115625   8.054   0.424   6.743  0.0056 -0.4650  0.1259
 1123YOPC   GL215626   8.044   0.157   6.893  0.2154  0.0701 -0.1953
 1123YOPC   C1A15627   7.942   0.858   6.973  0.0280  0.1884  0.1268
 1123YOPC   D2A15628   8.046   1.067   7.327 -0.1363 -0.1221 -0.1029
 1123YOPC   C3A15629   8.065   1.143   7.803 -0.1306 -0.2165  0.0502
 1123YOPC   C4A15630   8.119   1.471   7.983  0.0619  0.0299  0.4566
 1123YOPC   C1B15631   7.958   0.439   7.250  0.1864 -0.1500 -0.2566
 1123YOPC   C2B15632   8.137   0.683   7.556  0.0865  0.0937 -0.1903
 1123YOPC   D3B15633   8.254   0.505   8.016  0.1313 -0.2631  0.1311
 1123YOPC   C4B15634   8.231   0.584   8.455  0.2975 -0.2109  0.1533
 1124YOPC   NC315635  11.748   2.174   6.284 -0.1201 -0.1225  0.1924
 1124YOPC   PO415636  12.153   1.883   6.270  0.3479 -0.0246 -0.1514
 1124YOPC   GL115637  12.200   2.157   6.659 -0.2377  0.1882 -0.1195
 1124YOPC   GL215638  12.127   2.518   6.735 -0.2371 -0.0883  0.1684
 1124YOPC   C1A15639  12.335   2.198   7.094 -0.0426  0.2346 -0.2033
 1124YOPC   D2A15640  12.406   2.310   7.468  0.0674 -0.0527 -0.1028
 1124YOPC   C3A15641  12.283   2.158   7.759 -0.2044  0.2476  0.0525
 1124YOPC   C4A15642  12.217   2.148   8.137 -0.0376 -0.0366  0.0976
 1124YOPC   C1B15643  11.993   2.593   7.075 -0.0614  0.1957 -0.0324
 1124YOPC   C2B15644  12.027   2.616   7.546  0.1087 -0.0542  0.1172
 1124YOPC   D3B15645  11.830   2.747   7.836 -0.3393 -0.1111 -0.1145
 1124YOPC   C4B15646  11.903   2.701   8.204 -0.0596 -0.0739 -0.1449
 1125YOPC   NC315647   8.025  15.273   6.142 -0.0531  0.5065 -0.1296
 1125YOPC   PO415648   8.279  15.720   6.204 -0.1098 -0.0132  0.1477
 1125YOPC   GL115649   8.615  15.842   6.582  0.0179  0.0760 -0.3067
 1125YOPC   GL215650   8.872  16.079   6.588  0.2381 -0.0134 -0.1846
 1125YOPC   C1A15651   8.626  15.704   6.998  0.1812 -0.0479  0.0585
 1125YOPC   D2A15652   8.515  15.797   7.387  0.0952  0.1102  0.0931
 1125YOPC   C3A15653   8.749  15.799   7.767 -0.1714  0.0608  0.1713
 1125YOPC   C4A15654   8.739  15.957   8.205  0.0568 -0.1241  0.1963
 1125YOPC   C1B15655   9.018  16.077   6.963 -0.2972  0.1540 -0.1481
 1125YOPC   C2B15656   9.007  15.893   7.352  0.0756 -0.1278  0.0255
 1125YOPC   D3B15657   9.275  15.634   7.582 -0.2316 -0.2318 -0.1039
 1125YOPC   C4B15658   9.505  15.548   7.971  0.0601 -0.0777  0.2060
 1126YOPC   NC315659   8.310   2.845   5.629  0.0670 -0.0615 -0.0639
 1126YOPC   PO415660   8.681   2.702   5.666  0.0317  0.2999  0.0943
 1126YOPC   GL115661   8.844   2.670   6.121 -0.1527 -0.1451 -0.0682
 1126YOPC   GL215662   9.009   2.830   6.269 -0.0384 -0.1461  0.2262
 1126YOPC   C1A15663   8.599   2.451   6.466  0.0070 -0.0518 -0.0748
 1126YOPC   D2A15664   8.624   2.010   6.684 -0.1690 -0.0364  0.1846
 1126YOPC   C3A15665   8.369   1.962   7.048  0.2011 -0.0839  0.0151
 1126YOPC   C4A15666   8.346   2.053   7.468 -0.1401 -0.0815 -0.1619
 1126YOPC   C1B15667   8.976   2.875   6.671  0.2452 -0.0616 -0.0969
 1126YOPC   C2B15668   8.986   2.835   7.078  0.1589 -0.0027 -0.2705
 1126YOPC   D3B15669   8.812   2.934   7.488 -0.0042  0.0781 -0.4590
 1126YOPC   C4B15670   8.611   2.869   7.861  0.0961 -0.1204  0.1152
 1127YOPC   NC315671  15.939   9.002   5.541 -0.0194 -0.1862 -0.1039
 1127YOPC   PO415672  15.911   8.566   5.637  0.1470 -0.1181 -0.2088
 1127YOPC   GL115673  15.865   8.605   6.058  0.2654  0.2224 -0.0027
 1127YOPC   GL215674  15.816   8.960   6.102 -0.0651  0.1676  0.1675
 1127YOPC   C1A15675  16.186   8.487   6.472 -0.1315  0.1808 -0.0034
 1127YOPC   D2A15676  16.669   8.430   6.592  0.1980  0.0088 -0.2485
 1127YOPC   C3A15677  16.776   8.545   6.994 -0.2076 -0.1006  0.0423
 1127YOPC   C4A15678  16.655   8.403   7.438 -0.0516 -0.1594 -0.0513
 1127YOPC   C1B15679  15.942   8.954   6.555 -0.1703  0.2063 -0.0036
 1127YOPC   C2B15680  16.041   9.065   6.937 -0.0294  0.1394 -0.1107
 1127YOPC   D3B15681  15.905   9.196   7.301  0.2259 -0.2661  0.2604
 1127YOPC   C4B15682  15.896   9.269   7.670  0.5485 -0.1148  0.3479
 1128YOPC   NC315683   5.957   4.555   6.070 -0.4005  0.0647  0.0989
 1128YOPC   PO415684   6.059   4.086   6.159  0.2988  0.2786 -0.1557
 1128YOPC   GL115685   6.147   3.793   6.487 -0.3146  0.0308 -0.0911
 1128YOPC   GL215686   6.088   3.933   6.767 -0.1134  0.1452  0.0146
 1128YOPC   C1A15687   6.389   3.471   6.790  0.0032 -0.0210 -0.0195
 1128YOPC   D2A15688   6.623   3.726   7.006 -0.0531  0.1956 -0.0756
 1128YOPC   C3A15689   6.659   3.742   7.362 -0.2386  0.0660 -0.2086
 1128YOPC   C4A15690   6.570   3.531   7.750  0.1771 -0.2093 -0.0904
 1128YOPC   C1B15691   5.869   4.133   7.111  0.0408  0.2583 -0.0986
 1128YOPC   C2B15692   6.022   4.469   7.485 -0.3324  0.2184  0.2326
 1128YOPC   D3B15693   5.995   4.424   7.901 -0.0435  0.1500  0.1779
 1128YOPC   C4B15694   6.135   4.291   8.339  0.1109  0.1506  0.0152
 1129YOPC   NC315695  12.491  14.613   6.274  0.0836 -0.1234 -0.1513
 1129YOPC   PO415696  12.375  14.790   6.649  0.0355 -0.1644 -0.0514
 1129YOPC   GL115697  12.199  14.750   7.020 -0.3020 -0.2174  0.2219
 1129YOPC   GL215698  12.443  14.673   7.130 -0.1000  0.3611  0.2812
 1129YOPC   C1A15699  11.816  14.531   7.144 -0.1377  0.1754 -0.0732
 1129YOPC   D2A15700  11.600  14.361   7.456 -0.0789  0.2030  0.1701
 1129YOPC   C3A15701  11.792  14.451   7.775 -0.0950  0.3856 -0.5090
 1129YOPC   C4A15702  11.792  14.582   8.185  0.3925  0.0955  0.1518
 1129YOPC   C1B15703  12.193  14.579   7.494  0.0017 -0.0057 -0.0846
 1129YOPC   C2B15704  12.356  14.739   7.826  0.2190 -0.2749  0.2172
 1129YOPC   D3B15705  12.196  14.969   8.191 -0.0372  0.0147 -0.0610
 1129YOPC   C4B15706  12.034  14.896   8.624 -0.1248  0.2026 -0.0413
 1130YOPC   NC315707  11.119   5.800   5.681 -0.0377 -0.0948  0.4028
 1130YOPC   PO415708  10.818   5.510   5.732 -0.0759  0.3438 -0.0848
 1130YOPC   GL115709  10.789   5.801   6.107 -0.0077  0.0863  0.0495
 1130YOPC   GL215710  11.025   6.036   6.163  0.1665 -0.0098 -0.1453
 1130YOPC   C1A15711  10.784   5.895   6.562 -0.2074  0.1730  0.0289
 1130YOPC   D2A15712  10.555   5.958   6.991  0.0069  0.3021  0.2134
 1130YOPC   C3A15713  10.685   5.878   7.328 -0.1762  0.0121 -0.1803
 1130YOPC   C4A15714  10.700   5.800   7.729  0.1677 -0.2475  0.1195
 1130YOPC   C1B15715  11.059   6.303   6.507 -0.0852  0.0713  0.0833
 1130YOPC   C2B15716  10.921   6.298   6.989  0.0747  0.1217  0.0680
 1130YOPC   D3B15717  10.757   6.354   7.417 -0.1747  0.1261  0.0562
 1130YOPC   C4B15718  10.790   6.651   7.683  0.4434 -0.0574 -0.0414
 1131YOPC   NC315719  11.374  10.151   5.650  0.2411 -0.1474  0.2464
 1131YOPC   PO415720  11.265   9.682   5.764  0.0552  0.2930 -0.1096
 1131YOPC   GL115721  11.244   9.720   6.134 -0.2585  0.0943  0.3222
 1131YOPC   GL215722  11.005   9.524   6.252  0.1816 -0.0340  0.1294
 1131YOPC   C1A15723  11.308   9.826   6.537 -0.2202  0.2050  0.1376
 1131YOPC   D2A15724  11.105   9.889   6.969 -0.3756 -0.2345  0.0572
 1131YOPC   C3A15725  11.171   9.646   7.383 -0.0386  0.2512 -0.1482
 1131YOPC   C4A15726  11.363   9.323   7.583 -0.0532  0.3308 -0.0710
 1131YOPC   C1B15727  10.822   9.791   6.556 -0.2717 -0.0949  0.1448
 1131YOPC   C2B15728  10.650  10.090   6.790 -0.2608 -0.5106 -0.1706
 1131YOPC   D3B15729  10.635  10.045   7.193  0.2036 -0.1817 -0.0231
 1131YOPC   C4B15730  10.800   9.925   7.541 -0.1127 -0.2889  0.1241
 1132YOPC   NC315731  10.881   2.416   6.090 -0.0791 -0.1438  0.1275
 1132YOPC   PO415732  10.502   2.199   6.252 -0.0358  0.2776  0.3977
 1132YOPC   GL115733  10.746   2.282   6.612 -0.1540 -0.0177  0.1786
 1132YOPC   GL215734  10.587   2.536   6.699  0.0875  0.3428  0.0722
 1132YOPC   C1A15735  10.972   2.198   7.058 -0.1555 -0.1309  0.0771
 1132YOPC   D2A15736  10.930   2.294   7.440 -0.0968  0.1993 -0.3754
 1132YOPC   C3A15737  10.979   1.929   7.770  0.0168 -0.1940 -0.0501
 1132YOPC   C4A15738  11.035   1.547   7.855 -0.0119  0.1174 -0.2896
 1132YOPC   C1B15739  10.501   2.501   7.060  0.0515  0.1090 -0.1502
 1132YOPC   C2B15740  10.505   2.645   7.361 -0.3051 -0.0166  0.1078
 1132YOPC   D3B15741  10.213   2.717   7.630  0.0073 -0.0055  0.3414
 1132YOPC   C4B15742   9.920   2.613   8.070  0.0081  0.3099  0.1823
 1133YOPC   NC315743   3.422  13.404   6.323  0.3300 -0.0347 -0.1130
 1133YOPC   PO415744   3.451  12.971   6.441 -0.2591 -0.1519 -0.1265
 1133YOPC   GL115745   3.670  12.715   6.782  0.3966  0.1970  0.0698
 1133YOPC   GL215746   3.363  12.856   6.954 -0.0104 -0.3509 -0.0697
 1133YOPC   C1A15747   3.654  12.565   7.248 -0.1343 -0.0707  0.0067
 1133YOPC   D2A15748   3.740  12.639   7.636 -0.3385 -0.3167 -0.1996
 1133YOPC   C3A15749   4.045  12.600   7.925 -0.3485  0.3005 -0.2092
 1133YOPC   C4A15750   4.350  12.387   8.033 -0.1410 -0.0126 -0.1765
 1133YOPC   C1B15751   3.289  12.895   7.336  0.0371 -0.0176 -0.0064
 1133YOPC   C2B15752   3.184  12.820   7.789  0.1603  0.0667  0.0370
 1133YOPC   D3B15753   3.429  12.758   8.037  0.2681  0.0490  0.0392
 1133YOPC   C4B15754   3.671  12.535   8.344 -0.0584  0.1613 -0.2617
 1134YOPC   NC315755   8.946  17.578   6.003  0.0883 -0.2941 -0.1013
 1134YOPC   PO415756   8.841  17.964   6.305 -0.0053 -0.1062 -0.1049
 1134YOPC   GL115757   8.734  18.298   6.699 -0.0308 -0.0314  0.0041
 1134YOPC   GL215758   8.486  18.443   6.787 -0.0643  0.1534  0.0513
 1134YOPC   C1A15759   8.952  18.325   7.110  0.0033  0.0530  0.0255
 1134YOPC   D2A15760   9.084  18.427   7.564 -0.0354  0.0281  0.2518
 1134YOPC   C3A15761   9.375  18.150   7.758 -0.3033  0.0645 -0.2433
 1134YOPC   C4A15762   9.593  17.908   7.947 -0.1302 -0.1406  0.1798
 1134YOPC   C1B15763   8.430  18.533   7.185 -0.4708  0.1082  0.0536
 1134YOPC   C2B15764   8.592  18.639   7.678 -0.0156 -0.1631  0.0254
 1134YOPC   D3B15765   8.618  19.049   7.916 -0.1969 -0.2652  0.3804
 1134YOPC   C4B15766   8.461  19.164   8.278 -0.1723  0.0755 -0.2870
 1135YOPC   NC315767  10.903  17.230   6.432 -0.1093 -0.2926 -0.1051
 1135YOPC   PO415768  11.243  17.522   6.341 -0.2798 -0.1298 -0.0303
 1135YOPC   GL115769  11.097  17.637   6.720  0.4488  0.3452  0.0650
 1135YOPC   GL215770  10.980  17.436   6.916 -0.2611  0.1747 -0.1100
 1135YOPC   C1A15771  11.278  17.814   7.126  0.2085 -0.0564 -0.2034
 1135YOPC   D2A15772  11.196  17.970   7.561 -0.0913 -0.0381  0.0926
 1135YOPC   C3A15773  10.953  18.353   7.659  0.1793 -0.1674  0.0571
 1135YOPC   C4A15774  10.512  18.409   7.834  0.1723  0.2352  0.0012
 1135YOPC   C1B15775  10.700  17.645   7.188 -0.3474  0.0726  0.0477
 1135YOPC   C2B15776  10.640  17.893   7.515  0.1810 -0.0427  0.1306
 1135YOPC   D3B15777  10.745  17.903   7.926  0.0175  0.2410  0.3052
 1135YOPC   C4B15778  10.808  17.726   8.317  0.1318  0.0120 -0.1218
 1136YOPC   NC315779  11.838  12.767   6.571 -0.1590  0.2222 -0.1971
 1136YOPC   PO415780  11.980  12.451   6.348  0.2572  0.2519  0.0010
 1136YOPC   GL115781  12.102  12.210   6.760 -0.1398 -0.1108 -0.0431
 1136YOPC   GL215782  12.232  12.431   6.877  0.2120 -0.2241  0.0942
 1136YOPC   C1A15783  11.920  12.129   7.177 -0.2405 -0.0515  0.0044
 1136YOPC   D2A15784  11.738  11.994   7.453  0.1637  0.3906 -0.1439
 1136YOPC   C3A15785  11.541  11.589   7.463  0.0660 -0.1166 -0.0499
 1136YOPC   C4A15786  11.638  11.181   7.623 -0.2482  0.1238 -0.1089
 1136YOPC   C1B15787  12.138  12.501   7.345 -0.0940 -0.0106 -0.0159
 1136YOPC   C2B15788  12.075  12.374   7.846 -0.0758  0.0984  0.1238
 1136YOPC   D3B15789  11.982  12.003   7.866 -0.1404 -0.1235  0.0711
 1136YOPC   C4B15790  11.719  11.844   8.039  0.0189 -0.1040  0.2453
 1137YOPC   NC315791   5.870  14.760   6.051  0.2866 -0.1322 -0.3124
 1137YOPC   PO415792   5.806  15.124   6.154 -0.0500 -0.1620 -0.2047
 1137YOPC   GL115793   5.941  15.239   6.553  0.1408 -0.1092 -0.0438
 1137YOPC   GL215794   5.726  15.201   6.891  0.1603 -0.0251  0.4943
 1137YOPC   C1A15795   6.263  15.148   6.934 -0.0199  0.2332 -0.2203
 1137YOPC   D2A15796   6.528  14.835   7.216  0.0235  0.0359  0.2215
 1137YOPC   C3A15797   6.609  14.994   7.560  0.1795  0.5758 -0.1288
 1137YOPC   C4A15798   6.841  14.863   7.946 -0.0691 -0.2647  0.1991
 1137YOPC   C1B15799   5.773  15.298   7.366  0.2238  0.2148 -0.0129
 1137YOPC   C2B15800   5.977  15.532   7.733  0.0905  0.0103 -0.0494
 1137YOPC   D3B15801   5.885  15.708   8.099 -0.1081 -0.2608  0.2968
 1137YOPC   C4B15802   5.868  16.029   8.368  0.0730  0.1421 -0.0206
 1138YOPC   NC315803  14.471   8.852   5.589 -0.1509  0.0512  0.0716
 1138YOPC   PO415804  14.536   8.449   5.592 -0.1913  0.0406 -0.2962
 1138YOPC   GL115805  14.730   8.637   5.950 -0.4169  0.1516  0.2347
 1138YOPC   GL215806  14.980   8.803   5.724 -0.0916  0.1670  0.2518
 1138YOPC   C1A15807  14.819   8.434   6.322 -0.2893 -0.3108 -0.0292
 1138YOPC   D2A15808  14.865   8.313   6.820  0.0314  0.2279 -0.2564
 1138YOPC   C3A15809  14.788   8.233   7.208  0.2583 -0.0855 -0.1566
 1138YOPC   C4A15810  14.994   8.197   7.595 -0.0403  0.0929  0.0840
 1138YOPC   C1B15811  15.289   8.663   6.124  0.1540 -0.1688 -0.2207
 1138YOPC   C2B15812  15.626   8.526   6.464  0.2991 -0.3380  0.2150
 1138YOPC   D3B15813  15.720   8.605   6.879 -0.0952 -0.1975  0.1029
 1138YOPC   C4B15814  15.749   8.748   7.213 -0.2483  0.2888  0.2083
 1139YOPC   NC315815   1.475   8.170   6.037 -0.0978  0.1828  0.2338
 1139YOPC   PO415816   1.830   8.073   5.625 -0.1831 -0.1335  0.1258
 1139YOPC   GL115817   2.019   8.179   5.993 -0.2453 -0.0377 -0.3219
 1139YOPC   GL215818   1.994   7.955   6.182 -0.2827 -0.0299  0.0842
 1139YOPC   C1A15819   2.400   8.237   6.237  0.0387  0.1060  0.1636
 1139YOPC   D2A15820   2.672   8.549   6.577 -0.4411 -0.3050  0.1172
 1139YOPC   C3A15821   2.689   8.396   6.999  0.0857  0.1723  0.1326
 1139YOPC   C4A15822   2.629   8.505   7.396  0.1200  0.2861 -0.2911
 1139YOPC   C1B15823   1.706   7.727   6.443 -0.3729  0.2029 -0.2578
 1139YOPC   C2B15824   1.634   7.452   6.814  0.0628 -0.1014  0.1279
 1139YOPC   D3B15825   1.731   7.478   7.320  0.1657 -0.2646  0.2483
 1139YOPC   C4B15826   1.586   7.700   7.739 -0.2762 -0.0091 -0.0904
 1140YOPC   NC315827  10.880  10.952   5.925 -0.2846 -0.2419 -0.2058
 1140YOPC   PO415828  11.322  10.741   5.843 -0.2072 -0.0372 -0.2014
 1140YOPC   GL115829  11.339  10.902   6.267 -0.0581 -0.0485 -0.2515
 1140YOPC   GL215830  11.606  10.941   6.392  0.0791 -0.2500 -0.0278
 1140YOPC   C1A15831  11.108  11.082   6.584 -0.1171  0.2684  0.2288
 1140YOPC   D2A15832  10.904  11.178   6.853 -0.1186  0.0310  0.0018
 1140YOPC   C3A15833  10.999  10.901   7.220 -0.1297  0.1533 -0.3458
 1140YOPC   C4A15834  11.397  10.796   7.398  0.2582 -0.3869  0.0685
 1140YOPC   C1B15835  11.510  10.815   6.793  0.0172 -0.2424  0.0824
 1140YOPC   C2B15836  11.718  10.584   7.104  0.1682 -0.1740 -0.0728
 1140YOPC   D3B15837  11.863  10.634   7.531 -0.1662  0.0165  0.1347
 1140YOPC   C4B15838  11.811  10.762   7.994  0.0016 -0.1576 -0.3466
 1141YOPC   NC315839  15.109  14.753   6.293  0.0978 -0.2638  0.0988
 1141YOPC   PO415840  15.293  14.981   6.555 -0.1511 -0.2446 -0.1547
 1141YOPC   GL115841  15.217  14.779   6.773 -0.1309  0.1055 -0.0400
 1141YOPC   GL215842  15.317  14.438   6.658 -0.0151 -0.1664 -0.1861
 1141YOPC   C1A15843  15.358  14.693   7.261  0.1319 -0.0482  0.0526
 1141YOPC   D2A15844  15.660  14.534   7.420 -0.0509 -0.4557 -0.3583
 1141YOPC   C3A15845  15.837  14.858   7.744 -0.1779 -0.0471  0.0631
 1141YOPC   C4A15846  15.904  14.955   8.144  0.1140 -0.0357 -0.0478
 1141YOPC   C1B15847  15.221  14.289   7.042  0.0728  0.3207 -0.0759
 1141YOPC   C2B15848  15.131  14.192   7.521  0.0787  0.2598  0.0613
 1141YOPC   D3B15849  15.298  14.260   7.897 -0.2707 -0.2215  0.1594
 1141YOPC   C4B15850  15.029  14.035   8.211 -0.0769  0.3070  0.1086
 1142YOPC   NC315851   1.337   6.986   5.504  0.2970 -0.0864 -0.0269
 1142YOPC   PO415852   1.197   7.281   5.683  0.2385  0.1743 -0.3476
 1142YOPC   GL115853   1.206   7.388   6.134  0.0300  0.4673  0.2030
 1142YOPC   GL215854   1.159   7.639   6.208 -0.1985  0.0673 -0.0287
 1142YOPC   C1A15855   1.177   7.356   6.610  0.1485  0.1495  0.3146
 1142YOPC   D2A15856   0.945   7.476   7.011 -0.1479  0.1592  0.0399
 1142YOPC   C3A15857   0.705   7.227   7.321 -0.2057 -0.2719 -0.0625
 1142YOPC   C4A15858   0.373   7.134   7.591 -0.2030 -0.1185  0.1043
 1142YOPC   C1B15859   1.268   7.819   6.695  0.1441 -0.4507  0.1477
 1142YOPC   C2B15860   1.345   7.760   7.083 -0.3397 -0.0088  0.2550
 1142YOPC   D3B15861   1.321   8.062   7.408  0.0393 -0.0652 -0.0517
 1142YOPC   C4B15862   1.252   8.057   7.771  0.0598 -0.1417 -0.2552
 1143ERGO   ROH15863  13.772  14.936   6.993 -0.1224  0.0274 -0.2250
 1143ERGO    R115864  13.883  14.936   7.253 -0.0664 -0.0698 -0.2462
 1143ERGO    R215865  13.833  15.137   7.437  0.1566 -0.0107 -0.2322
 1143ERGO    R315866  13.758  14.928   7.594 -0.0088  0.0569 -0.2240
 1143ERGO    R415867  13.794  15.152   7.780  0.0918  0.0429 -0.2439
 1143ERGO    R515868  13.886  14.956   7.794 -0.0402 -0.0082 -0.2020
 1143ERGO    C115869  13.701  14.966   8.127 -0.1013  0.1376 -0.2430
 1143ERGO    C215870  13.762  14.732   8.340 -0.0574  0.0207  0.2100
 1144ERGO   ROH15871   5.628  12.064   6.603  0.0889 -0.0795 -0.0421
 1144ERGO    R115872   5.775  12.117   6.840  0.0299 -0.2063  0.0233
 1144ERGO    R215873   5.818  12.374   6.934  0.3115 -0.2357 -0.0258
 1144ERGO    R315874   5.709  12.274   7.162  0.0556 -0.0331 -0.0541
 1144ERGO    R415875   5.941  12.429   7.252  0.2527 -0.3562  0.0192
 1144ERGO    R515876   5.898  12.221   7.299 -0.0799 -0.2892  0.0420
 1144ERGO    C115877   5.910  12.368   7.651 -0.0218 -0.2362  0.0188
 1144ERGO    C215878   5.972  12.377   7.998  0.1265  0.0414 -0.0210
 1145ERGO   ROH15879  15.106   4.925   6.761  0.0599  0.0622 -0.1382
 1145ERGO    R115880  15.256   4.892   6.999  0.0515  0.0467 -0.1350
 1145ERGO    R215881  15.238   5.067   7.212  0.0101  0.0075 -0.1060
 1145ERGO    R315882  15.184   4.839   7.352  0.0393 -0.0253 -0.1482
 1145ERGO    R415883  15.238   5.042   7.557  0.1848 -0.0989 -0.1124
 1145ERGO    R515884  15.335   4.848   7.538  0.1381 -0.1119 -0.2230
 1145ERGO    C115885  15.188   4.815   7.889  0.3139 -0.1916 -0.1557
 1145ERGO    C215886  15.067   4.705   8.134 -0.0059  0.1905  0.0214
 1146ERGO   ROH15887  13.179  16.676   8.832  0.1015  0.0240  0.1629
 1146ERGO    R115888  12.956  16.847   8.793  0.1424  0.0986  0.2525
 1146ERGO    R215889  12.947  17.105   8.891  0.3705  0.1848  0.0515
 1146ERGO    R315890  12.894  17.167   8.632  0.1328 -0.0016  0.0520
 1146ERGO    R415891  12.775  17.386   8.786  0.3312  0.1452  0.0087
 1146ERGO    R515892  12.675  17.263   8.637  0.1557  0.0510  0.1959
 1146ERGO    C115893  12.625  17.607   8.481  0.0852 -0.0529 -0.0157
 1146ERGO    C215894  12.437  17.936   8.501  0.1779 -0.5576  0.0101
 1147ERGO   ROH15895  15.901   5.396   6.299  0.1361  0.0826  0.0555
 1147ERGO    R115896  15.920   5.342   6.576  0.0889  0.0815  0.0589
 1147ERGO    R215897  16.143   5.405   6.725  0.0526  0.1088  0.1041
 1147ERGO    R315898  15.963   5.536   6.881  0.0043  0.0839  0.0693
 1147ERGO    R415899  16.185   5.470   7.062  0.0319  0.2234  0.0849
 1147ERGO    R515900  15.974   5.422   7.092  0.0516  0.1499  0.1020
 1147ERGO    C115901  16.040   5.630   7.405 -0.0257  0.2667  0.0411
 1147ERGO    C215902  16.269   5.596   7.655 -0.0960  0.0723  0.2143
 1148ERGO   ROH15903   8.211   5.727   6.832 -0.1313 -0.1063 -0.1474
 1148ERGO    R115904   8.223   5.804   7.103 -0.1070 -0.0918 -0.1528
 1148ERGO    R215905   8.151   5.636   7.310 -0.0040 -0.1108 -0.1331
 1148ERGO    R315906   8.400   5.695   7.402 -0.0078 -0.0150 -0.1827
 1148ERGO    R415907   8.272   5.548   7.621  0.0632  0.0063 -0.1253
 1148ERGO    R515908   8.367   5.744   7.634  0.0096  0.0377 -0.1906
 1148ERGO    C115909   8.576   5.552   7.890  0.0989  0.1644 -0.1673
 1148ERGO    C215910   8.743   5.247   8.043 -0.2055  0.2065  0.2407
 1149ERGO   ROH15911   2.720  10.142   6.526 -0.4754 -0.0733  0.0608
 1149ERGO    R115912   2.808   9.954   6.718 -0.3236 -0.0150  0.0483
 1149ERGO    R215913   2.971  10.022   6.931 -0.3346  0.0907  0.0145
 1149ERGO    R315914   2.774   9.907   7.077 -0.2320 -0.0371  0.0565
 1149ERGO    R415915   3.003   9.919   7.259 -0.2248  0.2390  0.0528
 1149ERGO    R515916   2.886   9.742   7.209 -0.0707  0.1077  0.1143
 1149ERGO    C115917   2.836   9.750   7.587 -0.0645  0.2054  0.1146
 1149ERGO    C215918   2.778   9.895   7.938  0.1446  0.0845  0.0778
 1150ERGO   ROH15919   2.547  10.982  10.326  0.3618  0.1893  0.0560
 1150ERGO    R115920   2.448  11.088  10.084  0.1133 -0.0320  0.0563
 1150ERGO    R215921   2.607  11.227   9.905 -0.1533  0.1545 -0.0437
 1150ERGO    R315922   2.512  11.043   9.729  0.0551 -0.0456  0.0474
 1150ERGO    R415923   2.615  11.261   9.561 -0.1387 -0.0368 -0.0633
 1150ERGO    R515924   2.416  11.174   9.553 -0.0522 -0.2430 -0.0438
 1150ERGO    C115925   2.531  11.108   9.195  0.0655 -0.3360  0.0107
 1150ERGO    C215926   2.652  11.221   8.848 -0.3211 -0.1313  0.1104
 1151ERGO   ROH15927  16.819   2.704   6.646 -0.3162 -0.1815  0.1993
 1151ERGO    R115928  16.779   2.574   6.894 -0.1137 -0.2496  0.1975
 1151ERGO    R215929  16.975   2.421   7.015  0.1467  0.0893  0.2163
 1151ERGO    R315930  16.929   2.587   7.225 -0.1605  0.0163  0.2112
 1151ERGO    R415931  17.019   2.336   7.347  0.2440  0.1574  0.2216
 1151ERGO    R515932  16.836   2.444   7.394  0.0504 -0.1443  0.1967
 1151ERGO    C115933  17.002   2.441   7.738  0.0124  0.1286  0.2199
 1151ERGO    C215934  17.097   2.231   8.119  0.2554 -0.0402  0.0073
 1152ERGO   ROH15935   4.530   7.578   6.519  0.0329  0.1327 -0.0963
 1152ERGO    R115936   4.666   7.527   6.762 -0.0279  0.0424 -0.0806
 1152ERGO    R215937   4.678   7.712   6.967 -0.1050 -0.0458  0.0032
 1152ERGO    R315938   4.580   7.506   7.114 -0.1218 -0.1217 -0.1124
 1152ERGO    R415939   4.709   7.681   7.310 -0.0934 -0.2492 -0.0144
 1152ERGO    R515940   4.745   7.468   7.283 -0.1182 -0.2389 -0.1405
 1152ERGO    C115941   4.634   7.470   7.648 -0.1025 -0.4390 -0.1333
 1152ERGO    C215942   4.604   7.325   7.986  0.0818  0.2646  0.0445
 1153ERGO   ROH15943   1.244   6.871   6.091 -0.0374 -0.0528 -0.0160
 1153ERGO    R115944   1.114   6.937   6.333 -0.1283 -0.1091 -0.0487
 1153ERGO    R215945   0.976   6.751   6.485  0.0841 -0.2151  0.0195
 1153ERGO    R315946   1.140   6.839   6.683 -0.0259  0.0599 -0.0079
 1153ERGO    R415947   0.894   6.758   6.820  0.0734 -0.2054  0.0165
 1153ERGO    R515948   0.993   6.951   6.836 -0.1697 -0.0720 -0.0474
 1153ERGO    C115949   1.000   6.844   7.202 -0.0361  0.0585 -0.0110
 1153ERGO    C215950   1.208   6.838   7.599 -0.2077  0.2303  0.1464
 1154ERGO   ROH15951  14.417   2.079   6.638 -0.0612  0.1658 -0.0577
 1154ERGO    R115952  14.344   2.000   6.899  0.1585 -0.0036 -0.0427
 1154ERGO    R215953  14.508   2.038   7.118  0.2343  0.1104 -0.1045
 1154ERGO    R315954  14.290   2.163   7.220  0.1398 -0.1616  0.0314
 1154ERGO    R415955  14.472   2.134   7.448  0.4111  0.2996 -0.1396
 1154ERGO    R515956  14.264   2.069   7.439  0.5092 -0.0355  0.1254
 1154ERGO    C115957  14.246   2.307   7.736  0.4254  0.1544 -0.0326
 1154ERGO    C215958  14.008   2.407   8.020 -0.0247 -0.0521  0.1008
 1155ERGO   ROH15959   6.899  11.215   6.887  0.0129 -0.0894  0.0794
 1155ERGO    R115960   6.968  11.299   7.149  0.0210 -0.0093  0.0521
 1155ERGO    R215961   6.825  11.220   7.372  0.0518  0.0261  0.0847
 1155ERGO    R315962   7.070  11.138   7.459  0.0723  0.0884  0.0861
 1155ERGO    R415963   6.909  11.164   7.703 -0.0176 -0.2195  0.0630
 1155ERGO    R515964   7.102  11.257   7.664 -0.0581 -0.0737  0.2029
 1155ERGO    C115965   7.186  11.055   7.977 -0.0388 -0.3042  0.0516
 1155ERGO    C215966   7.269  11.011   8.404  0.2022  0.0573  0.2279
 1156ERGO   ROH15967  14.680   5.170   6.808  0.0842 -0.0147  0.0305
 1156ERGO    R115968  14.612   5.104   7.075  0.0615 -0.0494  0.0163
 1156ERGO    R215969  14.802   5.041   7.266  0.0512  0.0090  0.0456
 1156ERGO    R315970  14.681   5.239   7.406 -0.0418 -0.0392  0.0342
 1156ERGO    R415971  14.791   5.060   7.610  0.0962  0.0536  0.0446
 1156ERGO    R515972  14.585   5.128   7.595  0.0528 -0.0681  0.0668
 1156ERGO    C115973  14.671   5.258   7.943  0.0352  0.0343  0.0333
 1156ERGO    C215974  14.802   5.338   8.288 -0.1408 -0.4147 -0.0149
 1157ERGO   ROH15975  16.550   1.738   6.564 -0.0486 -0.1785  0.0439
 1157ERGO    R115976  16.479   1.581   6.789 -0.2337 -0.0013  0.1114
 1157ERGO    R215977  16.661   1.507   6.983 -0.2854 -0.2497  0.0627
 1157ERGO    R315978  16.479   1.620   7.150 -0.0433  0.0974  0.1032
 1157ERGO    R415979  16.659   1.469   7.326 -0.2364 -0.1983  0.0693
 1157ERGO    R515980  16.442   1.453   7.318 -0.2789  0.1773  0.1401
 1157ERGO    C115981  16.488   1.553   7.684  0.0193  0.1574  0.1112
 1157ERGO    C215982  16.450   1.511   8.021 -0.4921 -0.3068  0.1753
 1158ERGO   ROH15983  10.573  14.066   6.541  0.0265 -0.0155 -0.1211
 1158ERGO    R115984  10.616  14.052   6.821 -0.0132 -0.0637 -0.1167
 1158ERGO    R215985  10.447  14.173   7.004 -0.0103 -0.0479 -0.1198
 1158ERGO    R315986  10.436  13.922   7.109 -0.0824 -0.0605 -0.1596
 1158ERGO    R415987  10.290  14.089   7.300  0.1062 -0.0265 -0.0518
 1158ERGO    R515988  10.456  13.956   7.345  0.0597 -0.1176 -0.1653
 1158ERGO    C115989  10.188  13.806   7.571  0.1063 -0.0260 -0.0496
 1158ERGO    C215990  10.229  13.742   7.826 -0.2295  0.0353 -0.2403
 1159ERGO   ROH15991  12.871   1.227   6.703 -0.0284 -0.0841  0.0589
 1159ERGO    R115992  12.823   1.195   6.981  0.0423  0.0159  0.0841
 1159ERGO    R215993  12.783   1.410   7.151  0.0170  0.0787  0.0082
 1159ERGO    R315994  12.555   1.276   7.213  0.0697  0.0354  0.1062
 1159ERGO    R415995  12.631   1.409   7.461  0.1048  0.0971  0.0508
 1159ERGO    R515996  12.590   1.197   7.436  0.1502  0.0879  0.1074
 1159ERGO    C115997  12.329   1.281   7.701  0.2055  0.0672  0.1676
 1159ERGO    C215998  12.156   1.338   7.926  0.2649 -0.0737  0.0430
 1160ERGO   ROH15999  17.139   7.455   6.326  0.0529  0.1094  0.1917
 1160ERGO    R116000  17.257   7.394   6.576 -0.0505  0.1219  0.2448
 1160ERGO    R216001  17.113   7.387   6.811 -0.1737  0.0143  0.1698
 1160ERGO    R316002  17.219   7.138   6.831 -0.0683  0.0598  0.1791
 1160ERGO    R416003  17.127   7.201   7.102 -0.2744 -0.0512  0.1327
 1160ERGO    R516004  17.327   7.136   7.045 -0.2070  0.0579  0.2482
 1160ERGO    C116005  17.234   6.858   7.289 -0.2337 -0.0466  0.1199
 1160ERGO    C216006  17.218   6.587   7.485  0.1234  0.0834 -0.0652
 1161ERGO   ROH16007  13.889   8.247   6.324  0.0184 -0.0777  0.0474
 1161ERGO    R116008  13.906   8.384   6.571 -0.1005 -0.0004  0.0137
 1161ERGO    R216009  13.694   8.527   6.677 -0.2718 -0.2654  0.0414
 1161ERGO    R316010  13.739   8.369   6.894  0.0062 -0.1642  0.0618
 1161ERGO    R416011  13.605   8.605   7.002 -0.0453 -0.2121  0.0929
 1161ERGO    R516012  13.794   8.522   7.069  0.0621 -0.0731 -0.0362
 1161ERGO    C116013  13.594   8.503   7.394  0.3476 -0.0862  0.1421
 1161ERGO    C216014  13.498   8.584   7.785 -0.0059 -0.1114 -0.2813
 1162ERGO   ROH16015  16.755   5.632  10.035 -0.1193 -0.1986 -0.0844
 1162ERGO    R116016  16.879   5.638   9.781 -0.0615 -0.0918 -0.0539
 1162ERGO    R216017  16.774   5.508   9.561 -0.0518  0.0659 -0.1491
 1162ERGO    R316018  16.792   5.755   9.447  0.0495  0.1240 -0.0106
 1162ERGO    R416019  16.807   5.567   9.222  0.0371  0.2317 -0.1128
 1162ERGO    R516020  16.949   5.726   9.268  0.0807  0.1662  0.0051
 1162ERGO    C116021  16.844   5.832   8.918  0.1836  0.3828  0.0381
 1162ERGO    C216022  16.705   5.700   8.588 -0.1018 -0.1372  0.3295
 1163ERGO   ROH16023   1.778   4.016   6.608 -0.0284 -0.0287  0.1307
 1163ERGO    R116024   1.754   3.936   6.878  0.0295 -0.1253  0.1085
 1163ERGO    R216025   1.918   4.033   7.078  0.0852 -0.2089  0.1107
 1163ERGO    R316026   1.682   4.097   7.196  0.1170 -0.2340  0.1819
 1163ERGO    R416027   1.879   4.116   7.411  0.2194  0.1061  0.0503
 1163ERGO    R516028   1.696   3.999   7.414  0.2966 -0.0009  0.2733
 1163ERGO    C116029   1.635   4.224   7.716  0.3275  0.2660  0.0820
 1163ERGO    C216030   1.479   4.340   8.062  0.1414 -0.0534 -0.1483
 1164ERGO   ROH16031   4.723  13.041   6.793 -0.1802  0.1256 -0.1062
 1164ERGO    R116032   4.656  13.164   7.039 -0.0868  0.0333 -0.0333
 1164ERGO    R216033   4.397  13.172   7.135 -0.0824  0.1689 -0.0269
 1164ERGO    R316034   4.509  13.060   7.356 -0.1611 -0.0448 -0.0935
 1164ERGO    R416035   4.247  13.157   7.446 -0.0799  0.1059 -0.0288
 1164ERGO    R516036   4.441  13.202   7.536 -0.0422 -0.0959 -0.0090
 1164ERGO    C116037   4.265  13.042   7.834 -0.1524 -0.1316 -0.0924
 1164ERGO    C216038   3.859  13.057   7.976 -0.2243  0.3306 -0.0700
 1165ERGO   ROH16039  14.855  13.931   6.833 -0.4351 -0.2471 -0.2590
 1165ERGO    R116040  14.821  14.004   7.104  0.0076 -0.2037 -0.2082
 1165ERGO    R216041  14.586  13.956   7.244  0.0218  0.3188  0.0185
 1165ERGO    R316042  14.755  13.832   7.417 -0.0796 -0.1046 -0.1709
 1165ERGO    R416043  14.512  13.876   7.572  0.1442  0.3988  0.0663
 1165ERGO    R516044  14.712  13.937   7.628  0.3423 -0.0564 -0.0993
 1165ERGO    C116045  14.626  13.715   7.926  0.1202  0.0478 -0.0838
 1165ERGO    C216046  14.675  13.529   8.263  0.0061  0.0382  0.1126
 1166ERGO   ROH16047  10.592   8.125   6.370 -0.0852  0.2354 -0.0361
 1166ERGO    R116048  10.585   8.334   6.561 -0.1236  0.1319  0.0781
 1166ERGO    R216049  10.481   8.299   6.815  0.0616 -0.0807  0.1338
 1166ERGO    R316050  10.725   8.394   6.892  0.0425  0.0606  0.0205
 1166ERGO    R416051  10.554   8.428   7.128  0.1095  0.0787  0.0571
 1166ERGO    R516052  10.674   8.582   7.031  0.0072  0.0915 -0.0403
 1166ERGO    C116053  10.824   8.591   7.382  0.1194  0.3041 -0.0940
 1166ERGO    C216054  10.844   8.442   7.779  0.2788  0.1780  0.0868
 1167ERGO   ROH16055   2.030   9.427   6.508  0.1989 -0.2182 -0.2524
 1167ERGO    R116056   1.941   9.310   6.750  0.0409 -0.0860 -0.2456
 1167ERGO    R216057   2.055   9.082   6.856 -0.1186 -0.1029 -0.1172
 1167ERGO    R316058   2.085   9.238   7.076 -0.1316 -0.0423 -0.1574
 1167ERGO    R416059   2.119   8.963   7.174 -0.1336 -0.0293 -0.0862
 1167ERGO    R516060   1.980   9.112   7.252 -0.1434 -0.0050 -0.1310
 1167ERGO    C116061   2.183   9.039   7.566 -0.1546  0.0704 -0.1059
 1167ERGO    C216062   2.180   9.001   7.923  0.2592 -0.0525 -0.0954
 1168ERGO   ROH16063   6.793   7.008  10.364 -0.0075 -0.1674 -0.0709
 1168ERGO    R116064   6.857   7.128  10.116 -0.0348 -0.0665 -0.0294
 1168ERGO    R216065   7.014   7.002   9.926 -0.0158  0.0321 -0.0751
 1168ERGO    R316066   6.802   7.052   9.764 -0.0259  0.0502 -0.0574
 1168ERGO    R416067   7.019   6.983   9.581 -0.0437  0.0144 -0.0749
 1168ERGO    R516068   6.896   7.162   9.574 -0.0256  0.0320 -0.0713
 1168ERGO    C116069   6.822   7.019   9.228 -0.0694  0.0210 -0.0581
 1168ERGO    C216070   6.779   6.941   8.922 -0.0894  0.1257  0.1668
 1169ERGO   ROH16071   8.370  11.389   6.549 -0.0354  0.0164  0.1819
 1169ERGO    R116072   8.293  11.316   6.811 -0.0080  0.0385  0.1962
 1169ERGO    R216073   8.351  11.070   6.921 -0.0749  0.0130  0.1788
 1169ERGO    R316074   8.461  11.220   7.119  0.0214 -0.0295  0.1581
 1169ERGO    R416075   8.409  10.960   7.243  0.0251 -0.0303  0.1464
 1169ERGO    R516076   8.343  11.154   7.317  0.0844 -0.0307  0.1932
 1169ERGO    C116077   8.547  11.037   7.617  0.1737 -0.0955  0.1081
 1169ERGO    C216078   8.726  10.792   7.823 -0.3130  0.2726  0.5269
 1170ERGO   ROH16079   4.721   9.734   6.441 -0.3139 -0.1322 -0.0664
 1170ERGO    R116080   4.669   9.826   6.703 -0.2191 -0.2491 -0.0049
 1170ERGO    R216081   4.722   9.674   6.928  0.0422 -0.2754 -0.0803
 1170ERGO    R316082   4.863   9.894   7.003 -0.0785 -0.1873 -0.1087
 1170ERGO    R416083   4.784   9.767   7.255  0.0247 -0.2203 -0.0927
 1170ERGO    R516084   4.749   9.975   7.198 -0.1040 -0.2434 -0.1004
 1170ERGO    C116085   4.953  10.028   7.516 -0.0989 -0.1056 -0.1265
 1170ERGO    C216086   5.175  10.270   7.851 -0.0393 -0.0509 -0.0437
 1171ERGO   ROH16087  16.493   9.380   9.925  0.3130  0.0487  0.0892
 1171ERGO    R116088  16.404   9.453   9.666  0.1318  0.0144  0.1390
 1171ERGO    R216089  16.549   9.620   9.501 -0.0676  0.1403  0.0809
 1171ERGO    R316090  16.525   9.415   9.325 -0.0058  0.1382  0.0766
 1171ERGO    R416091  16.598   9.646   9.160 -0.4241  0.2410  0.0345
 1171ERGO    R516092  16.427   9.514   9.130 -0.3046  0.0539  0.1829
 1171ERGO    C116093  16.604   9.467   8.796 -0.5739  0.2978  0.0034
 1171ERGO    C216094  16.698   9.478   8.427  0.2082 -0.0444  0.0335
 1172ERGO   ROH16095   0.732   8.781  10.216 -0.0497 -0.0846 -0.0536
 1172ERGO    R116096   0.920   8.856  10.019 -0.0783 -0.0765 -0.0780
 1172ERGO    R216097   0.986   8.693   9.805 -0.1569 -0.0414 -0.1297
 1172ERGO    R316098   0.918   8.912   9.659 -0.1469  0.0050 -0.0650
 1172ERGO    R416099   1.042   8.731   9.466 -0.1892  0.0422 -0.1260
 1172ERGO    R516100   1.097   8.938   9.503 -0.1612  0.0257 -0.0774
 1172ERGO    C116101   1.011   8.959   9.132 -0.1987  0.1345 -0.0631
 1172ERGO    C216102   1.001   8.867   8.850 -0.0589  0.3883 -0.0329
 1173ERGO   ROH16103  12.723   6.991   6.292 -0.1604  0.1956 -0.1327
 1173ERGO    R116104  12.741   7.137   6.534 -0.2140  0.0895 -0.0626
 1173ERGO    R216105  12.589   7.077   6.756 -0.1041 -0.1500 -0.0456
 1173ERGO    R316106  12.831   7.067   6.879 -0.0590 -0.0145 -0.1236
 1173ERGO    R416107  12.648   7.169   7.084 -0.0034  0.0925 -0.1307
 1173ERGO    R516108  12.835   7.261   7.020 -0.0459  0.0840 -0.2611
 1173ERGO    C116109  12.910   7.214   7.391  0.0977  0.3610 -0.2535
 1173ERGO    C216110  12.839   7.224   7.737  0.0921  0.0486  0.1608
 1174ERGO   ROH16111   5.889  13.306   6.485  0.1532  0.0111 -0.0622
 1174ERGO    R116112   6.018  13.217   6.720  0.1337 -0.0950 -0.0950
 1174ERGO    R216113   6.213  13.366   6.849  0.0625 -0.1290  0.0169
 1174ERGO    R316114   6.050  13.332   7.064  0.0514 -0.2994 -0.0120
 1174ERGO    R416115   6.307  13.420   7.177 -0.1238  0.3310  0.0044
 1174ERGO    R516116   6.195  13.242   7.233  0.2129  0.1185  0.1050
 1174ERGO    C116117   6.210  13.421   7.570 -0.2427  0.4388 -0.0300
 1174ERGO    C216118   6.441  13.598   7.787  0.2354 -0.1972 -0.0728
 1175ERGO   ROH16119  14.872   8.529  10.072 -0.0155 -0.1969 -0.0401
 1175ERGO    R116120  14.881   8.392   9.824 -0.1745 -0.0720 -0.1169
 1175ERGO    R216121  14.730   8.469   9.606  0.0324  0.3286 -0.1299
 1175ERGO    R316122  14.971   8.472   9.481  0.0901 -0.0268 -0.0388
 1175ERGO    R416123  14.775   8.437   9.265  0.0961  0.4954 -0.1382
 1175ERGO    R516124  14.949   8.310   9.305 -0.1482  0.1396 -0.1653
 1175ERGO    C116125  15.028   8.421   8.949  0.1874  0.2588 -0.0576
 1175ERGO    C216126  15.077   8.404   8.596  0.1867  0.4414 -0.0812
 1176ERGO   ROH16127   0.803   9.811   9.903  0.2060  0.1203 -0.0110
 1176ERGO    R116128   0.670   9.840   9.654  0.0109  0.0074  0.0767
 1176ERGO    R216129   0.774   9.990   9.446 -0.2146  0.0271 -0.0294
 1176ERGO    R316130   0.741   9.759   9.306 -0.1950 -0.0177  0.0405
 1176ERGO    R416131   0.768   9.967   9.102 -0.1761 -0.0873 -0.0224
 1176ERGO    R516132   0.606   9.823   9.119 -0.1735 -0.0828  0.0053
 1176ERGO    C116133   0.733   9.738   8.769 -0.1353 -0.1959  0.0473
 1176ERGO    C216134   0.907   9.859   8.583 -0.2999 -0.0964 -0.1157
 1177ERGO   ROH16135  11.600   9.412   6.440  0.2469  0.0169  0.0950
 1177ERGO    R116136  11.697   9.442   6.704  0.1603  0.1470  0.1127
 1177ERGO    R216137  11.757   9.688   6.814 -0.0125  0.2131  0.0604
 1177ERGO    R316138  11.587   9.606   7.010 -0.0166  0.1679  0.0386
 1177ERGO    R416139  11.774   9.788   7.145  0.1179 -0.0400  0.1327
 1177ERGO    R516140  11.726   9.583   7.203  0.0127 -0.0561 -0.0072
 1177ERGO    C116141  11.625   9.768   7.521  0.1900 -0.2296  0.1543
 1177ERGO    C216142  11.617   9.873   7.834 -0.0873 -0.1663 -0.1890
 1178ERGO   ROH16143   3.862   7.349  10.226 -0.0540 -0.2313 -0.0578
 1178ERGO    R116144   3.936   7.490   9.991  0.0179 -0.1495  0.0121
 1178ERGO    R216145   4.145   7.409   9.828  0.0032 -0.1527 -0.0135
 1178ERGO    R316146   3.954   7.418   9.635  0.0186  0.0069 -0.0176
 1178ERGO    R416147   4.207   7.435   9.490  0.0268 -0.2435 -0.0154
 1178ERGO    R516148   4.040   7.572   9.474  0.1605 -0.0928 -0.0316
 1178ERGO    C116149   4.065   7.458   9.111  0.0548 -0.1467 -0.0202
 1178ERGO    C216150   4.062   7.532   8.831  0.4872  0.1261 -0.0511
 1179ERGO   ROH16151  15.835   7.327   6.400 -0.0199  0.1216 -0.0134
 1179ERGO    R116152  15.694   7.204   6.612  0.0228  0.2354  0.0829
 1179ERGO    R216153  15.768   6.961   6.720 -0.2136  0.0715 -0.1064
 1179ERGO    R316154  15.766   7.100   6.953  0.2407 -0.0198 -0.0380
 1179ERGO    R416155  15.636   6.844   7.017 -0.4382  0.2881 -0.1187
 1179ERGO    R516156  15.555   7.044   7.053  0.1093  0.5026  0.0025
 1179ERGO    C116157  15.556   6.907   7.409 -0.1425  0.3285 -0.0616
 1179ERGO    C216158  15.364   6.828   7.728 -0.1597 -0.1679  0.1112
 1180ERGO   ROH16159  15.479  12.954   6.400 -0.1786  0.1737 -0.0084
 1180ERGO    R116160  15.338  12.890   6.637 -0.1365 -0.0298 -0.0368
 1180ERGO    R216161  15.272  12.630   6.704  0.1651 -0.1249 -0.0774
 1180ERGO    R316162  15.401  12.691   6.936  0.0605  0.0038 -0.0578
 1180ERGO    R416163  15.274  12.433   6.988  0.1734 -0.0287 -0.0103
 1180ERGO    R516164  15.254  12.613   7.108  0.0520 -0.0080 -0.0783
 1180ERGO    C116165  15.397  12.376   7.371  0.0799  0.1481  0.0472
 1180ERGO    C216166  15.691  12.362   7.647  0.1443 -0.1937 -0.6053
 1181ERGO   ROH16167   3.498   7.039   6.355  0.0094  0.1034  0.2135
 1181ERGO    R116168   3.639   7.102   6.592  0.0380  0.2616  0.1561
 1181ERGO    R216169   3.605   7.341   6.727 -0.2403  0.1919  0.2149
 1181ERGO    R316170   3.554   7.177   6.938  0.0960  0.0758  0.2120
 1181ERGO    R416171   3.611   7.438   7.059 -0.1856  0.1327  0.2314
 1181ERGO    R516172   3.707   7.248   7.107  0.0979  0.2474  0.1401
 1181ERGO    C116173   3.567   7.341   7.450  0.1618 -0.0108  0.2382
 1181ERGO    C216174   3.432   7.538   7.548  0.0820  0.0061  0.0040
 1182ERGO   ROH16175   9.235   2.375   6.310  0.1502  0.1302 -0.0652
 1182ERGO    R116176   9.081   2.288   6.532  0.3050 -0.0478 -0.0241
 1182ERGO    R216177   9.178   2.291   6.790  0.3212  0.2057 -0.0270
 1182ERGO    R316178   8.953   2.435   6.839  0.0801 -0.1447 -0.0708
 1182ERGO    R416179   9.026   2.323   7.099  0.2699  0.0623 -0.0373
 1182ERGO    R516180   8.833   2.306   7.001  0.2929 -0.2883 -0.0272
 1182ERGO    C116181   8.727   2.477   7.324  0.0137 -0.3501 -0.0844
 1182ERGO    C216182   8.670   2.373   7.649 -0.0296  0.0216 -0.2451
 1183ERGO   ROH16183  13.664   6.914   6.446  0.2212 -0.2215 -0.0118
 1183ERGO    R116184  13.720   6.839   6.714  0.1859 -0.0750  0.0368
 1183ERGO    R216185  13.961   6.893   6.836  0.1629  0.0005  0.0413
 1183ERGO    R316186  13.804   7.010   7.024  0.1340  0.0944 -0.0394
 1183ERGO    R416187  14.031   6.901   7.174  0.0133 -0.0267  0.0741
 1183ERGO    R516188  13.820   6.864   7.214 -0.0315  0.0878 -0.0243
 1183ERGO    C116189  13.924   7.015   7.548 -0.1009  0.0456  0.0174
 1183ERGO    C216190  14.139   7.086   7.937  0.1922  0.0845 -0.1803
 1184ERGO   ROH16191   8.556   0.158   6.818  0.0729 -0.1217  0.2277
 1184ERGO    R116192   8.545   0.334   7.040  0.0702 -0.0800  0.1948
 1184ERGO    R216193   8.448   0.257   7.287  0.1467 -0.0596  0.2333
 1184ERGO    R316194   8.689   0.347   7.374  0.1408  0.0282  0.1602
 1184ERGO    R416195   8.509   0.385   7.602  0.1498  0.1771  0.1386
 1184ERGO    R516196   8.636   0.536   7.511  0.1303  0.1224  0.0246
 1184ERGO    C116197   8.770   0.544   7.867  0.1460  0.3974  0.0148
 1184ERGO    C216198   8.774   0.587   8.261  0.2670 -0.1771  0.4676
 1185ERGO   ROH16199   3.667   2.262   8.488 -0.0960  0.0194  0.0274
 1185ERGO    R116200   3.393   2.272   8.416 -0.1050  0.2356  0.0889
 1185ERGO    R216201   3.220   2.061   8.459 -0.1668  0.2210 -0.2316
 1185ERGO    R316202   3.073   2.251   8.588 -0.0841  0.0617  0.1101
 1185ERGO    R416203   2.893   2.020   8.565 -0.1088  0.0925 -0.0958
 1185ERGO    R516204   2.852   2.224   8.500 -0.1386  0.1884  0.1985
 1185ERGO    C116205   2.566   2.174   8.747  0.0026 -0.1319  0.3041
 1185ERGO    C216206   2.292   2.047   9.087  0.0380 -0.2926 -0.1371
 1186ERGO   ROH16207  17.283   9.718   6.354  0.3254  0.0157 -0.1294
 1186ERGO    R116208  17.328   9.682   6.631  0.3083  0.0328 -0.1241
 1186ERGO    R216209  17.309   9.435   6.754  0.2362  0.0500 -0.0971
 1186ERGO    R316210  17.560   9.495   6.839  0.2508 -0.0102 -0.0990
 1186ERGO    R416211  17.494   9.244   6.974  0.0895  0.1441  0.1111
 1186ERGO    R516212  17.563   9.428   7.069  0.1678  0.1907 -0.0378
 1186ERGO    C116213  17.838   9.189   7.182  0.0175  0.1424  0.2305
 1186ERGO    C216214  17.893   8.887   7.462 -0.0510  0.1369 -0.2673
 1187ERGO   ROH16215  16.268   0.617   6.921  0.0018 -0.0258 -0.0812
 1187ERGO    R116216  16.329   0.707   7.183  0.1249  0.0957 -0.1494
 1187ERGO    R216217  16.156   0.673   7.396  0.1767  0.2857 -0.0684
 1187ERGO    R316218  16.373   0.556   7.511  0.1673  0.2574 -0.0815
 1187ERGO    R416219  16.180   0.588   7.729  0.1643  0.2052 -0.0887
 1187ERGO    R516220  16.386   0.657   7.728  0.1595  0.2016 -0.0596
 1187ERGO    C116221  16.397   0.428   8.032  0.1481  0.1317 -0.1128
 1187ERGO    C216222  16.242   0.448   8.331  0.3607  0.1286  0.5787
 1188ERGO   ROH16223  11.276  15.479   6.736 -0.0825 -0.3673 -0.0095
 1188ERGO    R116224  11.199  15.381   6.991  0.0878 -0.2363  0.0953
 1188ERGO    R216225  11.382  15.297   7.179  0.2289  0.0703  0.1065
 1188ERGO    R316226  11.253  15.476   7.338  0.1253  0.0870  0.0030
 1188ERGO    R416227  11.367  15.282   7.524  0.1301  0.2000  0.1082
 1188ERGO    R516228  11.159  15.344   7.514  0.1169  0.1276  0.0249
 1188ERGO    C116229  11.238  15.442   7.874 -0.0249  0.2913  0.0121
 1188ERGO    C216230  11.249  15.252   8.200 -0.2375  0.1272 -0.4653
 1189ERGO   ROH16231  16.313  16.062   6.962 -0.1052 -0.2372 -0.1531
 1189ERGO    R116232  16.375  15.899   7.185 -0.0774 -0.1632 -0.1068
 1189ERGO    R216233  16.455  16.004   7.428 -0.0735 -0.0813 -0.1439
 1189ERGO    R316234  16.248  15.856   7.523 -0.0540 -0.0718 -0.0859
 1189ERGO    R416235  16.410  15.917   7.759 -0.0624  0.0442 -0.1087
 1189ERGO    R516236  16.346  15.720   7.694 -0.0358  0.0086 -0.0309
 1189ERGO    C116237  16.190  15.727   8.042 -0.0380  0.1262 -0.0337
 1189ERGO    C216238  16.188  15.656   8.420 -0.0515  0.2028 -0.2790
 1190ERGO   ROH16239   8.145   4.366   6.540  0.1600 -0.0874 -0.0601
 1190ERGO    R116240   8.180   4.366   6.821 -0.0764  0.0513 -0.0293
 1190ERGO    R216241   7.994   4.259   6.994 -0.0250 -0.2546 -0.1696
 1190ERGO    R316242   8.207   4.116   7.084  0.1739  0.1628  0.0575
 1190ERGO    R416243   7.990   4.051   7.270  0.0103 -0.4208 -0.2909
 1190ERGO    R516244   8.188   4.125   7.323 -0.2093 -0.0013  0.0472
 1190ERGO    C116245   8.188   3.796   7.515  0.2176 -0.1259 -0.1483
 1190ERGO    C216246   8.171   3.403   7.722 -0.0398 -0.2205  0.2330
 1191ERGO   ROH16247  11.005   2.684   6.470 -0.1740  0.1479 -0.0811
 1191ERGO    R116248  11.071   2.704   6.744 -0.2019 -0.0745 -0.0557
 1191ERGO    R216249  11.065   2.944   6.881  0.0784 -0.1305  0.0624
 1191ERGO    R316250  10.902   2.806   7.050 -0.1357 -0.0094 -0.0404
 1191ERGO    R416251  11.100   2.935   7.225 -0.0801 -0.2461  0.0764
 1191ERGO    R516252  11.050   2.722   7.219 -0.2911 -0.1976  0.0061
 1191ERGO    C116253  10.968   2.799   7.583 -0.3733 -0.1998 -0.0120
 1191ERGO    C216254  10.886   2.944   7.895 -0.1920  0.0514 -0.4141
 1192ERGO   ROH16255  17.241   5.167   8.197 -0.0697  0.3543 -0.0128
 1192ERGO    R116256  17.343   5.270   8.440 -0.0690  0.1652  0.0677
 1192ERGO    R216257  17.190   5.422   8.613 -0.0191  0.1704  0.1046
 1192ERGO    R316258  17.267   5.234   8.795 -0.1831  0.0292  0.0310
 1192ERGO    R416259  17.135   5.441   8.954  0.0239  0.1037  0.1160
 1192ERGO    R516260  17.335   5.360   8.986 -0.0466 -0.1004  0.0724
 1192ERGO    C116261  17.175   5.277   9.322 -0.1046 -0.0677  0.0535
 1192ERGO    C216262  17.200   5.263   9.724 -0.0899 -0.2514 -0.2013
 1193ERGO   ROH16263   7.201  12.682   6.642 -0.0417  0.1297  0.0586
 1193ERGO    R116264   7.131  12.807   6.887 -0.0428  0.0216  0.1142
 1193ERGO    R216265   7.026  12.666   7.100  0.0290 -0.0874  0.0815
 1193ERGO    R316266   7.232  12.781   7.235  0.0170 -0.0752  0.0891
 1193ERGO    R416267   7.038  12.708   7.443  0.0444 -0.1345  0.0867
 1193ERGO    R516268   7.127  12.905   7.411  0.0104 -0.1186  0.1127
 1193ERGO    C116269   7.239  12.840   7.769  0.0422 -0.1506  0.0969
 1193ERGO    C216270   7.332  12.833   8.098  0.0628 -0.0739 -0.1262
 1194ERGO   ROH16271  15.360   8.152   6.232 -0.1500  0.3040  0.0225
 1194ERGO    R116272  15.255   8.160   6.494  0.0586  0.2344  0.1102
 1194ERGO    R216273  15.352   8.000   6.698  0.2144  0.1731 -0.0112
 1194ERGO    R316274  15.380   8.237   6.827  0.3266  0.1348  0.0361
 1194ERGO    R416275  15.433   8.034   7.032 -0.0893  0.0532  0.0781
 1194ERGO    R516276  15.289   8.197   7.045  0.0600  0.2032 -0.0568
 1194ERGO    C116277  15.507   8.277   7.348 -0.1608 -0.0528  0.1745
 1194ERGO    C216278  15.815   8.316   7.565 -0.2122  0.0034 -0.1710
 1195ERGO   ROH16279   2.045   9.673  10.077 -0.1859  0.1403  0.0010
 1195ERGO    R116280   2.007   9.766   9.813 -0.3658 -0.3248 -0.1446
 1195ERGO    R216281   2.213   9.866   9.659 -0.6212  0.3000 -0.0942
 1195ERGO    R316282   2.129   9.678   9.481  0.2307 -0.2741  0.0461
 1195ERGO    R416283   2.261   9.885   9.318 -0.8784  0.4080 -0.1275
 1195ERGO    R516284   2.058   9.807   9.291 -0.5522 -0.6804  0.0102
 1195ERGO    C116285   2.210   9.721   8.951 -0.2284 -0.0680 -0.0152
 1195ERGO    C216286   2.285   9.571   8.634 -0.2233  0.1475  0.0960
 1196ERGO   ROH16287   3.194  14.958   6.807 -0.1681  0.1966  0.1283
 1196ERGO    R116288   3.384  14.854   6.989 -0.0677  0.0868 -0.0392
 1196ERGO    R216289   3.584  15.009   7.102 -0.1279  0.0626  0.0854
 1196ERGO    R316290   3.481  14.914   7.335 -0.0120 -0.2630  0.0125
 1196ERGO    R416291   3.724  15.058   7.414 -0.3383  0.2619  0.1530
 1196ERGO    R516292   3.672  14.852   7.464  0.0967  0.1111  0.0532
 1196ERGO    C116293   3.709  14.998   7.814 -0.3520  0.0723  0.1240
 1196ERGO    C216294   4.032  14.962   8.079 -0.0725 -0.1727 -0.0835
 1197ERGO   ROH16295  13.325   5.176   6.394 -0.0284  0.1296  0.0165
 1197ERGO    R116296  13.310   5.103   6.667 -0.0566  0.1492  0.0200
 1197ERGO    R216297  13.493   5.189   6.855 -0.1034  0.2005  0.0407
 1197ERGO    R316298  13.271   5.274   6.986 -0.1405  0.1674  0.0006
 1197ERGO    R416299  13.446   5.168   7.196 -0.1384  0.2428  0.0388
 1197ERGO    R516300  13.239   5.112   7.159 -0.1213  0.1859  0.0226
 1197ERGO    C116301  13.210   5.237   7.519 -0.1937  0.2363  0.0001
 1197ERGO    C216302  13.288   5.277   7.888 -0.1936 -0.1918  0.2045
 1198ERGO   ROH16303   2.215  17.470   7.364  0.0649 -0.1258 -0.0393
 1198ERGO    R116304   2.078  17.468   7.611  0.0787 -0.0271 -0.0304
 1198ERGO    R216305   2.127  17.280   7.807  0.0321  0.0050  0.0155
 1198ERGO    R316306   2.166  17.499   7.962  0.1065  0.0282 -0.0450
 1198ERGO    R416307   2.090  17.289   8.151  0.1335  0.0936  0.0243
 1198ERGO    R516308   1.997  17.484   8.131  0.1597  0.0942  0.0079
 1198ERGO    C116309   2.105  17.501   8.496  0.2624  0.1670 -0.0273
 1198ERGO    C216310   2.291  17.523   8.902 -0.2709  0.0582  0.0595
 1199ERGO   ROH16311   1.800   4.833  10.231 -0.2882 -0.1118 -0.1565
 1199ERGO    R116312   1.697   4.792   9.970 -0.1265 -0.1210 -0.2196
 1199ERGO    R216313   1.691   4.992   9.780 -0.1870 -0.0733 -0.1669
 1199ERGO    R316314   1.825   4.810   9.630  0.0311  0.0720 -0.1525
 1199ERGO    R416315   1.677   4.972   9.435 -0.1528 -0.1080 -0.1664
 1199ERGO    R516316   1.673   4.755   9.453  0.0985 -0.1149 -0.1547
 1199ERGO    C116317   1.795   4.789   9.093  0.0718  0.0080 -0.1527
 1199ERGO    C216318   1.785   4.802   8.764  0.0479 -0.2665  0.0523
 1200ERGO   ROH16319  17.234   5.060   6.420  0.0808 -0.0163  0.1539
 1200ERGO    R116320  17.243   5.180   6.676  0.1932 -0.0226  0.1563
 1200ERGO    R216321  17.088   5.093   6.888  0.0063  0.2075  0.1323
 1200ERGO    R316322  17.327   5.077   7.015 -0.0461 -0.1461  0.1755
 1200ERGO    R416323  17.145   5.188   7.215  0.1335  0.2920  0.0831
 1200ERGO    R516324  17.335   5.273   7.152  0.2872 -0.0880  0.0658
 1200ERGO    C116325  17.403   5.229   7.525  0.1584  0.0093  0.0950
 1200ERGO    C216326  17.614   5.121   7.833  0.1336  0.4837 -0.0697
 1201ERGO   ROH16327  14.705   1.089   6.833 -0.1586  0.1409 -0.0677
 1201ERGO    R116328  14.640   1.004   7.095  0.1630  0.0480 -0.0123
 1201ERGO    R216329  14.760   1.110   7.320  0.2006  0.2167 -0.1012
 1201ERGO    R316330  14.503   1.156   7.396  0.1889 -0.1344  0.0899
 1201ERGO    R416331  14.660   1.191   7.641  0.3286  0.2345 -0.0658
 1201ERGO    R516332  14.488   1.060   7.616  0.5081 -0.0395  0.1504
 1201ERGO    C116333  14.361   1.281   7.900  0.3922 -0.0849  0.1342
 1201ERGO    C216334  14.206   1.258   8.246 -0.1882  0.0279  0.0234
 1202ERGO   ROH16335   5.006   8.770   6.685  0.1546 -0.2411  0.0438
 1202ERGO    R116336   4.940   8.832   6.953  0.0733 -0.0530 -0.0188
 1202ERGO    R216337   5.004   8.666   7.164 -0.0903  0.0406  0.1045
 1202ERGO    R316338   5.121   8.891   7.263 -0.0266  0.0447  0.0220
 1202ERGO    R416339   5.041   8.740   7.500 -0.0123  0.1266  0.0780
 1202ERGO    R516340   4.991   8.947   7.455  0.0210  0.1243  0.0312
 1202ERGO    C116341   5.172   8.994   7.788  0.0930  0.1804 -0.0148
 1202ERGO    C216342   5.503   9.041   7.970 -0.0926  0.1041 -0.2877
 1203ERGO   ROH16343   0.296   2.200   7.077  0.1180  0.1807  0.2161
 1203ERGO    R116344   0.191   2.118   7.326 -0.0061  0.1625  0.1585
 1203ERGO    R216345   0.350   2.071   7.547 -0.0925 -0.0631  0.1759
 1203ERGO    R316346   0.182   2.248   7.666  0.0281  0.0278  0.2119
 1203ERGO    R416347   0.332   2.128   7.887 -0.0160 -0.0823  0.1831
 1203ERGO    R516348   0.115   2.140   7.869 -0.0119  0.0495  0.2106
 1203ERGO    C116349   0.165   2.328   8.197  0.1418 -0.0081  0.2211
 1203ERGO    C216350   0.255   2.337   8.384 -0.1114 -0.1693  0.2724
 1204ERGO   ROH16351   2.015  12.942   6.610 -0.2392  0.1825  0.0616
 1204ERGO    R116352   2.149  12.769   6.790 -0.2036  0.0859 -0.0547
 1204ERGO    R216353   2.263  12.859   7.025  0.1435  0.0222 -0.1875
 1204ERGO    R316354   2.109  12.666   7.137  0.0732  0.1898  0.0095
 1204ERGO    R416355   2.330  12.702   7.326  0.1496  0.2009 -0.0948
 1204ERGO    R516356   2.265  12.514   7.236  0.0151  0.1739  0.0679
 1204ERGO    C116357   2.224  12.429   7.605  0.0871  0.4625  0.1440
 1204ERGO    C216358   2.327  12.233   7.887  0.1910 -0.0157  0.1108
 1205ERGO   ROH16359  10.543  16.535   8.438  0.3907  0.0419  0.1395
 1205ERGO    R116360  10.401  16.566   8.682  0.3720  0.1061  0.1206
 1205ERGO    R216361  10.309  16.351   8.829  0.0736  0.1487  0.0034
 1205ERGO    R316362  10.449  16.471   9.029  0.1768 -0.1107  0.0903
 1205ERGO    R416363  10.252  16.303   9.166 -0.2018  0.2172 -0.0310
 1205ERGO    R516364  10.285  16.516   9.198  0.1560  0.1631  0.0022
 1205ERGO    C116365  10.350  16.387   9.551 -0.2655  0.0132  0.0305
 1205ERGO    C216366  10.388  16.344   9.822 -0.0245  0.0419  0.1793
 1206ERGO   ROH16367  11.671  14.058   7.041  0.0093 -0.2670 -0.0017
 1206ERGO    R116368  11.502  13.927   7.227  0.1110 -0.3183  0.0562
 1206ERGO    R216369  11.598  13.746   7.412  0.2612 -0.1409  0.1625
 1206ERGO    R316370  11.473  13.909   7.590  0.1066 -0.1513  0.0640
 1206ERGO    R416371  11.506  13.655   7.733  0.2284 -0.0678  0.1733
 1206ERGO    R516372  11.320  13.765   7.706  0.1676 -0.1996  0.0788
 1206ERGO    C116373  11.336  13.757   8.087  0.0644 -0.0348  0.0871
 1206ERGO    C216374  11.264  13.631   8.305  0.0276  0.0480  0.0071
 1207ERGO   ROH16375   7.569  16.766   6.668  0.1166 -0.0347 -0.0272
 1207ERGO    R116376   7.709  16.921   6.859 -0.0224 -0.0285  0.0708
 1207ERGO    R216377   7.617  16.959   7.117 -0.1016 -0.2023  0.0686
 1207ERGO    R316378   7.863  16.864   7.184 -0.0534 -0.0745  0.0774
 1207ERGO    R416379   7.795  17.054   7.397 -0.1958 -0.1767  0.1210
 1207ERGO    R516380   7.976  17.054   7.276 -0.1784 -0.0338  0.1476
 1207ERGO    C116381   8.129  17.021   7.624 -0.2054 -0.0420  0.1598
 1207ERGO    C216382   8.341  17.160   7.894  0.0164  0.2591 -0.0292
 1208ERGO   ROH16383  17.131   3.710   6.632  0.0789 -0.0463 -0.0211
 1208ERGO    R116384  17.079   3.887   6.847 -0.0155 -0.0916 -0.0058
 1208ERGO    R216385  17.002   3.798   7.097  0.2011 -0.1660  0.0380
 1208ERGO    R316386  17.215   3.946   7.179  0.0796  0.0755 -0.0736
 1208ERGO    R416387  17.097   3.841   7.427  0.3288 -0.0623 -0.0116
 1208ERGO    R516388  17.140   4.050   7.382  0.0686 -0.0113 -0.0337
 1208ERGO    C116389  17.352   4.004   7.696  0.2888  0.2248 -0.1453
 1208ERGO    C216390  17.602   3.862   7.871 -0.2391 -0.0022  0.1682
 1209ERGO   ROH16391  15.344   9.202   6.108 -0.0646 -0.3217 -0.0170
 1209ERGO    R116392  15.413   9.093   6.360  0.0981 -0.0525  0.0588
 1209ERGO    R216393  15.563   9.231   6.546 -0.2337  0.3615  0.0306
 1209ERGO    R316394  15.353   9.176   6.709 -0.1689  0.0074  0.0023
 1209ERGO    R416395  15.580   9.214   6.890 -0.2419  0.3750  0.0320
 1209ERGO    R516396  15.447   9.041   6.883  0.0372  0.1495  0.0074
 1209ERGO    C116397  15.393   9.152   7.245 -0.1857  0.0503  0.0063
 1209ERGO    C216398  15.415   9.238   7.540 -0.2817 -0.1321  0.2582
 1210ERGO   ROH16399  17.387  11.493  10.365 -0.1839  0.1361  0.0635
 1210ERGO    R116400  17.465  11.629  10.129 -0.1060  0.0240  0.0230
 1210ERGO    R216401  17.705  11.581  10.002 -0.0679 -0.0472  0.1163
 1210ERGO    R316402  17.545  11.539   9.786 -0.0065 -0.1396  0.0887
 1210ERGO    R416403  17.812  11.582   9.673 -0.0416  0.1840  0.1244
 1210ERGO    R516404  17.629  11.688   9.619 -0.1504  0.0106  0.1491
 1210ERGO    C116405  17.723  11.543   9.279  0.0314  0.2319  0.1032
 1210ERGO    C216406  17.673  11.486   8.940  0.3369  0.0787  0.1288
 1211ERGO   ROH16407   1.765  10.454   6.710  0.0693 -0.0776 -0.0100
 1211ERGO    R116408   1.662  10.362   6.957  0.0350 -0.0752 -0.0227
 1211ERGO    R216409   1.819  10.237   7.146  0.0274 -0.0013  0.0365
 1211ERGO    R316410   1.721  10.430   7.310 -0.0742 -0.0070 -0.0177
 1211ERGO    R416411   1.847  10.234   7.491  0.1507  0.1790  0.0287
 1211ERGO    R516412   1.641  10.309   7.502  0.0928  0.0149  0.0655
 1211ERGO    C116413   1.770  10.414   7.846  0.1272  0.2787 -0.0269
 1211ERGO    C216414   1.932  10.285   8.181  0.0053  0.1138  0.1523
 1212ERGO   ROH16415  14.630  11.606   6.824 -0.0059  0.2485 -0.1218
 1212ERGO    R116416  14.603  11.652   7.102 -0.0969  0.0977 -0.1039
 1212ERGO    R216417  14.651  11.456   7.291 -0.0523  0.0232 -0.1875
 1212ERGO    R316418  14.820  11.642   7.394 -0.1636  0.0524 -0.0567
 1212ERGO    R416419  14.832  11.419   7.583 -0.1656  0.0055 -0.1194
 1212ERGO    R516420  14.788  11.627   7.631 -0.2599 -0.0270 -0.0764
 1212ERGO    C116421  15.096  11.572   7.849 -0.3359  0.0227  0.0432
 1212ERGO    C216422  15.210  11.515   8.111  0.0782 -0.2671 -0.2140
 1213ERGO   ROH16423  17.553  14.382   6.678  0.0394  0.0355 -0.0468
 1213ERGO    R116424  17.606  14.556   6.894  0.1925 -0.1381  0.0578
 1213ERGO    R216425  17.421  14.739   6.987  0.4821  0.2477 -0.0966
 1213ERGO    R316426  17.468  14.617   7.226 -0.0396  0.0678 -0.0724
 1213ERGO    R416427  17.402  14.894   7.296  0.5974  0.2393 -0.0845
 1213ERGO    R516428  17.580  14.783   7.357  0.2748 -0.2334  0.0591
 1213ERGO    C116429  17.436  14.870   7.699  0.1748  0.0654 -0.0549
 1213ERGO    C216430  17.393  14.939   8.104 -0.0403  0.1553 -0.2755
 1214ERGO   ROH16431   1.687  10.260  10.091 -0.2502  0.0787 -0.1120
 1214ERGO    R116432   1.645  10.269   9.811 -0.1462 -0.0115 -0.1313
 1214ERGO    R216433   1.818  10.400   9.638 -0.1564  0.0549 -0.0933
 1214ERGO    R316434   1.823  10.158   9.513  0.0398  0.0270 -0.0355
 1214ERGO    R416435   1.840  10.354   9.297 -0.0925 -0.0166 -0.0802
 1214ERGO    R516436   1.696  10.192   9.313  0.0317 -0.1224 -0.0544
 1214ERGO    C116437   1.858  10.101   8.980  0.1289 -0.0844 -0.0182
 1214ERGO    C216438   1.960  10.064   8.703  0.1626 -0.1009  0.2005
 1215ERGO   ROH16439  10.185   3.139  10.112 -0.1496  0.2047 -0.0375
 1215ERGO    R116440  10.269   3.041   9.860 -0.1352  0.1745 -0.0203
 1215ERGO    R216441  10.097   2.915   9.684 -0.1357  0.2097 -0.0365
 1215ERGO    R316442  10.186   3.104   9.511 -0.0661  0.1764 -0.0386
 1215ERGO    R416443  10.127   2.872   9.343 -0.2383  0.2072 -0.0459
 1215ERGO    R516444  10.315   2.982   9.350 -0.1669  0.1061 -0.0758
 1215ERGO    C116445  10.228   3.025   8.981 -0.2326  0.1745 -0.0534
 1215ERGO    C216446  10.181   3.005   8.734 -0.0215  0.1428  0.0039
 1216ERGO   ROH16447  10.603   3.086   7.176 -0.1714  0.0688  0.0606
 1216ERGO    R116448  10.671   3.152   7.443  0.0468  0.0507  0.0132
 1216ERGO    R216449  10.916   3.258   7.512  0.0575  0.1912 -0.1981
 1216ERGO    R316450  10.764   3.452   7.626  0.0366  0.0691 -0.0169
 1216ERGO    R416451  11.007   3.445   7.788  0.0503 -0.0014 -0.0647
 1216ERGO    R516452  10.802   3.429   7.861  0.0741 -0.1014 -0.0453
 1216ERGO    C116453  10.917   3.736   8.055  0.0264 -0.2282  0.1831
 1216ERGO    C216454  10.945   4.081   8.130 -0.0420 -0.3276  0.0493
 1217ERGO   ROH16455   7.941   8.178   6.501 -0.1488  0.1299 -0.0177
 1217ERGO    R116456   8.000   7.948   6.655  0.0313  0.1084 -0.1158
 1217ERGO    R216457   8.245   7.821   6.647  0.1910  0.4073 -0.0398
 1217ERGO    R316458   8.237   7.857   6.916 -0.0197  0.2423 -0.0216
 1217ERGO    R416459   8.442   7.652   6.875  0.2056  0.4579 -0.0145
 1217ERGO    R516460   8.268   7.638   7.006  0.1294  0.2154 -0.1326
 1217ERGO    C116461   8.548   7.587   7.261  0.0163  0.3325  0.0173
 1217ERGO    C216462   8.678   7.451   7.604 -0.0942  0.0889  0.0314
 1218ERGO   ROH16463  15.521   7.263  10.003 -0.0091 -0.0549  0.0545
 1218ERGO    R116464  15.666   7.290   9.762  0.0173  0.0296  0.0803
 1218ERGO    R216465  15.692   7.084   9.579  0.1472  0.0552  0.0756
 1218ERGO    R316466  15.594   7.268   9.406  0.0890  0.0155  0.0650
 1218ERGO    R416467  15.701   7.055   9.235  0.0129 -0.0480  0.0796
 1218ERGO    R516468  15.750   7.267   9.224  0.0233 -0.0480  0.0029
 1218ERGO    C116469  15.614   7.212   8.872 -0.1201 -0.1453  0.0719
 1218ERGO    C216470  15.550   7.296   8.515 -0.0233 -0.0287 -0.1277
 1219ERGO   ROH16471  14.037  10.856   6.002  0.4454 -0.2007  0.0465
 1219ERGO    R116472  14.095  10.880   6.278  0.2572 -0.1277  0.0805
 1219ERGO    R216473  13.897  10.884   6.472  0.1293 -0.1365 -0.0525
 1219ERGO    R316474  14.041  10.680   6.578  0.1113 -0.0771  0.0903
 1219ERGO    R416475  13.849  10.753   6.788 -0.0648 -0.0847 -0.0585
 1219ERGO    R516476  14.066  10.738   6.809 -0.0713 -0.0214  0.0998
 1219ERGO    C116477  13.957  10.484   7.071 -0.1945  0.0013  0.0720
 1219ERGO    C216478  13.782  10.445   7.337  0.1451  0.2992 -0.0674
 1220ERGO   ROH16479   7.777  15.066   6.625 -0.0563 -0.0786  0.1117
 1220ERGO    R116480   7.853  15.146   6.886  0.0349 -0.2203  0.1292
 1220ERGO    R216481   7.703  15.323   7.037  0.3861  0.1620  0.0467
 1220ERGO    R316482   7.711  15.123   7.221 -0.1570  0.1531  0.0771
 1220ERGO    R416483   7.652  15.364   7.376 -0.0256  0.2374 -0.0189
 1220ERGO    R516484   7.813  15.223   7.413 -0.2779  0.0065  0.2155
 1220ERGO    C116485   7.629  15.200   7.746 -0.7750  0.2729 -0.0285
 1220ERGO    C216486   7.628  15.219   7.984  0.1087  0.0783  0.1218
 1221ERGO   ROH16487   4.034   3.067   6.877 -0.1478  0.0197  0.1589
 1221ERGO    R116488   3.992   3.114   7.152 -0.0588 -0.0157  0.1804
 1221ERGO    R216489   4.146   2.994   7.349  0.0411 -0.0032  0.1194
 1221ERGO    R316490   4.184   3.251   7.430  0.0142 -0.0015  0.1212
 1221ERGO    R416491   4.238   3.089   7.668  0.0116  0.0120  0.1220
 1221ERGO    R516492   4.098   3.256   7.654  0.0021 -0.0035  0.1124
 1221ERGO    C116493   4.328   3.384   7.930 -0.0309  0.0224  0.1252
 1221ERGO    C216494   4.508   3.346   8.216  0.1830 -0.0971 -0.1765
 1222ERGO   ROH16495  12.512  11.781   6.695  0.1345 -0.0384 -0.1022
 1222ERGO    R116496  12.554  11.554   6.858  0.0231 -0.0182 -0.0452
 1222ERGO    R216497  12.377  11.478   7.057 -0.1092  0.0107 -0.1543
 1222ERGO    R316498  12.382  11.240   6.925 -0.0250 -0.0085 -0.1191
 1222ERGO    R416499  12.318  11.170   7.202 -0.0244  0.0149 -0.1089
 1222ERGO    R516500  12.479  11.087   7.080  0.0127  0.0460 -0.0857
 1222ERGO    C116501  12.288  10.768   7.162  0.1040 -0.0006 -0.0493
 1222ERGO    C216502  12.311  10.477   7.280 -0.4927 -0.2806  0.1045
 1223ERGO   ROH16503  12.042  17.488   6.716 -0.1838  0.2689 -0.2532
 1223ERGO    R116504  12.031  17.515   6.998  0.0031  0.0608 -0.2229
 1223ERGO    R216505  11.867  17.699   7.124  0.2246  0.1013  0.0164
 1223ERGO    R316506  11.778  17.479   7.257  0.1232  0.0683 -0.1036
 1223ERGO    R416507  11.705  17.704   7.429  0.0334  0.0239 -0.0824
 1223ERGO    R516508  11.819  17.528   7.487 -0.0168 -0.0027 -0.0625
 1223ERGO    C116509  11.527  17.500   7.732 -0.1731 -0.0520 -0.2526
 1223ERGO    C216510  11.287  17.634   8.010 -0.2341  0.0664  0.1825
 1224ERGO   ROH16511  16.509   7.358   9.920 -0.1083 -0.2104  0.0332
 1224ERGO    R116512  16.539   7.542   9.707 -0.0675 -0.1757  0.0708
 1224ERGO    R216513  16.770   7.558   9.556 -0.1070 -0.2669  0.0159
 1224ERGO    R316514  16.597   7.523   9.349 -0.1788 -0.1149  0.0462
 1224ERGO    R416515  16.845   7.617   9.224 -0.1997 -0.0262  0.0340
 1224ERGO    R516516  16.647   7.703   9.199 -0.2155  0.0016  0.1604
 1224ERGO    C116517  16.727   7.618   8.836 -0.3210  0.2566  0.0730
 1224ERGO    C216518  16.752   7.606   8.479 -0.0811  0.1749 -0.5318
 1225ERGO   ROH16519   4.791   2.548   6.942 -0.0967  0.1769  0.0989
 1225ERGO    R116520   4.788   2.577   7.224  0.0653  0.0801  0.1114
 1225ERGO    R216521   4.744   2.365   7.395 -0.0095  0.0531  0.0560
 1225ERGO    R316522   4.978   2.446   7.505  0.1080 -0.1630 -0.0273
 1225ERGO    R416523   4.844   2.297   7.719 -0.0399  0.1125  0.0785
 1225ERGO    R516524   4.922   2.500   7.732  0.2049  0.0309 -0.0465
 1225ERGO    C116525   5.122   2.335   8.011  0.0527 -0.0558  0.0133
 1225ERGO    C216526   5.089   2.179   8.301  0.0067 -0.1596  0.3594
 1226ERGO   ROH16527   1.795   8.191   9.808 -0.0867 -0.0101 -0.0428
 1226ERGO    R116528   1.893   8.256   9.550  0.0088 -0.0451 -0.0159
 1226ERGO    R216529   1.958   8.064   9.362 -0.0931 -0.0678 -0.0277
 1226ERGO    R316530   1.786   8.204   9.206  0.0357  0.0767 -0.0433
 1226ERGO    R416531   1.964   8.070   9.017 -0.0077 -0.0080 -0.0260
 1226ERGO    R516532   1.920   8.283   9.024  0.1320  0.0216  0.0024
 1226ERGO    C116533   1.805   8.205   8.669  0.1629  0.1625 -0.0396
 1226ERGO    C216534   1.911   8.304   8.350 -0.3533  0.0695  0.2904
 1227ERGO   ROH16535   0.417  10.723   6.642  0.1234  0.1844  0.0607
 1227ERGO    R116536   0.422  10.605   6.899 -0.0435  0.0516  0.0051
 1227ERGO    R216537   0.656  10.572   7.043 -0.1094 -0.1956  0.0622
 1227ERGO    R316538   0.518  10.706   7.235 -0.0675 -0.1864  0.0856
 1227ERGO    R416539   0.735  10.570   7.379 -0.0991 -0.2626  0.0595
 1227ERGO    R516540   0.522  10.559   7.424 -0.0999 -0.2129  0.0649
 1227ERGO    C116541   0.652  10.696   7.755 -0.0537 -0.2930  0.0798
 1227ERGO    C216542   0.586  10.853   7.975  0.0020 -0.0626  0.0011
 1228ERGO   ROH16543  16.752   6.155   6.367  0.0771 -0.1662 -0.0337
 1228ERGO    R116544  16.916   6.114   6.595  0.0638 -0.0921 -0.0122
 1228ERGO    R216545  16.950   6.307   6.789 -0.1339 -0.1179  0.0401
 1228ERGO    R316546  16.870   6.107   6.956 -0.0003 -0.2250 -0.0200
 1228ERGO    R416547  17.018   6.294   7.128 -0.3648 -0.0119  0.0929
 1228ERGO    R516548  17.054   6.080   7.107 -0.0654  0.0237  0.1187
 1228ERGO    C116549  16.982   6.099   7.482 -0.3740 -0.0508  0.0673
 1228ERGO    C216550  17.037   6.054   7.753 -0.1449  0.0855  0.1653
 1229ERGO   ROH16551  13.883  17.632   6.776  0.2502 -0.1029  0.1151
 1229ERGO    R116552  13.926  17.655   7.055  0.0634 -0.1111  0.1456
 1229ERGO    R216553  13.895  17.894   7.190  0.1315 -0.0790  0.1007
 1229ERGO    R316554  13.729  17.746   7.347 -0.0873  0.0509 -0.0038
 1229ERGO    R416555  13.853  17.939   7.530  0.2764 -0.3136  0.1526
 1229ERGO    R516556  13.848  17.722   7.553 -0.0804 -0.3357 -0.0445
 1229ERGO    C116557  13.672  17.827   7.875  0.1553 -0.3281  0.0847
 1229ERGO    C216558  13.390  17.907   8.110 -0.0602  0.0288  0.1313
 1230ERGO   ROH16559   7.062   5.925   6.856  0.1544 -0.2362 -0.1026
 1230ERGO    R116560   7.030   5.791   7.104  0.0176 -0.0581 -0.0212
 1230ERGO    R216561   7.218   5.804   7.306 -0.0244 -0.0340  0.0147
 1230ERGO    R316562   7.005   5.884   7.454 -0.0149  0.1840 -0.0858
 1230ERGO    R416563   7.232   5.887   7.641 -0.1298 -0.2729  0.0811
 1230ERGO    R516564   7.042   5.785   7.669 -0.3093 -0.0151 -0.1206
 1230ERGO    C116565   7.040   6.012   7.975 -0.1822 -0.2073  0.0252
 1230ERGO    C216566   7.203   6.040   8.194  0.1388 -0.3157  0.0898
 1231ERGO   ROH16567   8.762  12.102   7.112  0.1102  0.2570  0.0142
 1231ERGO    R116568   8.714  12.173   7.382  0.1575  0.1590  0.0488
 1231ERGO    R216569   8.498  12.078   7.526  0.1357  0.1750  0.0248
 1231ERGO    R316570   8.690  12.000   7.701  0.1215  0.0316 -0.0224
 1231ERGO    R416571   8.464  12.076   7.869  0.1839  0.1089  0.0296
 1231ERGO    R516572   8.668  12.150   7.885  0.2259 -0.0005  0.0181
 1231ERGO    C116573   8.625  12.002   8.234  0.1986 -0.0640 -0.0120
 1231ERGO    C216574   8.714  12.024   8.570 -0.0660 -0.0511 -0.3667
 1232ERGO   ROH16575   3.210   0.060   6.945 -0.1217  0.1095  0.1502
 1232ERGO    R116576   3.187   0.149   7.213 -0.1534  0.0487  0.1686
 1232ERGO    R216577   2.952   0.131   7.356 -0.1305 -0.1259  0.1894
 1232ERGO    R316578   3.109   0.000   7.536 -0.0295 -0.0589  0.1497
 1232ERGO    R416579   2.913   0.145   7.700 -0.0548 -0.1466  0.1982
 1232ERGO    R516580   3.130   0.153   7.719 -0.0535 -0.0513  0.1459
 1232ERGO    C116581   3.039   0.030   8.068  0.0842 -0.0958  0.1661
 1232ERGO    C216582   3.012   0.119   8.420 -0.3022  0.1966 -0.1771
 1233ERGO   ROH16583   2.591  11.131   6.723  0.3527 -0.0789 -0.0897
 1233ERGO    R116584   2.487  11.051   6.974  0.1805 -0.0495 -0.1512
 1233ERGO    R216585   2.574  10.824   7.106  0.1074 -0.0174 -0.0550
 1233ERGO    R316586   2.617  10.999   7.310 -0.0568  0.0147 -0.0455
 1233ERGO    R416587   2.558  10.744   7.441  0.0729 -0.0326 -0.0597
 1233ERGO    R516588   2.459  10.934   7.477 -0.0628 -0.0912 -0.0857
 1233ERGO    C116589   2.589  10.861   7.828 -0.1013 -0.0114 -0.0536
 1233ERGO    C216590   2.739  10.682   8.103  0.1429  0.1031  0.1208
 1234ERGO   ROH16591   0.452   7.481  10.006 -0.2662  0.2915 -0.1024
 1234ERGO    R116592   0.384   7.447   9.733 -0.2200  0.2980 -0.1148
 1234ERGO    R216593   0.257   7.644   9.586 -0.0583  0.3603 -0.1738
 1234ERGO    R316594   0.468   7.608   9.418 -0.0376  0.2024 -0.1155
 1234ERGO    R416595   0.254   7.712   9.247  0.0160  0.1303 -0.2225
 1234ERGO    R516596   0.369   7.530   9.214 -0.0170  0.0846 -0.0798
 1234ERGO    C116597   0.450   7.718   8.892  0.0786 -0.1518 -0.1963
 1234ERGO    C216598   0.467   7.774   8.544  0.3452 -0.0308  0.0585
 1235ERGO   ROH16599  12.605  13.457   7.207 -0.1057 -0.2141 -0.1311
 1235ERGO    R116600  12.530  13.296   7.427 -0.1276 -0.2132 -0.1370
 1235ERGO    R216601  12.686  13.272   7.653 -0.1164 -0.2645 -0.1464
 1235ERGO    R316602  12.457  13.347   7.780 -0.0919 -0.2195 -0.1296
 1235ERGO    R416603  12.614  13.205   7.984 -0.0908 -0.2083 -0.1297
 1235ERGO    R516604  12.408  13.162   7.925 -0.1000 -0.1902 -0.0991
 1235ERGO    C116605  12.356  13.236   8.296 -0.0528 -0.1333 -0.1043
 1235ERGO    C216606  12.528  13.294   8.565 -0.0896  0.1478 -0.2558
 1236ERGO   ROH16607  10.968  12.102   6.764  0.2754  0.0548  0.0715
 1236ERGO    R116608  10.970  11.971   7.015  0.0696 -0.0658  0.0144
 1236ERGO    R216609  10.816  11.748   7.068  0.0798 -0.1455 -0.2412
 1236ERGO    R316610  11.055  11.639   7.139  0.0485 -0.1001 -0.0688
 1236ERGO    R416611  10.859  11.516   7.320  0.0041  0.1068  0.0077
 1236ERGO    R516612  11.042  11.620   7.377 -0.0059  0.1424 -0.0554
 1236ERGO    C116613  11.109  11.279   7.534 -0.0696  0.2965  0.3145
 1236ERGO    C216614  10.892  11.161   7.714 -0.0308  0.3421  0.0888
 1237ERGO   ROH16615   9.357   3.163   6.459  0.2662  0.1139 -0.0535
 1237ERGO    R116616   9.294   3.320   6.686  0.2177  0.0547 -0.0240
 1237ERGO    R216617   9.033   3.375   6.761  0.1957  0.1527 -0.1432
 1237ERGO    R316618   9.114   3.272   6.998  0.0206  0.0111 -0.1445
 1237ERGO    R416619   8.918   3.476   7.071  0.2324  0.2033 -0.1473
 1237ERGO    R516620   9.121   3.459   7.146  0.1899 -0.0359 -0.0997
 1237ERGO    C116621   8.928   3.437   7.474  0.0894  0.0999 -0.1509
 1237ERGO    C216622   8.720   3.410   7.729  0.0137  0.3638 -0.1672
 1238ERGO   ROH16623   0.826  10.765  10.225  0.2665  0.0582 -0.0548
 1238ERGO    R116624   0.850  10.927   9.994  0.3578  0.0315 -0.0663
 1238ERGO    R216625   1.030  10.872   9.792  0.3030 -0.1081 -0.0878
 1238ERGO    R316626   0.808  10.882   9.635  0.2890  0.0380 -0.0574
 1238ERGO    R416627   1.033  10.873   9.447  0.2469 -0.0686 -0.0872
 1238ERGO    R516628   0.872  11.021   9.451  0.3368  0.0189 -0.0487
 1238ERGO    C116629   0.826  10.884   9.098  0.2010  0.0916 -0.0582
 1238ERGO    C216630   0.992  10.918   8.750  0.0188 -0.0474  0.1722
 1239ERGO   ROH16631  15.776  14.222   7.003 -0.1395 -0.0963 -0.0389
 1239ERGO    R116632  15.652  14.065   7.203 -0.0474 -0.1763 -0.0430
 1239ERGO    R216633  15.796  13.912   7.383  0.0454 -0.0842 -0.0331
 1239ERGO    R316634  15.653  14.052   7.567 -0.0535 -0.1719 -0.0438
 1239ERGO    R416635  15.785  13.840   7.721 -0.0134 -0.1432 -0.0481
 1239ERGO    R516636  15.572  13.885   7.718 -0.0272 -0.2256 -0.0924
 1239ERGO    C116637  15.643  13.929   8.090 -0.1407 -0.2600 -0.0668
 1239ERGO    C216638  15.558  13.932   8.361  0.2772  0.2541 -0.0048
 1240ERGO   ROH16639  11.102  17.273  10.424 -0.0687 -0.0072  0.0256
 1240ERGO    R116640  11.231  17.381  10.197 -0.1199  0.0751  0.0354
 1240ERGO    R216641  11.407  17.235  10.043  0.0027  0.1936  0.0623
 1240ERGO    R316642  11.242  17.310   9.840 -0.0286  0.0663  0.0396
 1240ERGO    R416643  11.473  17.188   9.707  0.0042  0.0834  0.0776
 1240ERGO    R516644  11.390  17.386   9.668 -0.0574  0.0448  0.0044
 1240ERGO    C116645  11.356  17.231   9.321 -0.0244 -0.1001  0.0652
 1240ERGO    C216646  11.468  17.221   8.948 -0.1997  0.3241 -0.0814
 1241ERGO   ROH16647  11.071  16.765   6.614  0.1527  0.2562 -0.1253
 1241ERGO    R116648  11.165  16.790   6.880  0.0616  0.1488 -0.0818
 1241ERGO    R216649  11.061  16.975   7.057  0.0487  0.1255 -0.0642
 1241ERGO    R316650  11.025  16.756   7.214 -0.0732  0.0877 -0.1437
 1241ERGO    R416651  10.992  16.983   7.396  0.0979  0.0400 -0.0520
 1241ERGO    R516652  11.127  16.814   7.422 -0.0080 -0.0586 -0.1338
 1241ERGO    C116653  10.919  16.783   7.740  0.0123 -0.0454 -0.1196
 1241ERGO    C216654  10.717  16.631   8.007  0.0608 -0.0456 -0.2467
 1242ERGO   ROH16655  17.022   9.281   6.376 -0.1456 -0.1095  0.0339
 1242ERGO    R116656  16.847   9.427   6.544 -0.1661 -0.0902 -0.0047
 1242ERGO    R216657  16.597   9.334   6.616 -0.0986 -0.1683  0.1279
 1242ERGO    R316658  16.689   9.378   6.868 -0.0448  0.0341  0.0750
 1242ERGO    R416659  16.397   9.379   6.894 -0.0407 -0.2607  0.1853
 1242ERGO    R516660  16.534   9.535   6.961 -0.1747 -0.0865  0.0669
 1242ERGO    C116661  16.367   9.447   7.293  0.0433 -0.1245  0.1691
 1242ERGO    C216662  16.254   9.652   7.512 -0.0037 -0.3467  0.2124
 1243ERGO   ROH16663  12.065   3.453   6.221 -0.0221  0.0926 -0.0074
 1243ERGO    R116664  12.155   3.449   6.490 -0.0945 -0.0041  0.0156
 1243ERGO    R216665  12.139   3.669   6.656 -0.0303 -0.0289  0.0542
 1243ERGO    R316666  12.007   3.496   6.818 -0.1577  0.0035 -0.0135
 1243ERGO    R416667  12.078   3.720   6.992  0.0289 -0.1239  0.0795
 1243ERGO    R516668  12.122   3.509   7.027 -0.1332 -0.1758 -0.0131
 1243ERGO    C116669  11.919   3.586   7.341 -0.0561 -0.1489  0.0306
 1243ERGO    C216670  11.700   3.488   7.562  0.2772  0.1024 -0.0910
 1244ERGO   ROH16671  12.646   2.700   6.723  0.0984 -0.4653  0.0223
 1244ERGO    R116672  12.588   2.835   6.965 -0.0196 -0.3578 -0.0645
 1244ERGO    R216673  12.503   2.704   7.192  0.1000 -0.2881  0.0261
 1244ERGO    R316674  12.713   2.833   7.306 -0.0096 -0.0246 -0.0639
 1244ERGO    R416675  12.519   2.802   7.523  0.0856 -0.1751 -0.0070
 1244ERGO    R516676  12.613   2.988   7.459 -0.1352 -0.0914 -0.0823
 1244ERGO    C116677  12.726   2.981   7.823 -0.0258  0.1381 -0.1107
 1244ERGO    C216678  12.807   3.010   8.106  0.0749 -0.0360 -0.0294
 1245ERGO   ROH16679   4.762  14.163   6.716 -0.3009 -0.1783  0.0005
 1245ERGO    R116680   4.681  14.120   6.984 -0.0155 -0.3152  0.0691
 1245ERGO    R216681   4.829  13.968   7.162  0.3453 -0.1443 -0.0672
 1245ERGO    R316682   4.815  14.192   7.315  0.1807 -0.1721 -0.0406
 1245ERGO    R416683   4.875  13.976   7.504  0.1847 -0.1623 -0.0448
 1245ERGO    R516684   4.711  14.119   7.518  0.1217 -0.2374 -0.0989
 1245ERGO    C116685   4.889  14.190   7.847 -0.0633 -0.1987 -0.0069
 1245ERGO    C216686   4.774  14.055   8.117 -0.1389  0.1125  0.1299
 1246ERGO   ROH16687   7.483  10.018   6.456 -0.3012  0.1916  0.0412
 1246ERGO    R116688   7.531   9.855   6.683 -0.3597 -0.0011 -0.0817
 1246ERGO    R216689   7.675   9.944   6.901 -0.0243 -0.3364 -0.1553
 1246ERGO    R316690   7.452   9.868   7.038 -0.0337 -0.0507 -0.0054
 1246ERGO    R416691   7.655   9.914   7.245  0.1103 -0.1452 -0.1294
 1246ERGO    R516692   7.536   9.733   7.217 -0.0806 -0.0428  0.0203
 1246ERGO    C116693   7.435   9.825   7.574  0.1799  0.2343  0.0263
 1246ERGO    C216694   7.511   9.652   7.948  0.0064 -0.1084  0.2984
 1247ERGO   ROH16695  14.876  16.269   6.766  0.1975  0.1472 -0.0077
 1247ERGO    R116696  14.796  16.158   7.013  0.1362  0.0633 -0.0632
 1247ERGO    R216697  14.973  16.032   7.184  0.0785 -0.0856 -0.1027
 1247ERGO    R316698  14.876  16.211   7.364  0.1333 -0.1256 -0.0351
 1247ERGO    R416699  14.964  15.984   7.526  0.1986 -0.1396 -0.1076
 1247ERGO    R516700  14.768  16.076   7.530  0.2005 -0.1535 -0.0202
 1247ERGO    C116701  14.868  16.124   7.895  0.3200 -0.2086 -0.0469
 1247ERGO    C216702  14.749  16.207   8.183  0.1349 -0.1520  0.0217
 1248ERGO   ROH16703  15.626   1.747   6.614 -0.1515 -0.2065 -0.0380
 1248ERGO    R116704  15.585   1.856   6.872 -0.0665 -0.0906 -0.0726
 1248ERGO    R216705  15.439   1.726   7.067 -0.1024  0.0497 -0.0035
 1248ERGO    R316706  15.664   1.762   7.214 -0.0651 -0.0004 -0.0482
 1248ERGO    R416707  15.448   1.865   7.383  0.0104  0.1770 -0.0615
 1248ERGO    R516708  15.630   1.971   7.326  0.0548  0.0630 -0.1295
 1248ERGO    C116709  15.665   1.979   7.706  0.1111  0.2040 -0.1372
 1248ERGO    C216710  15.816   1.946   7.907  0.1468  0.2515 -0.1120
 1249ERGO   ROH16711   7.716  11.990   6.652  0.0281  0.2041 -0.1542
 1249ERGO    R116712   7.655  11.918   6.919 -0.0695  0.1918 -0.1788
 1249ERGO    R216713   7.848  11.904   7.117 -0.1046 -0.0218 -0.1547
 1249ERGO    R316714   7.680  12.074   7.247  0.0232  0.0939 -0.1392
 1249ERGO    R416715   7.788  11.899   7.457 -0.2323 -0.1125 -0.1781
 1249ERGO    R516716   7.577  11.938   7.415 -0.1787  0.1242 -0.2372
 1249ERGO    C116717   7.595  12.056   7.778 -0.1866 -0.0565 -0.1773
 1249ERGO    C216718   7.517  11.970   8.130 -0.0413 -0.0183 -0.0681
 1250ERGO   ROH16719   9.716   0.358   6.234 -0.0066 -0.1078 -0.2009
 1250ERGO    R116720   9.625   0.307   6.497  0.0082  0.1097 -0.1527
 1250ERGO    R216721   9.642   0.057   6.615 -0.1803  0.1603 -0.0271
 1250ERGO    R316722   9.772   0.194   6.810 -0.0208  0.1491 -0.1227
 1250ERGO    R416723   9.637  -0.026   6.950 -0.3025  0.3970  0.0324
 1250ERGO    R516724   9.623   0.187   6.997 -0.0490  0.4605 -0.1209
 1250ERGO    C116725   9.757   0.054   7.329 -0.2238  0.5244 -0.0227
 1250ERGO    C216726   9.733  -0.188   7.584 -0.0732 -0.0132 -0.1111
 1251ERGO   ROH16727   5.932   6.455  10.483  0.0847  0.0891 -0.0536
 1251ERGO    R116728   5.817   6.522  10.234 -0.0144 -0.1415 -0.0720
 1251ERGO    R216729   5.927   6.712  10.065 -0.3959  0.1294 -0.0231
 1251ERGO    R316730   5.917   6.510   9.884  0.0986  0.1179 -0.0524
 1251ERGO    R416731   5.925   6.754   9.722 -0.1268  0.1524 -0.0247
 1251ERGO    R516732   5.778   6.594   9.708  0.1306 -0.0852 -0.1819
 1251ERGO    C116733   5.914   6.588   9.352  0.4942  0.1550 -0.0530
 1251ERGO    C216734   5.820   6.619   9.018 -0.1662 -0.1286 -0.4064
 1252ERGO   ROH16735   8.875  10.270   6.369 -0.1697 -0.1957 -0.2631
 1252ERGO    R116736   8.721  10.313   6.603 -0.0600 -0.0689 -0.2134
 1252ERGO    R216737   8.656  10.110   6.778 -0.1582 -0.0135 -0.1862
 1252ERGO    R316738   8.768  10.276   6.962  0.0301 -0.0922 -0.2274
 1252ERGO    R416739   8.607  10.089   7.120 -0.2665  0.1868 -0.1873
 1252ERGO    R516740   8.597  10.307   7.127  0.0304  0.2080 -0.2761
 1252ERGO    C116741   8.684  10.232   7.491 -0.1527  0.2295 -0.2267
 1252ERGO    C216742   8.680  10.269   7.908  0.1600 -0.0470  0.0058
 1253ERGO   ROH16743   8.811   2.771  10.273 -0.0762  0.0441 -0.0702
 1253ERGO    R116744   8.707   2.813  10.013 -0.1133  0.2629 -0.0214
 1253ERGO    R216745   8.749   3.047   9.871  0.3256  0.1762 -0.0425
 1253ERGO    R316746   8.842   2.877   9.681 -0.1285 -0.0353 -0.0885
 1253ERGO    R416747   8.731   3.102   9.531  0.2879  0.2245 -0.0329
 1253ERGO    R516748   8.681   2.892   9.504 -0.1876  0.3191 -0.0152
 1253ERGO    C116749   8.807   2.975   9.154 -0.1603  0.0540 -0.0705
 1253ERGO    C216750   8.816   2.985   8.832  0.1191  0.0572 -0.0262
 1254ERGO   ROH16751  10.135   5.189   6.203  0.1833  0.0461 -0.0316
 1254ERGO    R116752   9.959   5.273   6.409  0.1305 -0.0471 -0.0363
 1254ERGO    R216753   9.962   5.160   6.662  0.1796 -0.0490 -0.0298
 1254ERGO    R316754   9.992   5.419   6.740  0.0459 -0.0332 -0.0362
 1254ERGO    R416755   9.971   5.269   6.990  0.2642 -0.0429 -0.0353
 1254ERGO    R516756   9.852   5.441   6.932  0.1276 -0.1255  0.0282
 1254ERGO    C116757  10.005   5.575   7.254  0.1880 -0.0244 -0.0444
 1254ERGO    C216758  10.106   5.735   7.613  0.0148 -0.0875  0.0908
 1255ERGO   ROH16759   0.672   5.459   6.255 -0.0520 -0.0892  0.0359
 1255ERGO    R116760   0.551   5.669   6.401  0.1477  0.1027 -0.0686
 1255ERGO    R216761   0.387   5.623   6.618 -0.2025  0.3461 -0.2725
 1255ERGO    R316762   0.560   5.792   6.743 -0.0377  0.0118 -0.0299
 1255ERGO    R416763   0.304   5.835   6.878 -0.0496  0.2223 -0.1192
 1255ERGO    R516764   0.430   5.988   6.787  0.1961  0.1451  0.0824
 1255ERGO    C116765   0.417   6.118   7.146  0.1941 -0.1637  0.1978
 1255ERGO    C216766   0.278   6.355   7.506 -0.1679 -0.1973  0.1718
 1256ERGO   ROH16767   1.330  11.302   6.802  0.2171  0.1246  0.0612
 1256ERGO    R116768   1.445  11.335   7.059  0.1646  0.0811  0.0914
 1256ERGO    R216769   1.318  11.473   7.262  0.1593  0.1245  0.0660
 1256ERGO    R316770   1.359  11.243   7.400  0.0436  0.1047  0.0658
 1256ERGO    R416771   1.361  11.452   7.604  0.2233  0.1001  0.0559
 1256ERGO    R516772   1.515  11.302   7.571  0.1166  0.0049  0.0282
 1256ERGO    C116773   1.424  11.223   7.933  0.1520  0.0675  0.0498
 1256ERGO    C216774   1.469  11.241   8.188 -0.0680  0.0172  0.1951
 1257ERGO   ROH16775  14.850  17.417   7.187  0.0325 -0.1004 -0.0088
 1257ERGO    R116776  14.767  17.547   7.424  0.1042  0.0426 -0.0609
 1257ERGO    R216777  14.597  17.429   7.607 -0.0379  0.2453 -0.0580
 1257ERGO    R316778  14.796  17.489   7.782 -0.0147  0.1166 -0.0387
 1257ERGO    R416779  14.587  17.366   7.947  0.0000  0.0161 -0.0968
 1257ERGO    R516780  14.682  17.560   7.980  0.0130 -0.0113  0.0236
 1257ERGO    C116781  14.767  17.387   8.309  0.0437 -0.2382 -0.1015
 1257ERGO    C216782  14.786  17.398   8.642  0.3098  0.1604 -0.0247
 1258ERGO   ROH16783   2.778   5.895   6.952  0.1230  0.2863  0.0275
 1258ERGO    R116784   2.894   5.758   7.171 -0.1157  0.0577  0.0174
 1258ERGO    R216785   3.111   5.858   7.311  0.1660 -0.4006 -0.0643
 1258ERGO    R316786   2.948   5.823   7.525  0.1386  0.0110 -0.0122
 1258ERGO    R416787   3.219   5.793   7.633  0.1030 -0.4222 -0.0482
 1258ERGO    R516788   3.054   5.652   7.654 -0.1506 -0.1142  0.0609
 1258ERGO    C116789   3.128   5.723   8.022  0.0406 -0.0484  0.0101
 1258ERGO    C216790   3.203   5.591   8.281  0.0227 -0.2515 -0.0994
 1259ERGO   ROH16791   2.430   1.382   7.012 -0.0182 -0.2169  0.0805
 1259ERGO    R116792   2.341   1.274   7.258 -0.1122 -0.1656  0.0703
 1259ERGO    R216793   2.501   1.267   7.482 -0.1303 -0.2885  0.0842
 1259ERGO    R316794   2.291   1.396   7.597 -0.0483 -0.1417  0.0700
 1259ERGO    R416795   2.431   1.265   7.821 -0.1144 -0.1615  0.0883
 1259ERGO    R516796   2.219   1.247   7.771 -0.1237 -0.0524  0.1103
 1259ERGO    C116797   2.193   1.386   8.126 -0.0282  0.0504  0.0772
 1259ERGO    C216798   2.412   1.377   8.378  0.1925 -0.1690 -0.0001
 1260ERGO   ROH16799   9.578   8.041   6.630 -0.2052  0.2727 -0.0129
 1260ERGO    R116800   9.443   8.049   6.879 -0.2285 -0.1827 -0.0013
 1260ERGO    R216801   9.438   7.835   7.052  0.2802 -0.3068 -0.1159
 1260ERGO    R316802   9.533   8.017   7.230 -0.1383 -0.1673 -0.0243
 1260ERGO    R416803   9.427   7.798   7.396  0.3770 -0.5040 -0.1328
 1260ERGO    R516804   9.376   8.010   7.411 -0.1205 -0.6258 -0.0202
 1260ERGO    C116805   9.510   7.948   7.763  0.0405 -0.4878 -0.0566
 1260ERGO    C216806   9.547   7.842   8.049 -0.1320  0.0735 -0.1623
 1261ERGO   ROH16807   1.081   8.216   6.456 -0.0383  0.1023  0.1784
 1261ERGO    R116808   0.943   8.248   6.701 -0.1025  0.0331  0.1517
 1261ERGO    R216809   0.797   8.043   6.817  0.0691 -0.0772  0.1811
 1261ERGO    R316810   0.953   8.097   7.032 -0.0076  0.1214  0.1885
 1261ERGO    R416811   0.697   8.013   7.147  0.1003 -0.2268  0.1772
 1261ERGO    R516812   0.805   8.197   7.191 -0.1461 -0.0844  0.1899
 1261ERGO    C116813   0.786   8.046   7.541  0.0465 -0.1274  0.1820
 1261ERGO    C216814   0.761   7.882   7.955 -0.1319 -0.2217  0.2751
 1262ERGO   ROH16815   5.954  14.566   7.826  0.1303  0.0252 -0.0134
 1262ERGO    R116816   5.724  14.600   7.986  0.2150 -0.0072  0.1150
 1262ERGO    R216817   5.488  14.465   7.938  0.0758  0.2831 -0.0205
 1262ERGO    R316818   5.515  14.389   8.198  0.0903 -0.1447 -0.1380
 1262ERGO    R416819   5.227  14.373   8.146  0.0312  0.3466 -0.0472
 1262ERGO    R516820   5.324  14.483   8.308  0.2664 -0.0252  0.0827
 1262ERGO    C116821   5.101  14.248   8.510  0.0189 -0.0182 -0.1729
 1262ERGO    C216822   4.891  14.002   8.642  0.3688 -0.3111 -0.1542
 1263ERGO   ROH16823  16.390   6.531   9.883 -0.0603  0.0029  0.1499
 1263ERGO    R116824  16.536   6.531   9.640 -0.0514 -0.0560  0.1556
 1263ERGO    R216825  16.478   6.360   9.431 -0.1046 -0.0406  0.1610
 1263ERGO    R316826  16.463   6.590   9.288 -0.0163 -0.0405  0.1502
 1263ERGO    R416827  16.508   6.382   9.088  0.2023 -0.0341  0.1852
 1263ERGO    R516828  16.626   6.564   9.115  0.1487 -0.0121  0.2944
 1263ERGO    C116829  16.512   6.612   8.754  0.4636 -0.0303  0.1891
 1263ERGO    C216830  16.666   6.592   8.403  0.2132 -0.1146  0.1727
 1264ERGO   ROH16831  15.804   8.404   8.142 -0.0047 -0.1285  0.1089
 1264ERGO    R116832  16.084   8.365   8.146  0.0104 -0.0030  0.1706
 1264ERGO    R216833  16.246   8.424   7.930  0.0084 -0.0543  0.1685
 1264ERGO    R316834  16.381   8.574   8.113 -0.0681  0.1045  0.0987
 1264ERGO    R416835  16.585   8.490   7.919  0.0787 -0.3450  0.3999
 1264ERGO    R516836  16.593   8.463   8.136 -0.1677 -0.0462  0.4658
 1264ERGO    C116837  16.909   8.670   8.084  0.0478 -0.3652  0.4693
 1264ERGO    C216838  17.196   8.684   7.905  0.0184 -0.1123  0.2130
 1265ERGO   ROH16839  11.899   5.998   6.203  0.0827 -0.1363 -0.0494
 1265ERGO    R116840  11.798   5.851   6.422  0.0050  0.0479  0.0407
 1265ERGO    R216841  11.916   5.619   6.514 -0.2149 -0.0595  0.0694
 1265ERGO    R316842  11.917   5.751   6.751  0.0284  0.0243  0.0241
 1265ERGO    R416843  11.908   5.467   6.824 -0.0415  0.0594  0.1333
 1265ERGO    R516844  11.771   5.623   6.891  0.0809  0.1415  0.1853
 1265ERGO    C116845  11.903   5.503   7.228  0.2879  0.2073  0.1279
 1265ERGO    C216846  11.867   5.358   7.555  0.0712 -0.1692  0.2899
 1266ERGO   ROH16847  12.382   8.005   6.427 -0.0734  0.0759 -0.0656
 1266ERGO    R116848  12.435   8.122   6.679 -0.1176  0.1030 -0.0685
 1266ERGO    R216849  12.234   8.210   6.848 -0.1540 -0.0026 -0.0528
 1266ERGO    R316850  12.358   8.047   7.027 -0.0553  0.0596 -0.0647
 1266ERGO    R416851  12.121   8.145   7.168 -0.0635 -0.0301 -0.0262
 1266ERGO    R516852  12.327   8.156   7.238 -0.0573  0.0575 -0.0665
 1266ERGO    C116853  12.172   7.956   7.523  0.0820  0.0123 -0.0219
 1266ERGO    C216854  11.993   7.871   7.820 -0.3614 -0.0574  0.0516
 1267ERGO   ROH16855   1.186  16.533   6.868  0.2414  0.0583 -0.1358
 1267ERGO    R116856   1.229  16.697   7.094  0.0016  0.1519 -0.1546
 1267ERGO    R216857   1.023  16.823   7.229 -0.1874 -0.1225 -0.1735
 1267ERGO    R316858   1.130  16.697   7.445 -0.0092  0.0514 -0.1586
 1267ERGO    R416859   0.975  16.920   7.557 -0.2469 -0.1044 -0.1876
 1267ERGO    R516860   1.185  16.875   7.595 -0.1909  0.1478 -0.2074
 1267ERGO    C116861   1.048  16.858   7.951 -0.1142  0.0693 -0.1818
 1267ERGO    C216862   0.945  16.709   8.248  0.0141  0.0692  0.1675
 1268ERGO   ROH16863   1.675  14.492   6.755 -0.0832  0.2882  0.2112
 1268ERGO    R116864   1.797  14.333   6.954 -0.0503  0.1934  0.1154
 1268ERGO    R216865   1.970  14.438   7.142 -0.0252  0.1048  0.1385
 1268ERGO    R316866   1.799  14.320   7.318  0.0056  0.0151  0.1100
 1268ERGO    R416867   2.031  14.399   7.480 -0.1408  0.3110  0.1852
 1268ERGO    R516868   1.942  14.200   7.468  0.0560  0.2168  0.2290
 1268ERGO    C116869   1.905  14.266   7.842 -0.1793  0.3471  0.1857
 1268ERGO    C216870   1.854  14.288   8.224  0.1544 -0.0624 -0.1610
 1269ERGO   ROH16871   5.386  15.717   6.912 -0.0642 -0.0264 -0.0241
 1269ERGO    R116872   5.475  15.668   7.177  0.1111  0.1155 -0.0540
 1269ERGO    R216873   5.490  15.866   7.368 -0.0149  0.1702 -0.0938
 1269ERGO    R316874   5.336  15.694   7.512  0.2318  0.0259  0.0023
 1269ERGO    R416875   5.498  15.835   7.712 -0.0444  0.4407 -0.0669
 1269ERGO    R516876   5.480  15.619   7.688  0.3134  0.3918  0.0946
 1269ERGO    C116877   5.359  15.656   8.048  0.1699  0.4628  0.0390
 1269ERGO    C216878   5.438  15.696   8.400 -0.0728 -0.0454  0.1246
 1270ERGO   ROH16879   8.844  15.185   6.483  0.0305 -0.0653 -0.0691
 1270ERGO    R116880   8.808  15.299   6.740 -0.0095 -0.1367 -0.0420
 1270ERGO    R216881   8.672  15.170   6.943 -0.0343 -0.1983 -0.0943
 1270ERGO    R316882   8.901  15.217   7.082 -0.0540 -0.2284 -0.0525
 1270ERGO    R416883   8.697  15.174   7.287 -0.1094 -0.1211 -0.0898
 1270ERGO    R516884   8.831  15.345   7.271 -0.0596 -0.1640 -0.1003
 1270ERGO    C116885   8.926  15.220   7.619 -0.1719 -0.1043 -0.0480
 1270ERGO    C216886   9.046  15.379   7.951  0.1999  0.1404 -0.0394
 1271ERGO   ROH16887   6.700   4.679  10.275  0.1006 -0.0861  0.0732
 1271ERGO    R116888   6.842   4.609  10.040  0.1600  0.0850  0.0568
 1271ERGO    R216889   6.725   4.474   9.828  0.2861 -0.0153  0.0496
 1271ERGO    R316890   6.818   4.684   9.685  0.0610  0.0985  0.0660
 1271ERGO    R416891   6.697   4.510   9.485  0.1374  0.0408  0.0669
 1271ERGO    R516892   6.898   4.588   9.481  0.0723  0.2118  0.0155
 1271ERGO    C116893   6.769   4.728   9.152 -0.1604  0.1803  0.0925
 1271ERGO    C216894   6.774   4.706   8.883  0.1337 -0.0464 -0.1102
 1272ERGO   ROH16895   0.667   0.078   7.251  0.3702 -0.1482 -0.1106
 1272ERGO    R116896   0.872   0.162   7.427  0.1660  0.2209 -0.0352
 1272ERGO    R216897   0.822   0.316   7.651 -0.2171  0.0073  0.0452
 1272ERGO    R316898   0.953   0.115   7.779  0.2071  0.2166 -0.0473
 1272ERGO    R416899   0.928   0.327   7.980 -0.6064 -0.0690  0.1766
 1272ERGO    R516900   1.112   0.227   7.919 -0.2501  0.5078  0.2563
 1272ERGO    C116901   1.112   0.145   8.291 -0.4348  0.0830  0.1664
 1272ERGO    C216902   1.169   0.103   8.662  0.1636 -0.1236  0.0604
 1273ERGO   ROH16903  13.154  14.212   6.894  0.0025 -0.1402 -0.0174
 1273ERGO    R116904  13.004  14.379   7.067  0.0132 -0.1687  0.0206
 1273ERGO    R216905  12.750  14.315   7.153  0.0052 -0.1700  0.0046
 1273ERGO    R316906  12.859  14.354   7.399  0.0092 -0.2368  0.0129
 1273ERGO    R416907  12.576  14.294   7.451 -0.0550  0.0493 -0.0139
 1273ERGO    R516908  12.687  14.467   7.522  0.1048 -0.0492 -0.0278
 1273ERGO    C116909  12.577  14.318   7.856 -0.0863  0.1142 -0.0169
 1273ERGO    C216910  12.296  14.281   7.984  0.1845  0.3311  0.1468
 1274ERGO   ROH16911   2.503   9.438  10.090  0.2627  0.0391 -0.1682
 1274ERGO    R116912   2.418   9.488   9.825  0.2071 -0.0355 -0.1643
 1274ERGO    R216913   2.591   9.566   9.625  0.1429  0.0378 -0.1900
 1274ERGO    R316914   2.487   9.352   9.494  0.2454 -0.0327 -0.1575
 1274ERGO    R416915   2.626   9.508   9.286  0.0500  0.0774 -0.2071
 1274ERGO    R516916   2.418   9.441   9.282  0.0957 -0.0736 -0.1266
 1274ERGO    C116917   2.549   9.272   8.966  0.0921  0.0343 -0.1866
 1274ERGO    C216918   2.695   9.287   8.726 -0.1633 -0.1880 -0.0397
 1275ERGO   ROH16919   9.595   6.775   6.392  0.1184  0.0613 -0.0612
 1275ERGO    R116920   9.751   6.853   6.615  0.0487  0.0740 -0.0160
 1275ERGO    R216921   9.679   7.062   6.782  0.0147  0.1093 -0.0715
 1275ERGO    R316922   9.707   6.873   6.976 -0.0801  0.1328 -0.0349
 1275ERGO    R416923   9.761   7.126   7.111  0.1175  0.1229 -0.0997
 1275ERGO    R516924   9.890   6.950   7.109 -0.0038  0.0355 -0.0841
 1275ERGO    C116925   9.835   6.987   7.485  0.0884  0.1527 -0.0816
 1275ERGO    C216926  10.097   7.075   7.772 -0.2348  0.0342  0.0390
 1276ERGO   ROH16927  12.900  15.521   6.579 -0.0782 -0.0487 -0.0801
 1276ERGO    R116928  12.994  15.523   6.846 -0.0691 -0.0515 -0.0840
 1276ERGO    R216929  12.870  15.668   7.046 -0.0025  0.0250 -0.1021
 1276ERGO    R316930  12.865  15.427   7.173 -0.0969  0.0451 -0.0651
 1276ERGO    R416931  12.801  15.623   7.382  0.0844  0.1195 -0.0705
 1276ERGO    R516932  12.958  15.472   7.389  0.0037  0.0283 -0.1018
 1276ERGO    C116933  12.756  15.371   7.696  0.0463  0.1935 -0.0175
 1276ERGO    C216934  12.612  15.166   8.012  0.0006  0.1602 -0.3191
 1277ERGO   ROH16935   4.560   8.142  10.147  0.0925 -0.0745  0.0315
 1277ERGO    R116936   4.688   8.227   9.909  0.1040 -0.0958  0.0314
 1277ERGO    R216937   4.784   8.050   9.720 -0.0305 -0.1081 -0.0190
 1277ERGO    R316938   4.628   8.195   9.551  0.0309  0.0201  0.0309
 1277ERGO    R416939   4.802   8.038   9.375 -0.2455 -0.2454 -0.0284
 1277ERGO    R516940   4.774   8.254   9.371 -0.0000 -0.2059 -0.0777
 1277ERGO    C116941   4.666   8.168   9.016 -0.3132 -0.2051  0.0130
 1277ERGO    C216942   4.636   8.124   8.700 -0.0086  0.0435 -0.2085
 1278ERGO   ROH16943  11.840   8.196   6.679  0.0186  0.1252 -0.0371
 1278ERGO    R116944  11.672   8.159   6.904  0.0387  0.2196 -0.0057
 1278ERGO    R216945  11.680   7.930   7.059 -0.0997  0.1908 -0.0416
 1278ERGO    R316946  11.716   8.108   7.261  0.0786  0.1339 -0.0218
 1278ERGO    R416947  11.580   7.880   7.386 -0.2051  0.2706 -0.0613
 1278ERGO    R516948  11.517   8.089   7.394  0.0326  0.3479 -0.0521
 1278ERGO    C116949  11.556   8.018   7.766 -0.0992  0.2636 -0.0541
 1278ERGO    C216950  11.600   7.981   8.197 -0.0289 -0.0883  0.2282
 1279ERGO   ROH16951  10.315  10.284   6.363  0.0895 -0.0644 -0.0331
 1279ERGO    R116952  10.201  10.377   6.605  0.0229 -0.0759 -0.0595
 1279ERGO    R216953  10.098  10.207   6.797  0.1334 -0.0960 -0.0160
 1279ERGO    R316954  10.269  10.340   6.961  0.0436  0.0627 -0.0486
 1279ERGO    R416955  10.118  10.163   7.139  0.2840 -0.1229 -0.0274
 1279ERGO    R516956  10.143  10.378   7.161  0.0626 -0.0987 -0.0052
 1279ERGO    C116957  10.290  10.261   7.492  0.2875  0.0106 -0.0646
 1279ERGO    C216958  10.548  10.220   7.821  0.0817 -0.2855  0.1356
 1280ERGO   ROH16959  14.702   6.698   8.470  0.0305 -0.1717 -0.0078
 1280ERGO    R116960  14.747   6.824   8.719  0.1183 -0.1378 -0.0397
 1280ERGO    R216961  14.541   6.891   8.892  0.1639  0.0397 -0.0496
 1280ERGO    R316962  14.686   6.746   9.069  0.0744 -0.0122 -0.0190
 1280ERGO    R416963  14.545   6.943   9.233 -0.0093 -0.0628 -0.0313
 1280ERGO    R516964  14.759   6.906   9.232 -0.0086 -0.0608  0.0663
 1280ERGO    C116965  14.683   6.837   9.599 -0.1941 -0.1712  0.0079
 1280ERGO    C216966  14.697   6.836   9.858 -0.0246 -0.1614  0.0076
 1281ERGO   ROH16967   3.905   1.038   6.873 -0.0621 -0.0710  0.0882
 1281ERGO    R116968   4.011   1.119   7.123 -0.0650  0.0696  0.0453
 1281ERGO    R216969   3.850   1.181   7.339 -0.0632 -0.1089  0.1015
 1281ERGO    R316970   4.003   0.996   7.466  0.2068  0.0772  0.0560
 1281ERGO    R416971   3.973   1.212   7.661 -0.1345 -0.0222  0.1201
 1281ERGO    R516972   4.160   1.125   7.593  0.0066  0.2767  0.1071
 1281ERGO    C116973   4.187   1.056   7.967  0.0775  0.2030  0.0881
 1281ERGO    C216974   4.185   1.025   8.242 -0.1537 -0.2054 -0.1535
 1282ERGO   ROH16975  15.135   9.570   9.963 -0.0677 -0.1014 -0.1544
 1282ERGO    R116976  15.202   9.448   9.717 -0.0620 -0.1154 -0.1466
 1282ERGO    R216977  15.026   9.434   9.505 -0.0283 -0.0480 -0.1835
 1282ERGO    R316978  15.230   9.551   9.369  0.0384 -0.1102 -0.1362
 1282ERGO    R416979  15.060   9.433   9.161 -0.0602  0.1286 -0.1877
 1282ERGO    R516980  15.274   9.401   9.187 -0.0817 -0.0338 -0.2269
 1282ERGO    C116981  15.271   9.542   8.833 -0.0162  0.1730 -0.1457
 1282ERGO    C216982  15.200   9.469   8.415 -0.0600  0.0187 -0.0401
 1283ERGO   ROH16983   9.651  14.031   6.439  0.2400  0.0620  0.0982
 1283ERGO    R116984   9.549  14.101   6.694  0.0721  0.0359  0.0396
 1283ERGO    R216985   9.314  13.996   6.794  0.0645 -0.0597 -0.0805
 1283ERGO    R316986   9.473  13.927   7.004 -0.0186  0.0249  0.0119
 1283ERGO    R416987   9.200  13.886   7.101 -0.0594  0.0037 -0.1029
 1283ERGO    R516988   9.354  14.005   7.197 -0.1229  0.0579 -0.0631
 1283ERGO    C116989   9.282  13.756   7.476 -0.2095  0.1201 -0.0291
 1283ERGO    C216990   9.053  13.754   7.758 -0.0550 -0.0544 -0.0749
 1284ERGO   ROH16991   6.411   6.524   6.708 -0.0866 -0.2042  0.0235
 1284ERGO    R116992   6.430   6.661   6.955 -0.0209 -0.1072 -0.0346
 1284ERGO    R216993   6.234   6.646   7.149  0.0400 -0.0482  0.0321
 1284ERGO    R316994   6.441   6.571   7.308  0.0951  0.0294 -0.0022
 1284ERGO    R416995   6.232   6.656   7.495  0.1655  0.1365  0.0291
 1284ERGO    R516996   6.438   6.727   7.489  0.1664  0.1269 -0.0839
 1284ERGO    C116997   6.426   6.590   7.845  0.2903  0.3169 -0.0049
 1284ERGO    C216998   6.397   6.394   8.160  0.0684 -0.1468 -0.1647
 1285ERGO   ROH16999   1.855   4.864   6.556 -0.0235 -0.0144  0.2338
 1285ERGO    R117000   1.843   5.031   6.784  0.0658  0.0479  0.1926
 1285ERGO    R217001   1.859   4.932   7.041 -0.0328  0.0978  0.2133
 1285ERGO    R317002   2.061   5.113   7.064  0.0897 -0.0347  0.2005
 1285ERGO    R417003   1.928   5.115   7.326  0.0331  0.1225  0.1822
 1285ERGO    R517004   1.968   5.288   7.199  0.1775  0.0662  0.1390
 1285ERGO    C117005   2.158   5.392   7.513  0.1865  0.0124  0.1520
 1285ERGO    C217006   2.128   5.455   7.821 -0.0852  0.0843 -0.1159
 1286ERGO   ROH17007   6.805   3.499   6.479  0.1008  0.0425 -0.1278
 1286ERGO    R117008   7.010   3.484   6.674  0.0611  0.2300 -0.0690
 1286ERGO    R217009   7.071   3.695   6.842 -0.2012  0.2788 -0.0258
 1286ERGO    R317010   7.032   3.509   7.036 -0.0731  0.2155 -0.0602
 1286ERGO    R417011   7.125   3.747   7.179 -0.3154  0.2740 -0.0066
 1286ERGO    R517012   7.210   3.547   7.192 -0.1395  0.3499 -0.0194
 1286ERGO    C117013   7.120   3.604   7.558 -0.2616  0.2118 -0.0275
 1286ERGO    C217014   7.099   3.618   7.836 -0.1682 -0.0847  0.2033
 1287ERGO   ROH17015   5.030   6.072   6.656  0.3022 -0.0183 -0.1439
 1287ERGO    R117016   5.075   5.875   6.855  0.2165  0.0359 -0.0703
 1287ERGO    R217017   5.243   5.917   7.070  0.0908  0.1089  0.0114
 1287ERGO    R317018   5.024   5.844   7.214  0.0209  0.1156 -0.0892
 1287ERGO    R417019   5.251   5.737   7.365 -0.0465  0.1038  0.0133
 1287ERGO    R517020   5.077   5.626   7.296 -0.0223  0.1103 -0.0691
 1287ERGO    C117021   5.050   5.564   7.671 -0.1921  0.1073 -0.0800
 1287ERGO    C217022   4.955   5.372   7.924 -0.1814  0.0577  0.2777
 1288ERGO   ROH17023   6.131  10.560   6.596  0.2027 -0.1172 -0.1080
 1288ERGO    R117024   6.073  10.740   6.807  0.2256 -0.1128 -0.1109
 1288ERGO    R217025   5.884  10.686   7.002  0.1855 -0.0618 -0.1630
 1288ERGO    R317026   6.092  10.737   7.170  0.1592 -0.1269 -0.1019
 1288ERGO    R417027   5.861  10.703   7.346  0.1060 -0.2800 -0.1518
 1288ERGO    R517028   5.997  10.873   7.342  0.0896 -0.2377 -0.0314
 1288ERGO    C117029   6.042  10.761   7.704  0.0351 -0.4680 -0.0879
 1288ERGO    C217030   6.280  10.627   8.002  0.2964  0.1864 -0.0343
 1289ERGO   ROH17031   4.140   2.264  10.887  0.0984  0.0530 -0.0045
 1289ERGO    R117032   4.070   2.197  10.621  0.0775  0.1173 -0.0156
 1289ERGO    R217033   4.031   2.387  10.425  0.0621  0.1658  0.0324
 1289ERGO    R317034   4.215   2.240  10.290  0.0523  0.1976 -0.0157
 1289ERGO    R417035   4.046   2.356  10.081  0.0779  0.2928  0.0213
 1289ERGO    R517036   4.094   2.145  10.107  0.0537  0.2797 -0.0576
 1289ERGO    C117037   4.228   2.201   9.754  0.0779  0.3966 -0.0304
 1289ERGO    C217038   4.138   2.135   9.360  0.0320  0.0831 -0.2824
 1290ERGO   ROH17039   2.285  16.137   7.119  0.1781 -0.1496 -0.0918
 1290ERGO    R117040   2.337  15.910   7.279 -0.0458 -0.1241  0.0232
 1290ERGO    R217041   2.409  15.929   7.545 -0.2309 -0.0724  0.0737
 1290ERGO    R317042   2.199  15.761   7.581 -0.3392  0.0406 -0.0277
 1290ERGO    R417043   2.308  15.802   7.850 -0.3675 -0.1278  0.0057
 1290ERGO    R517044   2.271  15.610   7.752 -0.4649 -0.0677 -0.0708
 1290ERGO    C117045   2.051  15.570   8.061 -0.5487 -0.0538 -0.1290
 1290ERGO    C217046   1.829  15.383   8.272  0.0726  0.3643 -0.1485
 1291ERGO   ROH17047  14.352   8.115   6.292  0.0886 -0.1001 -0.0384
 1291ERGO    R117048  14.427   8.207   6.549 -0.0108 -0.1175 -0.0034
 1291ERGO    R217049  14.382   8.466   6.633  0.0470 -0.0972 -0.0422
 1291ERGO    R317050  14.258   8.342   6.842 -0.1119 -0.0363 -0.0979
 1291ERGO    R417051  14.326   8.610   6.943  0.0377 -0.0916 -0.0456
 1291ERGO    R517052  14.377   8.419   7.035 -0.1252 -0.1391 -0.0472
 1291ERGO    C117053  14.177   8.577   7.319 -0.1168 -0.0313 -0.1000
 1291ERGO    C217054  13.929   8.810   7.574  0.3867  0.1419 -0.0151
 1292ERGO   ROH17055   5.742   2.848   6.788  0.0790  0.0678 -0.1223
 1292ERGO    R117056   5.673   2.678   7.003  0.0382  0.0552 -0.1461
 1292ERGO    R217057   5.861   2.571   7.175 -0.0013  0.0945 -0.0823
 1292ERGO    R317058   5.704   2.684   7.366 -0.0898  0.0613 -0.1340
 1292ERGO    R417059   5.830   2.455   7.498  0.0700  0.1975 -0.0374
 1292ERGO    R517060   5.616   2.498   7.488  0.0363  0.0437 -0.0646
 1292ERGO    C117061   5.664   2.493   7.866  0.0283  0.2262 -0.0597
 1292ERGO    C217062   5.654   2.346   8.183  0.1652 -0.1185 -0.0153
 1293ERGO   ROH17063  13.286  10.079   6.450  0.1714 -0.0761 -0.0773
 1293ERGO    R117064  13.163   9.927   6.655 -0.0667  0.0652 -0.1116
 1293ERGO    R217065  13.280   9.889   6.902 -0.1552 -0.1153 -0.0980
 1293ERGO    R317066  13.043   9.987   6.993 -0.0435  0.1923 -0.1248
 1293ERGO    R417067  13.202   9.939   7.235 -0.0845  0.0982 -0.1118
 1293ERGO    R517068  13.002   9.864   7.194 -0.1771  0.3114 -0.0763
 1293ERGO    C117069  12.934  10.061   7.514  0.0616  0.5112 -0.1450
 1293ERGO    C217070  12.999  10.170   7.850 -0.1408  0.0390  0.1656
 1294ERGO   ROH17071  10.440  15.791   6.532  0.0741  0.2490  0.0540
 1294ERGO    R117072  10.538  15.837   6.794  0.0589  0.3319  0.0466
 1294ERGO    R217073  10.436  16.034   6.959 -0.2139  0.1406  0.1208
 1294ERGO    R317074  10.404  15.827   7.132  0.1353  0.0374  0.0697
 1294ERGO    R417075  10.415  16.064   7.303 -0.0389 -0.0148  0.1459
 1294ERGO    R517076  10.538  15.885   7.321  0.1825  0.1223  0.0069
 1294ERGO    C117077  10.373  15.887   7.665  0.3909 -0.2021  0.1126
 1294ERGO    C217078  10.201  15.774   7.959 -0.1478  0.0444  0.2111
 1295ERGO   ROH17079   6.336   0.044   6.729  0.0689  0.2093 -0.0316
 1295ERGO    R117080   6.126   0.041   6.919  0.0622  0.1685 -0.0389
 1295ERGO    R217081   6.132  -0.119   7.145  0.0533  0.1173 -0.0724
 1295ERGO    R317082   6.088   0.117   7.273  0.0519  0.0898 -0.0232
 1295ERGO    R417083   6.020  -0.089   7.470 -0.1367  0.0485 -0.1309
 1295ERGO    R517084   5.893   0.077   7.406 -0.0431  0.1102 -0.1554
 1295ERGO    C117085   5.913   0.149   7.780 -0.2487 -0.0174 -0.1189
 1295ERGO    C217086   6.052   0.253   8.107  0.0313  0.0157  0.1050
 1296ERGO   ROH17087  14.792  15.201   6.764 -0.1301 -0.1454 -0.0352
 1296ERGO    R117088  14.835  15.040   6.992  0.0967 -0.1560 -0.0836
 1296ERGO    R217089  15.016  15.107   7.190 -0.0112  0.0499 -0.0550
 1296ERGO    R317090  14.800  15.077   7.353  0.0221 -0.3208 -0.0726
 1296ERGO    R417091  15.030  15.082   7.535  0.0125  0.0344 -0.0571
 1296ERGO    R517092  14.875  14.928   7.525  0.2581 -0.2216 -0.0847
 1296ERGO    C117093  14.835  15.037   7.888  0.0576 -0.3226 -0.0749
 1296ERGO    C217094  14.841  15.205   8.242 -0.2050 -0.3123  0.1712
 1297ERGO   ROH17095   8.214   0.994   6.386  0.2029 -0.2888  0.1384
 1297ERGO    R117096   8.268   1.206   6.565  0.1521 -0.2110  0.0640
 1297ERGO    R217097   8.120   1.249   6.795 -0.0035 -0.0298 -0.0581
 1297ERGO    R317098   8.364   1.240   6.914 -0.0901 -0.0644  0.1168
 1297ERGO    R417099   8.205   1.418   7.083 -0.1271  0.0779 -0.0853
 1297ERGO    R517100   8.399   1.462   6.995 -0.0536 -0.0443  0.0299
 1297ERGO    C117101   8.483   1.509   7.364 -0.2804  0.1080  0.0633
 1297ERGO    C217102   8.376   1.509   7.550  0.2081  0.0861  0.0834
 1298ERGO   ROH17103   6.018   0.970   6.740  0.0483  0.0214 -0.0320
 1298ERGO    R117104   5.942   1.109   6.975 -0.1233 -0.1198 -0.0004
 1298ERGO    R217105   5.934   0.988   7.223  0.0891 -0.1718 -0.0088
 1298ERGO    R317106   6.096   1.194   7.293 -0.1965  0.0591 -0.0144
 1298ERGO    R417107   5.970   1.110   7.544  0.1327 -0.2858  0.0292
 1298ERGO    R517108   5.973   1.312   7.461 -0.2608 -0.2347  0.1417
 1298ERGO    C117109   6.143   1.375   7.797 -0.1099 -0.1355  0.0462
 1298ERGO    C217110   6.241   1.308   8.091  0.1613  0.0466  0.2546
 1299ERGO   ROH17111   8.182  13.343   6.723  0.0895  0.0288  0.0576
 1299ERGO    R117112   7.948  13.390   6.875  0.0542  0.0137  0.0091
 1299ERGO    R217113   7.929  13.325   7.143 -0.0303 -0.0744 -0.0152
 1299ERGO    R317114   7.858  13.586   7.169  0.0058 -0.0713  0.0505
 1299ERGO    R417115   7.794  13.467   7.428 -0.1516 -0.1565 -0.0313
 1299ERGO    R517116   7.659  13.582   7.302 -0.0628 -0.0831 -0.0552
 1299ERGO    C117117   7.650  13.795   7.618 -0.1884 -0.2012  0.0210
 1299ERGO    C217118   7.559  13.922   7.926 -0.0576  0.0193  0.4543
 1300ERGO   ROH17119   3.343   9.395   6.339 -0.0239 -0.0510  0.0385
 1300ERGO    R117120   3.416   9.208   6.538  0.0940 -0.0472  0.0000
 1300ERGO    R217121   3.596   9.266   6.739 -0.0246  0.0620  0.0769
 1300ERGO    R317122   3.393   9.184   6.901  0.0003 -0.1863 -0.0144
 1300ERGO    R417123   3.623   9.217   7.081 -0.1097  0.0645  0.0839
 1300ERGO    R517124   3.499   9.039   7.059  0.1030 -0.0791  0.0165
 1300ERGO    C117125   3.448   9.111   7.430 -0.1359 -0.1673  0.0024
 1300ERGO    C217126   3.480   9.150   7.729 -0.0477 -0.1218 -0.1211
 1301ERGO   ROH17127   9.830   4.651  10.065  0.1640  0.2554 -0.0494
 1301ERGO    R117128   9.682   4.565   9.840  0.1291  0.1416  0.0163
 1301ERGO    R217129   9.586   4.741   9.649  0.0101  0.0560 -0.0033
 1301ERGO    R317130   9.721   4.577   9.478  0.0192  0.0590  0.0010
 1301ERGO    R417131   9.576   4.762   9.304 -0.1249 -0.0582 -0.0071
 1301ERGO    R517132   9.571   4.545   9.295 -0.0345 -0.0646  0.0652
 1301ERGO    C117133   9.696   4.622   8.943 -0.1951 -0.1218 -0.0054
 1301ERGO    C217134   9.787   4.693   8.624 -0.0928 -0.3503 -0.1533
 1302ERGO   ROH17135   2.526   4.362  10.239 -0.2885 -0.0446  0.0052
 1302ERGO    R117136   2.662   4.336   9.992 -0.2908  0.1809 -0.0206
 1302ERGO    R217137   2.675   4.098   9.853  0.1440  0.1792  0.0198
 1302ERGO    R317138   2.574   4.247   9.650 -0.1966 -0.0480  0.0111
 1302ERGO    R417139   2.714   4.026   9.517  0.3823  0.2779  0.0242
 1302ERGO    R517140   2.743   4.239   9.481 -0.1310  0.3709  0.0396
 1302ERGO    C117141   2.643   4.126   9.131  0.2013  0.1220  0.0185
 1302ERGO    C217142   2.631   4.050   8.847 -0.1390 -0.0979 -0.1347
 1303ERGO   ROH17143  10.627  13.085   6.749 -0.3106 -0.1606  0.0727
 1303ERGO    R117144  10.639  12.964   7.005 -0.2702 -0.0934  0.1031
 1303ERGO    R217145  10.828  13.034   7.194 -0.1903 -0.0985  0.0272
 1303ERGO    R317146  10.610  13.075   7.350 -0.1316  0.0126  0.0812
 1303ERGO    R417147  10.831  13.041   7.539 -0.0833  0.0373  0.0246
 1303ERGO    R517148  10.643  12.930   7.538 -0.1077  0.0802  0.1274
 1303ERGO    C117149  10.627  13.083   7.887  0.0340  0.2207  0.0738
 1303ERGO    C217150  10.408  13.172   8.189  0.1741  0.3317 -0.0918
 1304ERGO   ROH17151   2.982   0.461   6.937 -0.2539  0.0327 -0.1275
 1304ERGO    R117152   3.012   0.617   7.171 -0.2094 -0.0197 -0.0974
 1304ERGO    R217153   2.860   0.575   7.398 -0.1279 -0.1074 -0.0564
 1304ERGO    R317154   3.103   0.558   7.518 -0.0846 -0.0896 -0.1419
 1304ERGO    R417155   2.912   0.575   7.740  0.0090  0.0854 -0.0756
 1304ERGO    R517156   3.086   0.702   7.709  0.0247  0.0276 -0.2206
 1304ERGO    C117157   3.171   0.558   8.051  0.1294  0.2145 -0.1671
 1304ERGO    C217158   3.092   0.613   8.347  0.0764 -0.1950 -0.1709
 1305ERGO   ROH17159   9.484  11.302   6.661 -0.0554 -0.1199 -0.0449
 1305ERGO    R117160   9.384  11.190   6.901 -0.0434 -0.1243 -0.0418
 1305ERGO    R217161   9.373  10.917   6.945 -0.0821 -0.1269 -0.0634
 1305ERGO    R317162   9.514  10.980   7.168 -0.0435 -0.1680 -0.0764
 1305ERGO    R417163   9.308  10.795   7.262 -0.0048 -0.2092 -0.0790
 1305ERGO    R517164   9.350  10.993   7.341 -0.0082 -0.2258 -0.0397
 1305ERGO    C117165   9.403  10.784   7.656  0.0763 -0.2956 -0.1003
 1305ERGO    C217166   9.537  10.688   7.970 -0.1264 -0.1684 -0.0094
 1306ERGO   ROH17167  12.076   2.495  10.204 -0.1263 -0.1269 -0.1095
 1306ERGO    R117168  12.194   2.558   9.955 -0.0712  0.0069 -0.0523
 1306ERGO    R217169  12.237   2.367   9.758  0.1013  0.0813 -0.0949
 1306ERGO    R317170  12.096   2.541   9.605  0.0579  0.0491 -0.0901
 1306ERGO    R417171  12.227   2.364   9.413  0.1060  0.0984 -0.0944
 1306ERGO    R517172  12.236   2.581   9.415  0.0467  0.0970 -0.0848
 1306ERGO    C117173  12.088   2.525   9.068  0.0679  0.0781 -0.0895
 1306ERGO    C217174  12.041   2.673   8.705 -0.1411 -0.3296 -0.1636
 1307ERGO   ROH17175  13.772   8.858  10.072 -0.0322  0.0896  0.1766
 1307ERGO    R117176  13.633   8.876   9.826 -0.0376  0.0237  0.1740
 1307ERGO    R217177  13.657   9.093   9.657 -0.1663  0.0544  0.1913
 1307ERGO    R317178  13.719   8.903   9.474 -0.0430  0.1063  0.1791
 1307ERGO    R417179  13.605   9.122   9.317 -0.1887  0.0392  0.1938
 1307ERGO    R517180  13.541   8.913   9.314 -0.0513 -0.0018  0.1821
 1307ERGO    C117181  13.633   8.959   8.947 -0.0860  0.0789  0.1838
 1307ERGO    C217182  13.689   8.955   8.565  0.0611  0.0039 -0.0687
 1308ERGO   ROH17183   9.285   9.349   6.749 -0.1114  0.0146 -0.1032
 1308ERGO    R117184   9.343   9.406   7.020 -0.0756  0.0798 -0.1243
 1308ERGO    R217185   9.162   9.357   7.223  0.0003  0.0067 -0.0736
 1308ERGO    R317186   9.370   9.217   7.330  0.1038  0.1326 -0.1067
 1308ERGO    R417187   9.212   9.306   7.562 -0.0994 -0.2416 -0.0944
 1308ERGO    R517188   9.426   9.338   7.530 -0.1160  0.0177  0.0281
 1308ERGO    C117189   9.435   9.145   7.859 -0.0604 -0.2679 -0.1375
 1308ERGO    C217190   9.374   9.115   8.186 -0.2305  0.0410  0.0789
 1309ERGO   ROH17191   3.219  15.908   7.091  0.1008  0.1227 -0.0005
 1309ERGO    R117192   3.278  15.819   7.353  0.0961  0.0760 -0.0150
 1309ERGO    R217193   3.443  15.959   7.525  0.1195  0.0299  0.0033
 1309ERGO    R317194   3.229  15.943   7.691  0.1204  0.0327  0.0038
 1309ERGO    R417195   3.450  16.024   7.864  0.1522 -0.1216  0.0319
 1309ERGO    R517196   3.317  15.854   7.895  0.0946 -0.0872 -0.0379
 1309ERGO    C117197   3.253  16.046   8.218  0.1720 -0.2072  0.0491
 1309ERGO    C217198   3.324  16.070   8.608  0.2053  0.1910 -0.0688
 1310ERGO   ROH17199   4.254  17.214   6.846  0.2317 -0.1758  0.0243
 1310ERGO    R117200   4.438  17.143   7.050  0.1854 -0.1465  0.0761
 1310ERGO    R217201   4.432  17.258   7.302  0.1643 -0.0677  0.0403
 1310ERGO    R317202   4.419  16.999   7.384  0.1036 -0.0410  0.1170
 1310ERGO    R417203   4.506  17.147   7.620  0.1903 -0.0043  0.0571
 1310ERGO    R517204   4.604  16.974   7.533  0.1222 -0.0563  0.0889
 1310ERGO    C117205   4.537  16.839   7.883  0.1485  0.0575  0.1389
 1310ERGO    C217206   4.535  16.889   8.208 -0.0011 -0.1256  0.2560
 1311ERGO   ROH17207   7.343   0.724   6.815 -0.0642 -0.3836 -0.0524
 1311ERGO    R117208   7.407   0.842   7.064  0.0785 -0.2358 -0.1585
 1311ERGO    R217209   7.315   0.741   7.305  0.1300 -0.0294 -0.0586
 1311ERGO    R317210   7.579   0.740   7.368  0.1534 -0.0897 -0.1488
 1311ERGO    R417211   7.441   0.756   7.626  0.2286 -0.0971 -0.0926
 1311ERGO    R517212   7.596   0.891   7.554  0.2365 -0.1122 -0.1299
 1311ERGO    C117213   7.762   0.764   7.873  0.3079 -0.1932 -0.1972
 1311ERGO    C217214   7.766   0.674   8.220 -0.1305 -0.1284 -0.0277
 1312ERGO   ROH17215  10.584   1.798   6.631 -0.0062 -0.0544 -0.1671
 1312ERGO    R117216  10.443   1.846   6.871  0.0463 -0.1329 -0.1189
 1312ERGO    R217217  10.533   1.758   7.118  0.1914 -0.0605 -0.1423
 1312ERGO    R317218  10.505   2.020   7.184  0.0449 -0.0738 -0.1520
 1312ERGO    R417219  10.530   1.881   7.441  0.3399 -0.0285 -0.1535
 1312ERGO    R517220  10.371   2.018   7.382  0.1937 -0.1535 -0.0513
 1312ERGO    C117221  10.502   2.199   7.691  0.2889 -0.0224 -0.1691
 1312ERGO    C217222  10.656   2.448   7.871 -0.1168 -0.1304 -0.0997
 1313ERGO   ROH17223  11.967  16.126   6.994  0.1800 -0.0608  0.0007
 1313ERGO    R117224  11.983  16.032   7.260 -0.0345 -0.2033 -0.0352
 1313ERGO    R217225  12.084  16.185   7.467  0.2397 -0.4780  0.0366
 1313ERGO    R317226  11.845  16.127   7.584  0.1060 -0.0669 -0.0128
 1313ERGO    R417227  12.023  16.195   7.807  0.2549 -0.5672  0.0425
 1313ERGO    R517228  11.905  16.013   7.786 -0.1247 -0.3236 -0.0798
 1313ERGO    C117229  11.764  16.145   8.115  0.1382 -0.2331 -0.0004
 1313ERGO    C217230  11.669  16.095   8.522 -0.2749 -0.1207 -0.1008
 1314ERGO   ROH17231   0.145  15.842   7.386 -0.1421  0.3037  0.0526
 1314ERGO    R117232   0.235  15.835   7.654 -0.1801  0.2198  0.0626
 1314ERGO    R217233   0.062  15.847   7.869 -0.2127  0.0801  0.0378
 1314ERGO    R317234   0.190  15.618   7.943 -0.1565  0.0881 -0.0299
 1314ERGO    R417235   0.176  15.778   8.188  0.0350  0.1329 -0.0368
 1314ERGO    R517236   0.355  15.691   8.100 -0.0297  0.1161 -0.1680
 1314ERGO    C117237   0.363  15.525   8.443  0.2320  0.1710 -0.1439
 1314ERGO    C217238   0.380  15.341   8.700  0.1383 -0.2405  0.1305
 1315ERGO   ROH17239   9.616  12.940   6.926 -0.4791 -0.0556 -0.1088
 1315ERGO    R117240   9.577  12.735   7.117 -0.2222 -0.0320 -0.0252
 1315ERGO    R217241   9.781  12.638   7.276 -0.0522  0.1438 -0.1257
 1315ERGO    R317242   9.609  12.699   7.478  0.0341  0.0889 -0.0354
 1315ERGO    R417243   9.823  12.546   7.607  0.0809  0.0560 -0.1665
 1315ERGO    R517244   9.609  12.505   7.618  0.0895  0.0553 -0.0873
 1315ERGO    C117245   9.686  12.551   7.989  0.2395 -0.0467 -0.1054
 1315ERGO    C217246   9.615  12.282   8.278  0.0749  0.0585  0.0980
 1316ERGO   ROH17247  16.619  10.969  10.110 -0.1477 -0.1052 -0.0245
 1316ERGO    R117248  16.589  11.034   9.837 -0.0300  0.0107 -0.0108
 1316ERGO    R217249  16.748  11.221   9.710  0.1350 -0.0566  0.0952
 1316ERGO    R317250  16.794  11.016   9.536  0.0370 -0.0295  0.0368
 1316ERGO    R417251  16.773  11.255   9.367 -0.1798 -0.0182  0.0731
 1316ERGO    R517252  16.660  11.070   9.345 -0.1496 -0.0483  0.1589
 1316ERGO    C117253  16.831  11.083   9.004 -0.4552  0.0296  0.0054
 1316ERGO    C217254  16.759  11.117   8.636  0.0054 -0.1780  0.0609
 1317ERGO   ROH17255  12.896   9.641   8.430 -0.1210  0.0719 -0.1360
 1317ERGO    R117256  13.107   9.655   8.242 -0.1319  0.1180 -0.1457
 1317ERGO    R217257  13.237   9.891   8.181 -0.0218  0.1060  0.0267
 1317ERGO    R317258  13.459   9.748   8.245 -0.0867 -0.0537 -0.1040
 1317ERGO    R417259  13.547   9.929   8.032  0.0283  0.2009  0.1549
 1317ERGO    R517260  13.570   9.712   8.036 -0.0454  0.1861 -0.1246
 1317ERGO    C117261  13.935   9.816   8.006 -0.0035  0.1063  0.1069
 1317ERGO    C217262  14.218   9.828   7.931 -0.2874  0.0383 -0.0191
 1318ERGO   ROH17263   9.041   5.046   6.191 -0.1869 -0.1541 -0.0520
 1318ERGO    R117264   8.917   5.057   6.445 -0.1081 -0.1485 -0.0137
 1318ERGO    R217265   8.979   4.880   6.649  0.0814 -0.0333  0.0281
 1318ERGO    R317266   9.023   5.109   6.789 -0.0271  0.0470 -0.0665
 1318ERGO    R417267   9.043   4.895   6.988  0.3736  0.1078 -0.0296
 1318ERGO    R517268   8.916   5.071   6.999  0.1987 -0.0183  0.0417
 1318ERGO    C117269   9.121   5.119   7.317  0.4420  0.2653 -0.1520
 1318ERGO    C217270   9.189   4.920   7.576  0.0371  0.0839  0.1830
 1319ERGO   ROH17271  17.185  17.074   6.994  0.0119  0.0189  0.0774
 1319ERGO    R117272  17.131  17.060   7.271 -0.0607  0.0762  0.0676
 1319ERGO    R217273  17.055  16.826   7.397 -0.0470  0.0880  0.1071
 1319ERGO    R317274  17.267  16.883   7.558 -0.1001  0.1736  0.1459
 1319ERGO    R417275  17.097  16.705   7.718 -0.0847  0.1585  0.1380
 1319ERGO    R517276  17.172  16.901   7.777 -0.1522  0.1867  0.1199
 1319ERGO    C117277  17.321  16.687   8.056 -0.1563  0.2800  0.1925
 1319ERGO    C217278  17.365  16.598   8.404 -0.0727  0.2566 -0.0804
 1320ERGO   ROH17279   9.708  16.565   6.922 -0.0140 -0.2161 -0.0587
 1320ERGO    R117280   9.669  16.766   7.118  0.1685 -0.1367 -0.1019
 1320ERGO    R217281   9.494  16.735   7.330 -0.0521  0.1683 -0.2326
 1320ERGO    R317282   9.713  16.796   7.478 -0.0605 -0.1923 -0.0685
 1320ERGO    R417283   9.486  16.860   7.652 -0.0899  0.3115 -0.2882
 1320ERGO    R517284   9.651  16.993   7.599  0.2112 -0.0226 -0.2016
 1320ERGO    C117285   9.688  16.990   7.978 -0.1199  0.0561 -0.1667
 1320ERGO    C217286   9.816  17.033   8.343  0.0854  0.0656  0.1166
 1321ERGO   ROH17287   0.499  13.691   6.905  0.0693  0.0341 -0.1563
 1321ERGO    R117288   0.405  13.761   7.162  0.0776 -0.1492 -0.1017
 1321ERGO    R217289   0.524  13.670   7.395  0.2532 -0.0997 -0.1670
 1321ERGO    R317290   0.536  13.935   7.454 -0.0091 -0.1024 -0.0920
 1321ERGO    R417291   0.534  13.801   7.714  0.1695 -0.1707 -0.1350
 1321ERGO    R517292   0.399  13.959   7.648 -0.0004 -0.2925 -0.0660
 1321ERGO    C117293   0.550  14.126   7.956 -0.1255 -0.2146 -0.0461
 1321ERGO    C217294   0.627  14.436   8.146 -0.1645  0.2110 -0.0387
 1322ERGO   ROH17295   2.986   2.677   6.909 -0.2145 -0.0588 -0.0324
 1322ERGO    R117296   3.043   2.543   7.152 -0.1036  0.0033 -0.0247
 1322ERGO    R217297   3.298   2.465   7.222 -0.0680  0.0620 -0.1033
 1322ERGO    R317298   3.245   2.608   7.447 -0.0059  0.0985 -0.1099
 1322ERGO    R417299   3.465   2.430   7.523 -0.0732  0.0085 -0.1056
 1322ERGO    R517300   3.274   2.451   7.626 -0.0660  0.0929 -0.1013
 1322ERGO    C117301   3.511   2.543   7.910 -0.0178  0.0116 -0.1131
 1322ERGO    C217302   3.659   2.666   8.233  0.2734 -0.2113  0.1163
 1323ERGO   ROH17303   8.721   8.672   6.657 -0.1362 -0.2769 -0.0866
 1323ERGO    R117304   8.619   8.765   6.904  0.0887 -0.0412 -0.0773
 1323ERGO    R217305   8.439   8.620   7.054 -0.2578  0.3697 -0.0755
 1323ERGO    R317306   8.624   8.654   7.251 -0.1573 -0.0736 -0.0827
 1323ERGO    R417307   8.372   8.598   7.392 -0.3034  0.5336 -0.0737
 1323ERGO    R517308   8.505   8.769   7.424  0.1204  0.2236 -0.0799
 1323ERGO    C117309   8.507   8.618   7.774 -0.2356  0.2127 -0.0793
 1323ERGO    C217310   8.381   8.380   8.048 -0.0790  0.0509  0.0674
 1324ERGO   ROH17311   4.635  15.081   6.738  0.2526 -0.0146 -0.0503
 1324ERGO    R117312   4.740  15.050   6.999  0.1626  0.1316  0.0033
 1324ERGO    R217313   4.713  15.245   7.194 -0.1359  0.1306 -0.0365
 1324ERGO    R317314   4.606  15.040   7.338  0.0130  0.0357 -0.0568
 1324ERGO    R417315   4.707  15.227   7.539 -0.1447  0.1059 -0.0371
 1324ERGO    R517316   4.754  15.015   7.525  0.0231  0.1397 -0.0479
 1324ERGO    C117317   4.603  15.025   7.875 -0.0101  0.0024 -0.0565
 1324ERGO    C217318   4.462  15.028   8.264  0.0687  0.1862  0.1750
 1325ERGO   ROH17319  13.786  12.002   6.435 -0.0730  0.0408  0.1166
 1325ERGO    R117320  13.686  11.963   6.697 -0.0181  0.0291  0.1357
 1325ERGO    R217321  13.478  11.791   6.753 -0.0368  0.0623  0.1647
 1325ERGO    R317322  13.655  11.685   6.929 -0.0151  0.0080  0.1113
 1325ERGO    R417323  13.392  11.624   7.043 -0.0007  0.0807  0.1862
 1325ERGO    R517324  13.557  11.725   7.144  0.0580  0.0321  0.1410
 1325ERGO    C117325  13.509  11.428   7.378  0.0408  0.0405  0.1486
 1325ERGO    C217326  13.594  11.298   7.640  0.1793 -0.1525 -0.0385
 1326ERGO   ROH17327   2.749   7.939   6.425  0.0202  0.2090  0.0451
 1326ERGO    R117328   2.692   7.968   6.701  0.0621  0.2854  0.0466
 1326ERGO    R217329   2.690   7.754   6.876 -0.2864  0.2696  0.0363
 1326ERGO    R317330   2.866   7.907   7.015 -0.0334 -0.0183  0.0429
 1326ERGO    R417331   2.734   7.741   7.218 -0.2649  0.1583  0.0295
 1326ERGO    R517332   2.751   7.959   7.219  0.0698  0.1324  0.0607
 1326ERGO    C117333   2.924   7.878   7.548 -0.0150 -0.1767  0.0318
 1326ERGO    C217334   3.108   7.816   7.869 -0.0075 -0.0192 -0.0793
 1327ERGO   ROH17335   9.949  14.881   6.387  0.0483  0.0879  0.0210
 1327ERGO    R117336   9.948  15.029   6.628 -0.0011  0.0793  0.0257
 1327ERGO    R217337   9.754  14.996   6.822 -0.0113  0.0359  0.0062
 1327ERGO    R317338   9.969  14.956   6.984 -0.0186  0.0720  0.0257
 1327ERGO    R417339   9.739  14.963   7.166 -0.0735 -0.2501 -0.0212
 1327ERGO    R517340   9.920  15.084   7.181 -0.1673 -0.1197  0.1184
 1327ERGO    C117341   9.932  14.906   7.518 -0.1167 -0.3829 -0.0188
 1327ERGO    C217342  10.001  14.906   7.874 -0.0233  0.1506  0.0401
 1328ERGO   ROH17343   3.061  13.239   6.675  0.1883  0.0640  0.0682
 1328ERGO    R117344   2.974  13.251   6.945  0.0301 -0.0342  0.0236
 1328ERGO    R217345   3.147  13.298   7.155 -0.0805 -0.1788  0.1516
 1328ERGO    R317346   2.972  13.499   7.211 -0.0570 -0.1545  0.1360
 1328ERGO    R417347   3.084  13.422   7.471  0.0032 -0.0814  0.1301
 1328ERGO    R517348   2.873  13.435   7.419 -0.0082 -0.0874  0.1795
 1328ERGO    C117349   2.884  13.683   7.708  0.0741 -0.0019  0.1029
 1328ERGO    C217350   2.881  13.742   8.062  0.0658 -0.0252 -0.0872
 1329ERGO   ROH17351   1.697   4.064  10.445 -0.0201 -0.0579  0.2235
 1329ERGO    R117352   1.764   3.874  10.246 -0.1226 -0.0750  0.2048
 1329ERGO    R217353   1.580   3.778  10.064 -0.1401  0.1590  0.0949
 1329ERGO    R317354   1.764   3.861   9.883  0.0284  0.0213  0.2009
 1329ERGO    R417355   1.548   3.745   9.722  0.1484 -0.0385  0.0842
 1329ERGO    R517356   1.760   3.692   9.712  0.1486 -0.0783  0.2953
 1329ERGO    C117357   1.704   3.803   9.352  0.4745 -0.2827  0.1775
 1329ERGO    C217358   1.621   3.825   9.042 -0.1840  0.2181 -0.2239
 1330ERGO   ROH17359  11.856   1.723   6.682  0.1881 -0.1158  0.0668
 1330ERGO    R117360  11.945   1.864   6.911  0.0146  0.0770  0.0192
 1330ERGO    R217361  11.825   2.099   6.998 -0.2731 -0.0312 -0.0671
 1330ERGO    R317362  11.804   1.962   7.232 -0.1129  0.0235 -0.0201
 1330ERGO    R417363  11.821   2.243   7.312 -0.1631  0.0498 -0.1031
 1330ERGO    R517364  11.946   2.081   7.383 -0.0756  0.1091 -0.1220
 1330ERGO    C117365  11.799   2.200   7.714  0.0512  0.1483 -0.0800
 1330ERGO    C217366  11.714   2.234   7.988  0.1694 -0.0737  0.0764
 1331ERGO   ROH17367   9.985   4.134   6.170  0.0610 -0.0491  0.0152
 1331ERGO    R117368   9.908   4.249   6.417  0.0689 -0.0754  0.0301
 1331ERGO    R217369   9.650   4.232   6.516  0.0408  0.0220 -0.0237
 1331ERGO    R317370   9.776   4.130   6.735 -0.0486 -0.0942 -0.0255
 1331ERGO    R417371   9.522   4.233   6.837 -0.0357 -0.0347 -0.0538
 1331ERGO    R517372   9.720   4.281   6.911 -0.0357 -0.1308  0.0098
 1331ERGO    C117373   9.565   4.138   7.229 -0.1642 -0.1768 -0.0730
 1331ERGO    C217374   9.527   4.103   7.626  0.1011  0.2866  0.0917
 1332ERGO   ROH17375   4.031  11.864   6.763  0.2047 -0.0312 -0.0624
 1332ERGO    R117376   3.886  11.841   7.005  0.1680  0.1256 -0.0687
 1332ERGO    R217377   3.829  11.598   7.123 -0.1952  0.1773 -0.1278
 1332ERGO    R317378   3.948  11.710   7.339 -0.0250 -0.0493 -0.0987
 1332ERGO    R417379   3.768  11.508   7.451 -0.1540  0.0235 -0.1616
 1332ERGO    R517380   3.776  11.719   7.505  0.0361 -0.0100 -0.0339
 1332ERGO    C117381   3.845  11.562   7.845  0.0296 -0.2786 -0.1539
 1332ERGO    C217382   3.903  11.576   8.235 -0.1421 -0.3853 -0.0782
 1333ERGO   ROH17383  17.208  11.760   6.599 -0.0180  0.1736 -0.1082
 1333ERGO    R117384  16.977  11.824   6.748  0.0341  0.2024 -0.0389
 1333ERGO    R217385  16.929  11.721   7.000  0.0676  0.1609 -0.0502
 1333ERGO    R317386  16.903  11.983   7.067  0.1512  0.1533  0.0138
 1333ERGO    R417387  16.711  11.843   7.239 -0.0759  0.1926 -0.1956
 1333ERGO    R517388  16.668  12.011   7.107  0.1276  0.2625 -0.1797
 1333ERGO    C117389  16.560  12.160   7.441 -0.0809  0.2041 -0.2202
 1333ERGO    C217390  16.355  12.242   7.826  0.1641  0.0528 -0.0667
 1334ERGO   ROH17391   7.412   8.819   6.709  0.3493 -0.0526 -0.0578
 1334ERGO    R117392   7.470   8.842   6.985  0.1055 -0.0204 -0.0077
 1334ERGO    R217393   7.282   8.791   7.181 -0.0135 -0.1883 -0.1653
 1334ERGO    R317394   7.473   8.620   7.274  0.0548 -0.0359 -0.0181
 1334ERGO    R417395   7.299   8.670   7.504 -0.1833 -0.1909 -0.1560
 1334ERGO    R517396   7.516   8.695   7.497 -0.1929 -0.0095  0.0249
 1334ERGO    C117397   7.488   8.439   7.780 -0.2181 -0.0495 -0.0125
 1334ERGO    C217398   7.401   8.092   7.972  0.1962 -0.0049 -0.0169
 1335ERGO   ROH17399   0.235   8.905  10.067  0.0561  0.1054  0.0381
 1335ERGO    R117400   0.422   8.929   9.855  0.0408  0.2415  0.0401
 1335ERGO    R217401   0.524   8.710   9.721  0.3078  0.3092  0.1366
 1335ERGO    R317402   0.433   8.842   9.502  0.1660  0.1126  0.0733
 1335ERGO    R417403   0.595   8.622   9.394  0.3227  0.1641  0.1775
 1335ERGO    R517404   0.616   8.834   9.347  0.1522  0.1602  0.0482
 1335ERGO    C117405   0.551   8.695   8.998  0.1983 -0.1050  0.1419
 1335ERGO    C217406   0.557   8.694   8.716 -0.4498 -0.2385 -0.1716
 1336ERGO   ROH17407  13.903  16.225   6.784 -0.0251 -0.2676  0.0822
 1336ERGO    R117408  13.887  16.312   7.053 -0.0322 -0.2409  0.0725
 1336ERGO    R217409  13.771  16.161   7.252  0.0794 -0.2763  0.1066
 1336ERGO    R317410  14.010  16.198   7.376  0.0768 -0.1316  0.0717
 1336ERGO    R417411  13.824  16.129   7.592  0.1207 -0.1455  0.1135
 1336ERGO    R517412  13.954  16.304   7.583  0.0458 -0.0879  0.0442
 1336ERGO    C117413  14.079  16.145   7.906  0.1423  0.0665  0.0848
 1336ERGO    C217414  14.004  15.968   8.248  0.2788 -0.1321  0.0383
 1337ERGO   ROH17415   6.809   8.192   6.730 -0.1069  0.1003 -0.0453
 1337ERGO    R117416   6.660   8.065   6.934 -0.1230  0.2033  0.0091
 1337ERGO    R217417   6.780   7.925   7.140 -0.1461  0.0174 -0.0952
 1337ERGO    R317418   6.632   8.091   7.296  0.1234  0.1405  0.0333
 1337ERGO    R417419   6.673   7.852   7.461 -0.4402 -0.1458 -0.2264
 1337ERGO    R517420   6.482   7.945   7.413 -0.2319  0.3046 -0.2064
 1337ERGO    C117421   6.473   7.966   7.794 -0.3586 -0.1253 -0.1821
 1337ERGO    C217422   6.457   7.982   8.084  0.2399 -0.1572 -0.0990
 1338ERGO   ROH17423  11.574   0.198   6.752 -0.1096 -0.1458  0.0607
 1338ERGO    R117424  11.671   0.375   6.951  0.0227 -0.2442  0.0858
 1338ERGO    R217425  11.518   0.581   7.053  0.2582  0.0137 -0.0657
 1338ERGO    R317426  11.579   0.466   7.291 -0.0782 -0.0315  0.0030
 1338ERGO    R417427  11.457   0.723   7.362  0.2934  0.1876 -0.1374
 1338ERGO    R517428  11.651   0.648   7.429  0.1336 -0.1131  0.0021
 1338ERGO    C117429  11.478   0.697   7.766 -0.0020  0.2464 -0.1146
 1338ERGO    C217430  11.515   0.708   8.123  0.1561  0.0951  0.0709
 1339ERGO   ROH17431  17.079  10.703   6.444  0.1564 -0.0985  0.0024
 1339ERGO    R117432  17.156  10.719   6.716  0.0834 -0.0217  0.0193
 1339ERGO    R217433  17.006  10.852   6.906 -0.0781 -0.1453 -0.0154
 1339ERGO    R317434  17.019  10.615   7.036  0.1025 -0.1334 -0.0094
 1339ERGO    R417435  16.984  10.814   7.248 -0.1602 -0.1696 -0.0234
 1339ERGO    R517436  17.141  10.663   7.237 -0.0137 -0.0196  0.0322
 1339ERGO    C117437  16.983  10.568   7.571 -0.0385 -0.1726 -0.0225
 1339ERGO    C217438  16.847  10.435   7.884  0.0646 -0.0252 -0.1817
 1340ERGO   ROH17439  11.788  12.702   7.053  0.1383  0.0489  0.1220
 1340ERGO    R117440  11.651  12.691   7.300 -0.0784  0.0726  0.0055
 1340ERGO    R217441  11.567  12.453   7.413 -0.0397  0.0708  0.0274
 1340ERGO    R317442  11.708  12.542   7.628 -0.2846  0.2426  0.1217
 1340ERGO    R417443  11.517  12.349   7.739  0.0092 -0.1564 -0.0365
 1340ERGO    R517444  11.546  12.555   7.804 -0.3889 -0.1217  0.0621
 1340ERGO    C117445  11.621  12.371   8.130 -0.1923 -0.1274  0.0150
 1340ERGO    C217446  11.475  12.276   8.422 -0.0911  0.2943 -0.0528
 1341ERGO   ROH17447  11.789   3.446  10.124  0.0599  0.1304  0.1127
 1341ERGO    R117448  11.846   3.342   9.867 -0.0065 -0.0506  0.1689
 1341ERGO    R217449  11.649   3.256   9.693 -0.0670  0.0069  0.2047
 1341ERGO    R317450  11.768   3.431   9.523  0.0762 -0.1706  0.1193
 1341ERGO    R417451  11.583   3.280   9.355 -0.0869 -0.0578  0.2041
 1341ERGO    R517452  11.796   3.308   9.320 -0.0663 -0.2725  0.1628
 1341ERGO    C117453  11.657   3.458   8.998  0.0361 -0.2622  0.1236
 1341ERGO    C217454  11.716   3.559   8.609  0.0227 -0.0637 -0.1136
 1342ERGO   ROH17455   6.068  16.629   6.714  0.1168 -0.0716  0.0790
 1342ERGO    R117456   6.084  16.532   6.979  0.1994  0.0186  0.1076
 1342ERGO    R217457   6.321  16.524   7.121  0.2233  0.1736  0.0772
 1342ERGO    R317458   6.179  16.666   7.304  0.1830  0.1647  0.0531
 1342ERGO    R417459   6.389  16.533   7.460  0.1643  0.1746  0.0891
 1342ERGO    R517460   6.174  16.525   7.498  0.1573  0.1625  0.0515
 1342ERGO    C117461   6.295  16.671   7.829  0.0921  0.1669  0.0734
 1342ERGO    C217462   6.300  16.839   8.100  0.0205 -0.0389  0.0346
 1343ERGO   ROH17463   6.779   0.390   7.951 -0.0849  0.1143  0.0135
 1343ERGO    R117464   6.546   0.366   8.111 -0.1405  0.0970 -0.0676
 1343ERGO    R217465   6.557   0.323   8.384 -0.2347 -0.0868 -0.0871
 1343ERGO    R317466   6.400   0.544   8.392 -0.1495 -0.0300  0.0075
 1343ERGO    R417467   6.342   0.404   8.642 -0.1223 -0.0513 -0.0051
 1343ERGO    R517468   6.197   0.470   8.494 -0.1434  0.0309  0.0576
 1343ERGO    C117469   6.070   0.659   8.800  0.0231  0.0227  0.1316
 1343ERGO    C217470   5.779   0.854   8.893  0.0800  0.3641 -0.3931
 1344ERGO   ROH17471  16.115  17.047   7.010 -0.1628  0.1396 -0.0280
 1344ERGO    R117472  16.047  16.908   7.247 -0.0517  0.0867 -0.0262
 1344ERGO    R217473  16.227  16.865   7.452  0.0452  0.0415 -0.1195
 1344ERGO    R317474  16.034  16.982   7.603  0.1145  0.0080 -0.0034
 1344ERGO    R417475  16.157  16.785   7.781  0.2085 -0.0170 -0.0979
 1344ERGO    R517476  15.945  16.804   7.736  0.1857 -0.0170  0.0100
 1344ERGO    C117477  15.935  16.849   8.114  0.3685 -0.0824  0.0236
 1344ERGO    C217478  16.021  16.690   8.342  0.0009 -0.0977 -0.0078
 1345W        W17479   4.131   7.994   1.912  0.2045 -0.0165  0.1682
 1346W        W17480   8.269  10.684   0.389 -0.1574  0.3004  0.1210
 1347W        W17481  17.131   1.934   1.312  0.0035 -0.2192  0.0902
 1348W        W17482   0.444   9.133  11.521  0.0610 -0.3195  0.1818
 1349W        W17483  15.650   1.311   3.833 -0.0756 -0.1320 -0.1218
 1350W        W17484   1.984   7.240   4.377 -0.2428 -0.2854  0.0697
 1351W        W17485  15.528  10.639   4.286  0.0239  0.1799  0.0448
 1352W        W17486   5.444   9.901  14.585 -0.3213 -0.0219 -0.1754
 1353W        W17487  15.982  12.108  14.194 -0.0486  0.0658  0.2166
 1354W        W17488  15.938   6.573  14.284  0.1961 -0.1440 -0.1082
 1355W        W17489   4.844   8.063  16.528 -0.0936  0.0124 -0.0270
 1356W        W17490   8.265   0.767   5.389  0.0377  0.0391 -0.0604
 1357W        W17491   2.437  15.436   2.687  0.3037 -0.1366  0.0317
 1358W        W17492   1.625   6.011   2.915 -0.3210 -0.2201  0.3136
 1359W        W17493  12.891  17.557   0.336 -0.0606  0.0947  0.0720
 1360W        W17494  13.945   6.620  15.312  0.2425  0.1850 -0.0990
 1361W        W17495   5.995  13.229  15.897  0.3861 -0.1699  0.2626
 1362W        W17496  17.287   0.811   0.075  0.0069 -0.0285  0.1176
 1363W        W17497   8.124   8.642  14.193 -0.1855  0.1871 -0.1319
 1364W        W17498  10.044  16.491   4.826 -0.1952 -0.0709  0.0856
 1365W        W17499  14.681  10.697   2.753 -0.0223  0.1554  0.0233
 1366W        W17500  16.065   6.173  15.884 -0.0761  0.0828 -0.0773
 1367W        W17501   9.652   2.507   4.102  0.0269 -0.0146 -0.1270
 1368W        W17502   2.403   8.548  15.887 -0.2649 -0.0741  0.0055
 1369W        W17503   1.997   2.126  13.438  0.1410  0.0007 -0.0299
 1370W        W17504   6.006  16.292   3.121 -0.3314 -0.1153 -0.1278
 1371W        W17505  17.268   9.812  14.407  0.0417 -0.0465 -0.2575
 1372W        W17506  15.045  13.377  11.080  0.1240  0.2336 -0.0759
 1373W        W17507   8.423   9.209   5.653 -0.2119 -0.0270 -0.1453
 1374W        W17508  12.524  10.015   0.775  0.0138 -0.0660 -0.0361
 1375W        W17509  16.248   8.535   4.434 -0.3025 -0.4437 -0.0782
 1376W        W17510  17.600   8.407  11.739  0.2187  0.3439  0.1538
 1377W        W17511   7.138  13.686  13.374  0.0566  0.0428 -0.0814
 1378W        W17512   6.934   0.262   1.454  0.1759  0.1159  0.0700
 1379W        W17513   9.729  12.366  12.447 -0.2087 -0.0088  0.1179
 1380W        W17514  12.662  11.382  14.505 -0.0574 -0.3534 -0.4049
 1381W        W17515  11.112  17.116  13.332  0.0566 -0.1542 -0.2248
 1382W        W17516   0.621  12.625  14.759 -0.1535  0.2506 -0.2569
 1383W        W17517   6.360  17.422  16.707 -0.0840  0.1541  0.2219
 1384W        W17518  11.138  12.072   5.331  0.0490  0.1138  0.0345
 1385W        W17519  11.478   1.196  16.926 -0.0968  0.1846 -0.1428
 1386W        W17520   9.650  11.765  11.782  0.1032 -0.0219  0.2304
 1387W        W17521  10.628  16.180   2.770  0.0308  0.0564  0.0205
 1388W        W17522   1.379  15.920   4.954 -0.3454 -0.1943  0.1909
 1389W        W17523   1.209   4.733   1.319  0.0235 -0.0900  0.0428
 1390W        W17524   3.045   4.990   2.555  0.0855 -0.1627  0.1598
 1391W        W17525   2.650   7.653   2.691  0.1867 -0.1717  0.2234
 1392W        W17526   2.167  12.016  12.494 -0.0399 -0.0359  0.2487
 1393W        W17527   1.818   5.352  14.616 -0.0753  0.0527  0.0316
 1394W        W17528  10.897  17.375  11.969 -0.1685 -0.1536 -0.0745
 1395W        W17529  14.241  14.318   2.752  0.1059  0.1280 -0.0858
 1396W        W17530   1.105   6.845   1.981  0.0248  0.0870 -0.1520
 1397W        W17531   2.860   1.333   1.717  0.2844  0.0872  0.0544
 1398W        W17532  17.323   4.502   3.841  0.0350  0.0046 -0.0035
 1399W        W17533  15.779   6.579  11.583  0.1697 -0.1927 -0.0415
 1400W        W17534  10.597   6.055  16.017 -0.0846 -0.1437  0.1123
 1401W        W17535   2.640  11.814   3.136  0.0068 -0.0140 -0.1238
 1402W        W17536   1.324   0.725   2.585  0.0548  0.0162 -0.1553
 1403W        W17537  11.229   2.778   4.160  0.1184  0.0887  0.0861
 1404W        W17538   7.049   3.261   5.552 -0.1829  0.0788  0.2598
 1405W        W17539   6.156  12.806  15.766  0.1321  0.1179  0.0426
 1406W        W17540  12.835   2.914   4.247 -0.0662  0.4154  0.2103
 1407W        W17541  16.610  10.767  13.222 -0.1066  0.1243  0.3745
 1408W        W17542  11.390   0.070   0.769 -0.1976 -0.0001  0.3165
 1409W        W17543   1.655   3.653  12.537 -0.1553 -0.0997 -0.1074
 1410W        W17544   2.238   4.312   5.758  0.0333  0.0114 -0.0727
 1411W        W17545   0.949   3.619   0.250 -0.0684 -0.3725  0.2234
 1412W        W17546  11.192  12.986   2.709  0.0511 -0.0871 -0.0218
 1413W        W17547   9.712  10.232   4.811 -0.1395 -0.1223 -0.0973
 1414W        W17548   6.238   8.032  17.134  0.0586 -0.0277  0.1753
 1415W        W17549   9.686  11.499   3.849 -0.1577 -0.0564 -0.2117
 1416W        W17550  13.974   6.215   3.894  0.1399 -0.0210 -0.0290
 1417W        W17551   0.669   1.580  15.546  0.1060  0.1255  0.2328
 1418W        W17552   8.512  16.724  15.321  0.0233  0.0219 -0.2971
 1419W        W17553  12.193  17.392  16.349 -0.0299  0.1730  0.3473
 1420W        W17554   4.527   0.492   5.703  0.1400 -0.2742 -0.0264
 1421W        W17555   2.024  13.161   2.063  0.1450 -0.0949 -0.0320
 1422W        W17556   9.526   8.344  12.920  0.2822  0.0179 -0.0248
 1423W        W17557  16.286   0.843  16.747  0.0064 -0.0950  0.1632
 1424W        W17558  11.793   3.859  11.397  0.0638 -0.2335  0.1011
 1425W        W17559   6.564   4.015   1.120 -0.0957 -0.0987 -0.0568
 1426W        W17560  11.506   0.222   4.824  0.1107  0.2113 -0.3153
 1427W        W17561  16.477   3.471   6.199 -0.4272  0.0832 -0.1987
 1428W        W17562   0.559   8.671   0.300 -0.2673 -0.0239  0.1909
 1429W        W17563  12.586   8.178   1.722  0.1240 -0.3033  0.1957
 1430W        W17564  15.813   8.037   6.001 -0.0380  0.0982  0.1371
 1431W        W17565  11.439  14.679   4.977  0.3279 -0.1058 -0.1284
 1432W        W17566   2.459  14.226  13.646 -0.1190 -0.2310  0.0016
 1433W        W17567   8.058   5.229   3.921 -0.2643 -0.1052 -0.2489
 1434W        W17568   4.232   7.805   1.383 -0.2955 -0.0300  0.1331
 1435W        W17569   0.047  17.436   3.546  0.0029  0.0245 -0.3971
 1436W        W17570   9.532  14.556  15.366  0.0527  0.3376 -0.2066
 1437W        W17571  15.900  10.301   4.234 -0.2685  0.1662  0.0298
 1438W        W17572   7.078  14.169  16.584 -0.1628  0.0011  0.0485
 1439W        W17573  12.294  15.808   2.942  0.0175  0.1591  0.1984
 1440W        W17574   3.549  13.826  16.413 -0.0053  0.1436 -0.0890
 1441W        W17575  10.958  12.004  14.299  0.0001  0.2572  0.0770
 1442W        W17576   8.912   7.983  15.215  0.0575 -0.2927 -0.0508
 1443W        W17577   8.419   4.030   3.127  0.1366  0.1005  0.1644
 1444W        W17578   0.476   8.615   4.666 -0.0755 -0.1533  0.0561
 1445W        W17579  14.422   7.620  13.522  0.0091  0.0807  0.4087
 1446W        W17580  13.392  11.984   4.421 -0.3199 -0.3304 -0.1033
 1447W        W17581  11.911   9.330   4.035  0.1800 -0.0866  0.2841
 1448W        W17582   4.073  15.450   4.479 -0.0542 -0.2939 -0.0287
 1449W        W17583   3.565   6.634  16.654  0.0284 -0.1301  0.0141
 1450W        W17584   9.002   3.245  12.750  0.2582  0.0737  0.2175
 1451W        W17585   8.765   9.352   2.042  0.4030  0.1332 -0.1718
 1452W        W17586   9.934  15.985   4.836  0.0054  0.1578  0.1269
 1453W        W17587   1.297  10.101  16.751  0.1248  0.2315 -0.0693
 1454W        W17588  13.612  11.504   1.070 -0.0144  0.0660  0.1109
 1455W        W17589  12.064   0.411   3.425 -0.1333 -0.0120  0.1618
 1456W        W17590   6.640   5.636  14.391  0.2334  0.0109 -0.1009
 1457W        W17591  12.740   2.570  15.926 -0.0098 -0.0460  0.0622
 1458W        W17592   8.192  14.057   4.267  0.2184  0.3057 -0.1895
 1459W        W17593   2.879   2.729   0.215 -0.0188 -0.0637  0.0505
 1460W        W17594  14.612  16.817  12.981 -0.1414 -0.0002 -0.2285
 1461W        W17595   5.609   0.087   2.658  0.0592 -0.1142  0.0771
 1462W        W17596  12.988   9.288   1.251  0.1127  0.1093 -0.1093
 1463W        W17597   8.518   6.226  15.567 -0.0048  0.0839  0.3404
 1464W        W17598  17.390   3.141  13.148 -0.2237 -0.3468 -0.2081
 1465W        W17599  14.727   9.015  10.970  0.2676 -0.2172  0.1042
 1466W        W17600  14.852   3.367   0.006  0.1336 -0.1641  0.1316
 1467W        W17601   1.581  15.091  16.818  0.0558 -0.1886  0.0985
 1468W        W17602   8.980  15.131  13.749 -0.2672 -0.1232 -0.0069
 1469W        W17603  13.069   7.891  13.462 -0.3968  0.0644 -0.4891
 1470W        W17604  11.475  16.200  15.095 -0.1636  0.0802  0.1555
 1471W        W17605   0.060   9.972   5.484 -0.0308 -0.1658  0.3131
 1472W        W17606   1.889  14.042  15.144  0.0425  0.0030 -0.0981
 1473W        W17607   2.968   6.817   4.717 -0.1791 -0.2176  0.1272
 1474W        W17608  17.461  11.702   5.524  0.0501 -0.0564  0.0667
 1475W        W17609   3.800  11.394  14.353 -0.0156 -0.2372 -0.0426
 1476W        W17610  16.021  17.492   1.937  0.2316 -0.0182 -0.0091
 1477W        W17611   5.802  16.371   5.056 -0.1454 -0.2670 -0.2023
 1478W        W17612   4.896   6.359  11.790  0.2117 -0.0727 -0.1502
 1479W        W17613   4.792   9.718  14.591 -0.1155  0.0345 -0.2249
 1480W        W17614  17.137   7.286   0.777  0.0922 -0.3877  0.1470
 1481W        W17615   6.145   2.212   5.051 -0.1268 -0.1518  0.1213
 1482W        W17616   2.031   2.239   0.470  0.0890 -0.1648 -0.1462
 1483W        W17617   2.620   5.451  14.092  0.0203  0.3729  0.0964
 1484W        W17618   4.792   7.192  13.881 -0.0638  0.1194  0.0007
 1485W        W17619   7.734  13.732  12.094 -0.0461 -0.1140  0.0122
 1486W        W17620   2.748  17.133   2.586  0.0111  0.2547 -0.0050
 1487W        W17621   8.230   7.850   0.279 -0.1231 -0.0122 -0.1691
 1488W        W17622   4.061   5.383   5.760 -0.0953  0.0579 -0.2686
 1489W        W17623   0.010   4.911   3.165  0.0433  0.1647 -0.1055
 1490W        W17624   3.236   1.935  13.920 -0.2114 -0.0953 -0.0723
 1491W        W17625  14.463   5.789  15.158 -0.0515  0.1434 -0.2571
 1492W        W17626   5.035  12.899   2.738  0.0201 -0.0986 -0.1154
 1493W        W17627  10.154   7.617  13.145 -0.1436  0.0422  0.1329
 1494W        W17628   4.169  12.490   3.498  0.2234  0.1948  0.1756
 1495W        W17629   2.922  17.471   0.127  0.0463 -0.1332 -0.3046
 1496W        W17630   1.357  16.358   4.628 -0.1262  0.0830  0.0717
 1497W        W17631   4.936  15.520   2.365 -0.1070 -0.1246  0.1608
 1498W        W17632  11.492  11.803  15.743 -0.0472  0.0234  0.1749
 1499W        W17633  11.337   8.449  12.836 -0.3483 -0.1081 -0.0400
 1500W        W17634  13.040   0.309   0.120 -0.0428 -0.2031 -0.1104
 1501W        W17635  12.586   8.258  14.066  0.2835  0.0019  0.0676
 1502W        W17636  12.041   0.676  11.932  0.1153 -0.1495 -0.0452
 1503W        W17637   2.317   6.635  14.780  0.0284 -0.0331 -0.0176
 1504W        W17638   7.588   7.431   4.506  0.0367 -0.2307  0.1837
 1505W        W17639  14.684   2.356   3.423  0.0885  0.0278 -0.2444
 1506W        W17640  15.890  17.013  14.412 -0.0225 -0.1649  0.0418
 1507W        W17641   7.173   6.398   4.768  0.0979 -0.1731 -0.0127
 1508W        W17642  16.653   6.806   0.886  0.0161 -0.1221 -0.2501
 1509W        W17643  14.345  14.755   4.703 -0.1874  0.2195 -0.2654
 1510W        W17644  15.761  15.129  15.749 -0.0485  0.1433  0.3150
 1511W        W17645  16.251   4.287  13.615  0.1397  0.0146 -0.0701
 1512W        W17646   7.224   6.732   5.193 -0.1180  0.0037  0.1071
 1513W        W17647   6.395   2.419  13.521 -0.1921  0.2082  0.1139
 1514W        W17648   8.437   2.942  16.693 -0.1688 -0.0525  0.0968
 1515W        W17649  15.382   9.937  16.502  0.1723 -0.0510 -0.1004
 1516W        W17650   6.678   8.905   6.192 -0.1391 -0.1409 -0.0661
 1517W        W17651  10.220   1.836   3.923 -0.4779  0.0630 -0.1934
 1518W        W17652   5.987  14.758  12.606 -0.0418 -0.3352 -0.1297
 1519W        W17653   0.973   4.311   1.068 -0.0725  0.0076  0.1693
 1520W        W17654  16.548   4.368  16.320 -0.1302  0.1262  0.1013
 1521W        W17655  10.870  11.187   5.084  0.0984 -0.0580 -0.0862
 1522W        W17656  13.969   8.794   2.381  0.1135 -0.3648 -0.2215
 1523W        W17657   8.666  17.420   0.500  0.3062  0.1409 -0.3258
 1524W        W17658  10.294   3.117   2.357 -0.1797 -0.1799  0.3736
 1525W        W17659   5.965   7.595   1.234 -0.2914  0.3527  0.2624
 1526W        W17660  14.365  15.611  15.551 -0.2581  0.0731 -0.0203
 1527W        W17661  17.661   8.964  11.647 -0.1760  0.1709 -0.1509
 1528W        W17662   8.929   0.770  12.611  0.1374 -0.0030 -0.0140
 1529W        W17663   4.580   3.210  13.415 -0.2250 -0.0491 -0.3021
 1530W        W17664  15.630   4.873  13.746 -0.1321 -0.0416  0.0544
 1531W        W17665   5.559  11.859  12.221 -0.1973 -0.3184 -0.0896
 1532W        W17666   2.953   7.163  14.353  0.0318 -0.1345 -0.2069
 1533W        W17667   8.837  12.584   2.326  0.0005  0.0657  0.0774
 1534W        W17668   7.873   8.622   5.106  0.2786 -0.3374 -0.0936
 1535W        W17669   7.736  11.643   5.349  0.1036 -0.0582 -0.3935
 1536W        W17670   9.482  17.473  15.929 -0.2234  0.0378 -0.0548
 1537W        W17671   1.328   2.916   0.692  0.1156 -0.0034  0.3608
 1538W        W17672   7.102  10.605   5.693  0.2715  0.2819  0.1049
 1539W        W17673  11.285  17.421  16.051  0.1717  0.3000 -0.2618
 1540W        W17674   8.664   7.643  11.679 -0.0024  0.0202 -0.0216
 1541W        W17675   0.750  16.737  17.168  0.1363 -0.2942  0.0551
 1542W        W17676   9.803  11.169   0.901  0.1867  0.0886 -0.1180
 1543W        W17677  16.951   6.874  14.810 -0.2750 -0.0742 -0.2063
 1544W        W17678  14.544  14.096   1.067 -0.0345  0.0628 -0.0878
 1545W        W17679   6.253   1.419  13.613 -0.1700  0.1671  0.2292
 1546W        W17680  16.693   9.031   1.304 -0.1713  0.1486 -0.0013
 1547W        W17681  16.665   8.498   4.120 -0.1898 -0.0886 -0.1685
 1548W        W17682   6.824  12.805   2.697  0.0279 -0.0195  0.0892
 1549W        W17683   5.371  15.736   3.540  0.0289  0.1567  0.0458
 1550W        W17684   6.179   6.009   2.831 -0.1460 -0.1377  0.0478
 1551W        W17685  13.209   4.202  15.173  0.0482  0.1258  0.2017
 1552W        W17686  14.188   7.363  16.172 -0.1058  0.1556 -0.0627
 1553W        W17687  16.538  10.236   2.834 -0.1131 -0.0354  0.2392
 1554W        W17688  15.815   8.261   0.437 -0.2389  0.0814  0.2261
 1555W        W17689   0.479   3.848  11.735 -0.1075  0.1398  0.1009
 1556W        W17690  17.612   3.337  12.155  0.1957 -0.1848  0.0275
 1557W        W17691   4.142   4.608   5.380  0.0255  0.0675 -0.2697
 1558W        W17692  17.248   2.857   5.443 -0.0131  0.5077 -0.1470
 1559W        W17693  13.654  14.725  16.402 -0.1039  0.0712  0.0544
 1560W        W17694   2.901  15.141  17.004 -0.1731  0.0364  0.0917
 1561W        W17695   7.389   4.698  15.230 -0.0714  0.0053  0.1082
 1562W        W17696   7.772  13.188  16.085  0.2616  0.2932 -0.0494
 1563W        W17697   1.031   8.427   2.682 -0.0865 -0.0928  0.0482
 1564W        W17698   0.315   2.977  15.473  0.0071  0.0829 -0.1778
 1565W        W17699   9.069  13.105   1.128  0.0007 -0.0579  0.1169
 1566W        W17700  14.249   9.602   6.112 -0.0076  0.1603  0.0195
 1567W        W17701   8.435   6.227  11.725 -0.3552 -0.1665  0.1918
 1568W        W17702   7.614  10.562  12.515 -0.1650  0.0895  0.1261
 1569W        W17703   4.643   6.310  13.220  0.2557 -0.1215 -0.0711
 1570W        W17704   0.334   8.356  12.611 -0.3622 -0.1537 -0.2610
 1571W        W17705   2.663  12.240  13.420  0.0527 -0.0214 -0.2896
 1572W        W17706   2.759   5.943  12.902 -0.0440  0.0787 -0.3123
 1573W        W17707   8.150  13.349  17.077  0.2714 -0.2330 -0.0792
 1574W        W17708   8.876   4.338  14.803 -0.1741 -0.1232  0.2291
 1575W        W17709  16.415  10.032   0.432  0.0976 -0.0212  0.0673
 1576W        W17710   9.166  16.330  15.880  0.0984  0.0482  0.1250
 1577W        W17711  16.866   9.864   0.320 -0.0433  0.1102  0.1075
 1578W        W17712   5.048  16.471  14.533 -0.0933 -0.1162 -0.0489
 1579W        W17713   3.932   3.158  12.792 -0.1006 -0.5525 -0.1901
 1580W        W17714  10.670   5.799  13.879 -0.1385  0.1680  0.0179
 1581W        W17715   6.991  12.307   0.705  0.0471 -0.1939 -0.3674
 1582W        W17716   5.603   2.591   1.970  0.1873 -0.0797  0.0860
 1583W        W17717   8.025   2.522  16.619  0.3061 -0.2866  0.0249
 1584W        W17718   0.264   5.800   3.180  0.2033  0.1308 -0.0737
 1585W        W17719  12.393  16.319   6.102  0.0472 -0.1406  0.2223
 1586W        W17720  14.038   0.110  15.467  0.0843 -0.4474  0.2253
 1587W        W17721  16.189  11.904  13.767  0.2383 -0.4326  0.1211
 1588W        W17722  12.197  10.622  16.748 -0.4210 -0.0785  0.1058
 1589W        W17723   3.030   8.153  12.932  0.1364 -0.0468  0.2091
 1590W        W17724  15.121  10.027  10.805 -0.0754  0.1079 -0.0458
 1591W        W17725   6.671   8.795  13.415  0.0288 -0.0690  0.0966
 1592W        W17726   5.053   7.952   5.079 -0.0472 -0.0155  0.0241
 1593W        W17727   2.657   8.827  12.905  0.1696 -0.0294 -0.1175
 1594W        W17728  14.744  11.379  13.825 -0.1046  0.2438  0.2028
 1595W        W17729   5.416  16.271   1.326  0.0646  0.0538  0.0257
 1596W        W17730  14.765  14.204   5.596  0.0244 -0.3051  0.1939
 1597W        W17731  12.442   6.395  12.405  0.1256 -0.1959 -0.0441
 1598W        W17732   1.656   5.453  12.827 -0.3199 -0.0050  0.0674
 1599W        W17733   5.321   5.740   3.383  0.2293  0.0210 -0.0723
 1600W        W17734  17.237   3.911  13.379  0.1329  0.0746 -0.0442
 1601W        W17735  15.090   2.077   1.987 -0.0813 -0.0859 -0.1146
 1602W        W17736  15.778   8.286  16.181 -0.0410  0.1894 -0.0598
 1603W        W17737  17.258  10.681   3.939 -0.2061 -0.0797 -0.3606
 1604W        W17738   6.468  12.615  16.722  0.1075 -0.3659  0.0165
 1605W        W17739  14.612   0.402   0.440  0.0790  0.0710  0.1159
 1606W        W17740   7.145   0.506   1.010  0.0368 -0.0900 -0.2825
 1607W        W17741   6.690   2.462  14.405  0.0225 -0.1433 -0.4612
 1608W        W17742  11.050  13.873   2.894  0.3083  0.0881 -0.4029
 1609W        W17743  15.188  15.655  13.693 -0.1414 -0.1745 -0.2657
 1610W        W17744   3.802   1.937   2.113 -0.0041 -0.1082 -0.1377
 1611W        W17745   2.908  14.202  15.060 -0.1370  0.0144 -0.3132
 1612W        W17746   5.671  14.937  16.052  0.1193 -0.1434 -0.0100
 1613W        W17747   6.181  14.884   0.246  0.0030  0.0403 -0.1191
 1614W        W17748   7.541  13.750   6.305 -0.1049  0.0548 -0.4521
 1615W        W17749  13.526  10.139  12.497 -0.0021  0.0294  0.1694
 1616W        W17750   2.557  16.546  16.800  0.1977 -0.1569 -0.2978
 1617W        W17751  11.554   3.938   3.850 -0.1492  0.0947  0.1383
 1618W        W17752  13.269  13.002  13.888 -0.0231 -0.0022  0.1080
 1619W        W17753   1.588   0.022   6.310  0.2552 -0.1322 -0.0273
 1620W        W17754  12.101   7.368  12.067  0.2652 -0.1081  0.0861
 1621W        W17755  15.898   8.318  11.886  0.1330  0.0120 -0.0247
 1622W        W17756   5.837   0.956  14.336  0.1900 -0.0517  0.0056
 1623W        W17757  10.492   7.090   6.138  0.0192  0.0553  0.1900
 1624W        W17758  11.402  16.393   2.021  0.0624  0.2068 -0.2359
 1625W        W17759   6.936   7.570   4.846 -0.2686 -0.1119  0.0644
 1626W        W17760   2.516   6.340  12.228 -0.0774  0.1955 -0.0707
 1627W        W17761   1.133   5.556   5.579 -0.0831  0.3580 -0.1830
 1628W        W17762   8.771   8.870   2.059  0.1620  0.4462  0.1143
 1629W        W17763   5.055   6.564  14.629  0.0729  0.0893 -0.1292
 1630W        W17764  14.617   5.609   3.817 -0.1185 -0.1890 -0.0245
 1631W        W17765   1.575   4.552  12.971  0.1029  0.1442  0.0296
 1632W        W17766   7.855   3.658  16.525 -0.3155 -0.3266 -0.2159
 1633W        W17767  11.178   4.920  12.481 -0.2009 -0.0295 -0.1175
 1634W        W17768   4.424   0.602   4.627 -0.0400 -0.4642 -0.3664
 1635W        W17769   1.328  15.046   0.548  0.0594 -0.1010 -0.2316
 1636W        W17770  13.705  12.580   3.206 -0.0900 -0.2410 -0.5040
 1637W        W17771  13.737  17.386  15.313 -0.0648 -0.2315 -0.2919
 1638W        W17772  10.985  15.292   2.702 -0.0295 -0.0506 -0.2221
 1639W        W17773  17.408   9.352  10.286  0.1124 -0.3118  0.2490
 1640W        W17774   2.475  14.422   1.643 -0.0633  0.1227 -0.0377
 1641W        W17775   5.994   9.937   5.327 -0.0134 -0.1599  0.1778
 1642W        W17776   1.292  13.089  16.649 -0.0585 -0.2007 -0.1333
 1643W        W17777   9.951   7.636  11.299  0.1013 -0.2039  0.1967
 1644W        W17778   6.173  15.101   2.386  0.2798  0.0968 -0.0465
 1645W        W17779   4.323   2.668   1.656 -0.0405 -0.0407 -0.1962
 1646W        W17780   8.112  12.452  15.938  0.2069  0.0069  0.0852
 1647W        W17781   5.176  10.768   5.121 -0.1945  0.1259 -0.2034
 1648W        W17782   2.921  17.454  16.822  0.2981 -0.2655  0.0318
 1649W        W17783  10.513   6.033   0.804  0.1286  0.0872 -0.0166
 1650W        W17784  13.296   7.794   3.278  0.1645  0.0332  0.1440
 1651W        W17785   4.024   2.562   6.280  0.1150 -0.0825 -0.0651
 1652W        W17786   9.268  13.516   0.416 -0.2046  0.1541 -0.1241
 1653W        W17787   9.473   9.591   4.194  0.1917  0.0609  0.3641
 1654W        W17788  13.828  14.720   1.044 -0.3828  0.0428 -0.2019
 1655W        W17789  15.456  10.027   4.238  0.1021  0.0732 -0.2313
 1656W        W17790   2.015  13.658  14.806  0.1971  0.0028 -0.0092
 1657W        W17791  16.617   4.291  16.985 -0.1326  0.0168  0.0766
 1658W        W17792   8.911   1.759  14.962  0.1351  0.1225  0.2603
 1659W        W17793   9.095  11.569   4.064  0.0087  0.0959  0.0808
 1660W        W17794   6.021   3.603   3.519  0.0352  0.1496 -0.0169
 1661W        W17795  16.897   6.431   1.141  0.2095 -0.1069 -0.1890
 1662W        W17796   5.709   9.876   4.887 -0.2276 -0.1268 -0.2679
 1663W        W17797  11.507  10.235  14.006  0.0422  0.1399 -0.2963
 1664W        W17798  16.933  14.484   4.059  0.0129 -0.0522  0.0118
 1665W        W17799  13.572   9.382  16.281  0.1062  0.0226  0.1321
 1666W        W17800  13.848  10.448  13.716 -0.0535 -0.2349 -0.0999
 1667W        W17801  10.759   5.313   0.086  0.0826 -0.3492  0.3067
 1668W        W17802  16.804  16.840   4.971 -0.2706  0.0619 -0.1378
 1669W        W17803  10.980   6.157  14.107 -0.0270 -0.1189 -0.1260
 1670W        W17804   9.765   2.733  11.663  0.0815  0.0204 -0.0817
 1671W        W17805  11.894   3.120  12.380  0.1535  0.1206 -0.3848
 1672W        W17806   3.174  13.805   5.497  0.1960 -0.1215  0.1074
 1673W        W17807  17.206  12.054  14.895 -0.1540  0.2789 -0.4203
 1674W        W17808   4.578   3.338  16.893  0.1215 -0.0210  0.1109
 1675W        W17809   4.524  11.235  12.601  0.2544  0.2418 -0.2379
 1676W        W17810   1.254  14.106  12.642  0.2241 -0.1675 -0.1788
 1677W        W17811   2.535  13.316  13.494 -0.1474  0.4511 -0.1374
 1678W        W17812  15.746   7.110  13.555 -0.1890  0.0363 -0.2875
 1679W        W17813   4.486   9.764   1.798  0.0539  0.0263 -0.2619
 1680W        W17814  17.397  16.150  13.758  0.1099 -0.1405 -0.0141
 1681W        W17815   4.591  16.258  14.502 -0.2273 -0.0201  0.3062
 1682W        W17816  17.351  14.246   4.130 -0.3834  0.0817  0.1980
 1683W        W17817  11.482   2.305  12.857  0.0698  0.2342 -0.1845
 1684W        W17818  15.899  11.481   2.595  0.1676  0.3366 -0.1332
 1685W        W17819   0.105  14.899  15.135  0.0812 -0.1767  0.1585
 1686W        W17820  11.545  12.680  16.720 -0.0476  0.1530 -0.0905
 1687W        W17821  15.835  13.944   5.487 -0.0584 -0.1034 -0.1170
 1688W        W17822  13.124   9.239   2.826  0.3273  0.0854  0.0085
 1689W        W17823  13.279   1.872   2.521 -0.0702  0.0213  0.0708
 1690W        W17824  11.178  12.723   3.624 -0.0874  0.2408 -0.0273
 1691W        W17825   5.393  11.723   1.303 -0.1206 -0.2676 -0.0975
 1692W        W17826  15.345  12.522   3.176 -0.0792 -0.1601 -0.1870
 1693W        W17827   9.043   4.503   4.741 -0.1196 -0.1218 -0.2015
 1694W        W17828   0.764   3.807   2.252  0.0926  0.1017 -0.1436
 1695W        W17829  15.913   5.236   0.015  0.0508 -0.0526 -0.1730
 1696W        W17830  10.111   6.801  11.927  0.2523 -0.0461 -0.2859
 1697W        W17831  14.736  11.804   3.120 -0.1383 -0.0581 -0.0367
 1698W        W17832  13.666   0.855   4.046 -0.1683 -0.3363  0.0170
 1699W        W17833   1.405   8.880   2.426 -0.0527  0.3287 -0.0062
 1700W        W17834  14.080   5.079  12.987 -0.1436 -0.2886 -0.1034
 1701W        W17835  10.069   5.237  16.057  0.1501 -0.3489  0.0055
 1702W        W17836   2.084  16.384   3.086 -0.3783 -0.0842  0.1658
 1703W        W17837   3.992   3.942   1.343 -0.0127 -0.0937 -0.0499
 1704W        W17838   8.046   6.265   4.858 -0.3901  0.2628  0.0905
 1705W        W17839  13.388   7.320   3.219  0.2504  0.1174 -0.2380
 1706W        W17840   1.943   9.970  14.831  0.1311 -0.0521  0.4298
 1707W        W17841   6.106   4.792  16.053 -0.2959 -0.4879 -0.2525
 1708W        W17842  16.659  12.470   1.769 -0.2475  0.0802 -0.2053
 1709W        W17843   3.048   2.954  13.364  0.0800 -0.1273 -0.0413
 1710W        W17844   3.897   9.660   2.423 -0.2133 -0.0408  0.0365
 1711W        W17845   8.422  11.446  12.431 -0.2465  0.1888  0.0451
 1712W        W17846  11.811  12.570   0.522  0.1678 -0.4349 -0.0094
 1713W        W17847   2.759  16.423   1.212 -0.0254  0.2421 -0.0294
 1714W        W17848   6.396   8.819  12.967  0.0696  0.2572 -0.1729
 1715W        W17849   9.305  10.415   1.128 -0.5454 -0.1056 -0.0523
 1716W        W17850   1.063   6.354  14.967  0.0157 -0.0438 -0.2511
 1717W        W17851   5.658  12.071  14.712 -0.0312 -0.1092  0.0434
 1718W        W17852   1.242  11.940   1.493 -0.2308  0.2352 -0.2208
 1719W        W17853   2.146   9.526  13.389  0.0687  0.0108  0.0294
 1720W        W17854  12.139   3.009   5.231 -0.0593 -0.1455  0.0495
 1721W        W17855   2.232  16.336  17.168 -0.2021  0.1586 -0.2188
 1722W        W17856  13.575   0.201   5.342  0.1523  0.0437 -0.0922
 1723W        W17857  14.283   3.004   5.431 -0.2262  0.0109  0.0328
 1724W        W17858   9.254  14.113  15.465 -0.0129 -0.0370 -0.0507
 1725W        W17859  14.840  11.178   2.693  0.1351  0.1202 -0.0942
 1726W        W17860  10.478   3.476  14.567  0.0008 -0.1343  0.0500
 1727W        W17861   3.279   3.811   3.418 -0.0326  0.5207  0.0533
 1728W        W17862   5.440  17.441   5.450  0.0989  0.1977 -0.1449
 1729W        W17863   7.489  15.217   0.099  0.1337  0.1433  0.1755
 1730W        W17864  16.296  10.325   0.939 -0.0250  0.1084  0.2510
 1731W        W17865  13.909   6.006  16.420 -0.2670  0.1984  0.2221
 1732W        W17866  14.165   8.315  16.622 -0.1860 -0.1789  0.1012
 1733W        W17867  11.946   0.727   3.832  0.3946  0.1074  0.1270
 1734W        W17868  12.833  10.445   0.856 -0.2854 -0.3308 -0.0655
 1735W        W17869  13.667   4.902  13.550  0.1805 -0.1288 -0.0944
 1736W        W17870  14.143  13.811   1.287  0.0258 -0.1084  0.2256
 1737W        W17871   0.219   5.275   1.078 -0.0670  0.0246 -0.0621
 1738W        W17872   0.797   2.040   2.286 -0.0625 -0.1433 -0.1182
 1739W        W17873   8.943  15.195  12.413 -0.0681 -0.0523 -0.1790
 1740W        W17874   5.974   3.399  16.533 -0.0136 -0.2903  0.0629
 1741W        W17875   7.731  11.239   0.558  0.0769 -0.0836  0.1688
 1742W        W17876  15.171   0.779  13.758  0.2288  0.1805 -0.0790
 1743W        W17877   2.718   3.725  16.951  0.2908  0.2507  0.1309
 1744W        W17878  13.940  12.620  14.577  0.0294 -0.1512  0.1487
 1745W        W17879   4.417   3.291  13.913  0.3934 -0.0854  0.1115
 1746W        W17880  10.316  10.815  14.436 -0.1967  0.0384 -0.0755
 1747W        W17881   9.093   2.033  15.363 -0.0693 -0.0132  0.1986
 1748W        W17882   5.605  12.528  12.644  0.0320  0.0493  0.2037
 1749W        W17883  15.381  14.096   5.628  0.0469 -0.0114 -0.1322
 1750W        W17884   9.877  11.252  13.568  0.1067 -0.1778 -0.1146
 1751W        W17885   2.941   7.119   0.222 -0.2587  0.1801 -0.0425
 1752W        W17886   3.731   0.846  15.113 -0.2041  0.1782  0.1134
 1753W        W17887  15.789   6.584  13.283 -0.3431 -0.1875  0.0049
 1754W        W17888   0.657   6.046   3.455  0.0483  0.0779  0.1454
 1755W        W17889  17.390   2.764  16.752  0.1382 -0.5099  0.2730
 1756W        W17890   1.985   3.519   5.341 -0.0647 -0.3816 -0.0633
 1757W        W17891  12.787   9.666   3.790  0.0295 -0.2860 -0.1418
 1758W        W17892   3.410   4.502   4.813 -0.0842  0.2371  0.2582
 1759W        W17893   3.162   0.610  12.096 -0.1473  0.1635 -0.3619
 1760W        W17894   4.777  15.723  12.682  0.2883  0.0502  0.0968
 1761W        W17895   9.855   7.308   0.897  0.1038 -0.2687  0.3413
 1762W        W17896  13.477  12.690   2.152 -0.3172  0.1823 -0.1120
 1763W        W17897   4.287   5.172   1.802  0.1157  0.0347  0.0805
 1764W        W17898   5.800  10.662  15.314 -0.2037 -0.0163  0.0609
 1765W        W17899  10.702   2.550  16.827 -0.2042 -0.4925 -0.1171
 1766W        W17900   7.876  11.896   1.788  0.2022  0.1397 -0.0283
 1767W        W17901  14.039   1.965  16.500 -0.0527  0.0166 -0.0338
 1768W        W17902  14.769  12.160   2.331 -0.5652 -0.0988 -0.0831
 1769W        W17903   7.848   0.857   0.423 -0.2496 -0.2369 -0.2104
 1770W        W17904  13.020  10.310  12.473  0.1312  0.0480 -0.2015
 1771W        W17905   4.406  17.282  15.832 -0.0035  0.1868 -0.1042
 1772W        W17906  16.423   4.959   4.068  0.0280 -0.0029 -0.0599
 1773W        W17907  10.099  13.688  12.103  0.1768  0.2089  0.0539
 1774W        W17908  12.424   8.641   1.913  0.3226  0.1156  0.1002
 1775W        W17909  13.692   6.639   4.698 -0.0061  0.0084 -0.2786
 1776W        W17910   8.033   2.249   0.072  0.1239  0.3085 -0.1852
 1777W        W17911   4.262  13.228   5.588 -0.0330  0.2644  0.0951
 1778W        W17912  12.851  14.324  14.845 -0.1056 -0.4826  0.0130
 1779W        W17913   4.400   0.568  17.012 -0.0870  0.2646  0.0480
 1780W        W17914   9.430   9.282  13.368  0.1437  0.0044  0.0550
 1781W        W17915   9.328   6.984   2.743  0.1797  0.1707 -0.1287
 1782W        W17916   6.740   9.750  12.899 -0.0548 -0.2736 -0.0183
 1783W        W17917   6.902  10.108  13.591 -0.0589 -0.1924 -0.2201
 1784W        W17918   6.413   0.998   0.660 -0.0352 -0.2031 -0.1085
 1785W        W17919  11.975   0.495   4.683 -0.1033  0.2651  0.1123
 1786W        W17920   2.662   0.133  17.047 -0.2874 -0.0648  0.0609
 1787W        W17921  11.439   2.434   5.004  0.1585 -0.2747 -0.0489
 1788W        W17922  16.102   3.964   4.149 -0.1481  0.1934  0.1570
 1789W        W17923  16.765  15.204  13.501 -0.1843 -0.0604 -0.2062
 1790W        W17924   4.834   9.712  11.749 -0.0232  0.0543 -0.0152
 1791W        W17925  13.395  11.959   1.312  0.2024  0.1536  0.0642
 1792W        W17926  14.153  15.362  16.698  0.0645 -0.0082  0.1380
 1793W        W17927   1.824  12.707  14.750 -0.0383 -0.0825 -0.2726
 1794W        W17928   1.792  10.412  14.673 -0.3194 -0.4195 -0.1823
 1795W        W17929   4.236   8.758   0.659 -0.1876 -0.0238  0.3673
 1796W        W17930  17.140   1.669   4.920  0.2412  0.2072 -0.0300
 1797W        W17931   5.183   1.131   2.197 -0.4008 -0.1623 -0.1016
 1798W        W17932  16.999  14.511   1.225  0.0890 -0.0922 -0.0360
 1799W        W17933   0.095  10.551  14.280 -0.4457  0.1145 -0.0294
 1800W        W17934   9.229   3.427   0.284 -0.0202  0.0269 -0.0593
 1801W        W17935  14.073   2.020   0.871  0.0304  0.0269 -0.0799
 1802W        W17936   7.141   3.855  11.685  0.0460 -0.0048  0.1195
 1803W        W17937  16.944   0.308  15.192  0.3183  0.2452  0.3953
 1804W        W17938   5.361  13.370   1.785  0.1477 -0.1888 -0.2046
 1805W        W17939   8.506   2.329   0.635 -0.0996  0.1558 -0.0685
 1806W        W17940   2.985   8.252   4.852 -0.1189 -0.2970  0.1508
 1807W        W17941  10.538   3.202  11.763  0.0872  0.3383 -0.1086
 1808W        W17942   7.277   9.318  15.182  0.0497 -0.2538 -0.2537
 1809W        W17943  14.000   9.393  11.697 -0.1917 -0.1952 -0.0403
 1810W        W17944  15.153  15.986  15.231 -0.1346 -0.3987  0.1229
 1811W        W17945  16.304  15.994   4.976 -0.2300 -0.1521  0.2115
 1812W        W17946   9.665   2.172  14.629  0.1881  0.1024 -0.3133
 1813W        W17947  10.667   2.303  11.671  0.3238  0.3221  0.1558
 1814W        W17948  13.337   6.615  16.063  0.0807 -0.0288 -0.0568
 1815W        W17949  16.427   5.312  12.796  0.2324  0.0914  0.1482
 1816W        W17950  13.110   0.864   6.399  0.1719 -0.0269  0.0335
 1817W        W17951  16.954   9.683  14.785  0.0561  0.0225  0.3034
 1818W        W17952   7.993  16.277   0.685 -0.0128  0.0645  0.0611
 1819W        W17953   0.156  14.653  15.644  0.0168  0.0645  0.2295
 1820W        W17954   4.342  15.933  15.545  0.2375 -0.0210 -0.1831
 1821W        W17955  13.106  16.554  16.074  0.0398 -0.1546 -0.0089
 1822W        W17956   4.520  13.612  13.176 -0.3205 -0.0803 -0.0254
 1823W        W17957   8.328  12.429   5.333  0.1989  0.0622 -0.0006
 1824W        W17958  17.409   1.287  12.944 -0.0654 -0.1865  0.2234
 1825W        W17959   6.519   3.381   5.703  0.5821  0.2896 -0.1162
 1826W        W17960  14.036   0.120   5.059  0.0433 -0.3648 -0.0965
 1827W        W17961  13.303   9.416   2.387 -0.1418  0.0182 -0.0378
 1828W        W17962   0.334   0.155   0.219 -0.0499  0.0002 -0.1406
 1829W        W17963   9.223  12.655   0.461 -0.2545  0.1956 -0.0023
 1830W        W17964   0.764  10.830   2.774 -0.1206  0.3948  0.0061
 1831W        W17965   0.937   9.148  16.624  0.0025 -0.1119 -0.2606
 1832W        W17966   5.461   9.443  16.714  0.0751  0.1169  0.0302
 1833W        W17967   1.351   1.313   2.431 -0.3970 -0.0282 -0.0556
 1834W        W17968   7.740  16.737   3.817 -0.1424 -0.1799 -0.0271
 1835W        W17969   2.766   6.356   5.610 -0.0846  0.0208 -0.0151
 1836W        W17970   5.914   0.554  12.122  0.1040  0.1405  0.1607
 1837W        W17971  14.860  10.577  14.504 -0.2178  0.0731  0.0321
 1838W        W17972  13.448   9.569   5.970  0.0019  0.0867  0.0894
 1839W        W17973   6.991  11.165   3.532  0.0049  0.1556 -0.0307
 1840W        W17974   1.030   9.920  15.799  0.3380  0.1810 -0.0353
 1841W        W17975   5.322   2.194  13.961 -0.0044  0.0055  0.4140
 1842W        W17976   9.216   3.008   2.740  0.2411 -0.2569 -0.0091
 1843W        W17977   9.431   5.474   2.266 -0.1704  0.0078  0.0123
 1844W        W17978   4.756   9.827   4.651 -0.2546 -0.0135  0.1052
 1845W        W17979  17.416   3.239   5.976  0.0357  0.0125  0.3000
 1846W        W17980   7.576  12.610   3.204 -0.1814 -0.0252  0.0612
 1847W        W17981  17.668   0.852   2.753  0.1912  0.1587 -0.0066
 1848W        W17982   3.885  15.031   3.668  0.2583  0.1355 -0.0917
 1849W        W17983  10.724   5.522  14.775  0.2329 -0.1569  0.2241
 1850W        W17984  16.347  12.569   4.221 -0.1324  0.1188 -0.1969
 1851W        W17985   9.226   2.310  14.419  0.1245 -0.2129  0.1768
 1852W        W17986   2.396   5.217  13.660 -0.0328 -0.4058  0.2259
 1853W        W17987   7.685   0.917   5.982 -0.0535  0.1854 -0.0579
 1854W        W17988   5.796   3.911   5.324 -0.1032 -0.4347 -0.1165
 1855W        W17989   3.811   4.551  13.982  0.3103  0.0567  0.2099
 1856W        W17990  11.191   5.231   0.344 -0.1656  0.1785 -0.1977
 1857W        W17991   1.429  14.888  16.391 -0.1845 -0.2952  0.2163
 1858W        W17992  11.139  13.827   0.625 -0.3012  0.0686 -0.1638
 1859W        W17993  12.529   5.493   1.817 -0.3297  0.0893  0.0922
 1860W        W17994  14.117   6.665  12.399 -0.1268  0.3889  0.1515
 1861W        W17995  13.040   6.150  13.986  0.1852 -0.2258  0.0677
 1862W        W17996   6.282   4.602  11.996 -0.0982 -0.1142  0.1643
 1863W        W17997   5.499   9.662   0.328 -0.2036  0.2441 -0.0060
 1864W        W17998   6.762  14.860  16.153  0.0499 -0.0044  0.0912
 1865W        W17999  12.979   2.056  14.319  0.1052 -0.2178 -0.1207
 1866W        W18000  12.018   3.404   0.655  0.1299 -0.1024 -0.2453
 1867W        W18001  10.737   6.495   0.683  0.1562 -0.0861 -0.0333
 1868W        W18002  14.322   3.575   1.296 -0.3057  0.2069 -0.1277
 1869W        W18003   6.200   7.204   2.471  0.0576 -0.2239 -0.2635
 1870W        W18004   8.950   6.621  15.314 -0.3574 -0.1995 -0.2856
 1871W        W18005   2.324   9.765   2.876 -0.3908  0.1102 -0.1221
 1872W        W18006   4.135   3.572  11.929  0.0328  0.2018 -0.3349
 1873W        W18007   0.464  11.969   3.941  0.1667 -0.0212 -0.1465
 1874W        W18008  13.678  11.149  14.140 -0.1308  0.1134  0.0582
 1875W        W18009  11.394   4.507   5.783 -0.1409  0.0755  0.1293
 1876W        W18010   3.501  13.490  16.844 -0.0190 -0.1115 -0.0505
 1877W        W18011   7.383  16.828   4.741 -0.3374 -0.1600 -0.1907
 1878W        W18012  11.861   7.436   3.458 -0.5083 -0.1521 -0.2495
 1879W        W18013   2.630   9.972  13.017  0.0375  0.2405  0.1115
 1880W        W18014   9.223  13.896   0.089  0.1499  0.0368 -0.1472
 1881W        W18015   0.784   3.751  12.128 -0.0578  0.2427  0.1064
 1882W        W18016   7.687   9.911  15.609  0.0050 -0.1456 -0.1075
 1883W        W18017   8.859   5.794   4.295 -0.2996  0.0904 -0.2222
 1884W        W18018  16.051  12.087   2.278  0.4655 -0.2723 -0.2882
 1885W        W18019  12.493   9.914   2.218 -0.1832  0.1827  0.1349
 1886W        W18020  15.343   9.131   3.085  0.0337  0.0925  0.0707
 1887W        W18021   3.516   8.611   3.899  0.0730 -0.1234 -0.1642
 1888W        W18022  12.150   1.711  14.024  0.0252  0.0564 -0.0604
 1889W        W18023   4.588  10.070  15.949  0.1571  0.1510  0.2826
 1890W        W18024   5.491  16.728   3.847 -0.7483 -0.1487 -0.0477
 1891W        W18025   2.332  11.999  14.819 -0.2308  0.1347 -0.1198
 1892W        W18026   4.737   4.338   1.551 -0.3169  0.2996 -0.1252
 1893W        W18027   2.339  13.220  13.982  0.1090  0.0568 -0.0294
 1894W        W18028   9.047   1.761  12.438 -0.1614  0.0260 -0.1374
 1895W        W18029   5.177  10.655  13.075 -0.0647 -0.2299  0.3299
 1896W        W18030  14.743   5.395  16.123 -0.1293 -0.0106  0.0028
 1897W        W18031  10.539   4.633   0.124 -0.1083  0.2768  0.1936
 1898W        W18032   2.896  13.320   3.571 -0.0135  0.1129 -0.1207
 1899W        W18033  14.438   8.211   1.441 -0.0558 -0.0643 -0.2642
 1900W        W18034   8.154   9.112   0.515  0.0051 -0.1810  0.2041
 1901W        W18035  10.409   8.763  11.704  0.1876 -0.1605  0.1572
 1902W        W18036  14.516   2.885  15.833  0.2090  0.1716  0.1158
 1903W        W18037   4.082  12.553  14.825 -0.0320  0.0569 -0.1931
 1904W        W18038   3.712   5.515  13.163 -0.1229 -0.0575 -0.0272
 1905W        W18039   6.490   1.087  12.443  0.1749  0.0544 -0.0618
 1906W        W18040   6.222  12.494   4.892 -0.3903 -0.1320  0.2230
 1907W        W18041   7.319  16.156  13.963  0.1216 -0.4048  0.0869
 1908W        W18042   1.594  15.451   0.530 -0.1948  0.1696 -0.0870
 1909W        W18043   7.721   7.763   0.586  0.1644 -0.1579 -0.0180
 1910W        W18044  11.995  15.297   3.599  0.0687  0.4083 -0.1315
 1911W        W18045  16.856  12.365  11.654  0.0208 -0.4180  0.1456
 1912W        W18046   2.934  10.749   4.740 -0.0391 -0.2007  0.0034
 1913W        W18047  15.284   2.210   0.152 -0.0853 -0.1867  0.1707
 1914W        W18048   0.114   3.434  15.682  0.2075  0.2409  0.0794
 1915W        W18049   1.989   1.074  15.578  0.0290 -0.3467 -0.1301
 1916W        W18050  15.576   1.624  14.156  0.3488  0.0867 -0.2102
 1917W        W18051   6.899  12.207   0.205  0.1037  0.1491 -0.1456
 1918W        W18052   0.649   3.605   5.637  0.2225 -0.1415  0.2789
 1919W        W18053  12.591   9.436  14.996 -0.2046 -0.1528 -0.0720
 1920W        W18054  10.941  13.100  14.286 -0.2016  0.1443 -0.3310
 1921W        W18055   4.109   5.311   1.187  0.0882  0.1278  0.0478
 1922W        W18056   3.782   5.976  12.011 -0.1237 -0.0942 -0.1969
 1923W        W18057   2.663  15.840   0.358  0.1198 -0.1862  0.1682
 1924W        W18058  16.850   2.023   5.202  0.0471 -0.0586 -0.3086
 1925W        W18059   1.900  17.614   0.248  0.1951  0.3751  0.3851
 1926W        W18060  17.572   4.794   0.368  0.1737  0.2495 -0.0126
 1927W        W18061  15.744  11.712  14.377  0.5318 -0.1232  0.0982
 1928W        W18062   6.453   2.916  13.563 -0.1699 -0.0597  0.3929
 1929W        W18063   2.258   7.362   2.466 -0.0187  0.0732 -0.0242
 1930W        W18064  15.954  11.167   3.726 -0.0041 -0.1731  0.0299
 1931W        W18065   9.974  12.686   4.615 -0.0751  0.1308 -0.0074
 1932W        W18066  13.679   7.793   1.579  0.0691  0.1477  0.3019
 1933W        W18067   6.491  12.251   4.487  0.0199  0.1237  0.0634
 1934W        W18068   2.350   8.560   5.731 -0.2798 -0.1150  0.5439
 1935W        W18069  16.338   6.367   2.067  0.0109  0.0905  0.1087
 1936W        W18070   3.396  16.433   0.519 -0.0716  0.0508 -0.1833
 1937W        W18071  16.121   9.472  13.426 -0.0606 -0.2747  0.4214
 1938W        W18072  10.299   4.442   2.265  0.3053  0.0180  0.1788
 1939W        W18073   8.214  15.667   3.009  0.2274  0.1302 -0.0865
 1940W        W18074   9.766   7.183  17.017 -0.0005  0.0014  0.0840
 1941W        W18075  16.139   6.829  15.284  0.0399 -0.1643 -0.0428
 1942W        W18076   4.407   0.484  14.582  0.2103  0.0270  0.4500
 1943W        W18077   5.749  14.487   1.200 -0.2695 -0.1632 -0.0527
 1944W        W18078   5.340  10.071   2.485  0.0023 -0.1381  0.0220
 1945W        W18079   6.142  16.968  16.124 -0.0466 -0.0228 -0.0819
 1946W        W18080   3.626  11.912   0.917 -0.1956 -0.2733 -0.1355
 1947W        W18081   9.449  12.843   0.938  0.3450  0.1816  0.0506
 1948W        W18082   4.763  12.857  17.173 -0.1328 -0.0909  0.0476
 1949W        W18083  12.947   5.264  14.390  0.0752 -0.3473 -0.1430
 1950W        W18084   9.895   8.475   4.693  0.3356 -0.2034 -0.0316
 1951W        W18085  13.863  12.366   3.662  0.1861  0.0265  0.0706
 1952W        W18086  15.153  16.177   3.178  0.1296 -0.3963  0.0795
 1953W        W18087   1.549   1.793   6.753  0.0019  0.0908 -0.0260
 1954W        W18088   5.231   4.009   4.493 -0.0376  0.1188 -0.1071
 1955W        W18089  10.082   0.488   3.589 -0.0722  0.1032  0.1288
 1956W        W18090   9.659   4.640   2.317  0.2832 -0.0700 -0.3269
 1957W        W18091  13.790   7.884  13.095 -0.0479 -0.2881  0.1931
 1958W        W18092  10.739  14.523   3.152  0.1545 -0.0622  0.0147
 1959W        W18093   8.575  13.682  13.779  0.0357 -0.0307  0.0360
 1960W        W18094   5.343   3.766   3.927 -0.1273 -0.2724  0.1323
 1961W        W18095  14.241  17.561   4.061 -0.0346  0.4868 -0.0310
 1962W        W18096   5.176   2.971   0.407 -0.1323 -0.2075  0.0560
 1963W        W18097  11.903   7.243  14.736 -0.3461  0.1339  0.0663
 1964W        W18098   9.490   7.087  12.428  0.1127 -0.3285 -0.3098
 1965W        W18099  10.648   9.291  16.444  0.0155 -0.0709  0.1791
 1966W        W18100   5.524   6.793   3.288  0.2238  0.1217  0.1693
 1967W        W18101  16.716  13.650   0.809 -0.0429  0.1001 -0.1433
 1968W        W18102   8.756   6.791  14.101 -0.4051  0.0957 -0.1698
 1969W        W18103  12.067  15.618  14.388 -0.1083 -0.3771  0.0786
 1970W        W18104   3.301  16.140   6.273 -0.0867  0.1486  0.0305
 1971W        W18105  12.413   7.138  14.649 -0.1053 -0.1172  0.2223
 1972W        W18106  17.348  14.159  14.117 -0.0340  0.2449  0.2647
 1973W        W18107   1.265   6.085   4.503  0.0634  0.1760  0.0199
 1974W        W18108   4.571  14.807   4.895 -0.0470  0.0597  0.0134
 1975W        W18109  12.596   5.010  16.137  0.3202 -0.2516 -0.1178
 1976W        W18110   5.382   7.861   2.414 -0.0731  0.2052  0.0903
 1977W        W18111  11.810   0.858  12.420 -0.2250  0.0576 -0.1029
 1978W        W18112   3.801  12.098  11.963 -0.0881  0.1820 -0.0029
 1979W        W18113  14.226   1.247   2.976  0.3173  0.0669  0.2934
 1980W        W18114   2.907  13.195  13.857  0.1418 -0.0755  0.2059
 1981W        W18115  13.816   1.546   0.176  0.0773 -0.0726 -0.2280
 1982W        W18116   9.144   8.533  12.110 -0.2024  0.0372  0.1349
 1983W        W18117   0.157   4.390   6.367  0.1360  0.2205 -0.2463
 1984W        W18118  10.676  14.463  13.945  0.0927  0.2957  0.0838
 1985W        W18119  15.454   7.761  14.429 -0.1032 -0.2776  0.0908
 1986W        W18120  15.817   9.474  15.493 -0.0491 -0.0467 -0.1367
 1987W        W18121   3.433   4.181   5.759  0.2509  0.0709  0.1180
 1988W        W18122   4.814  16.357   3.809  0.0698 -0.1245 -0.0454
 1989W        W18123  12.469   3.425  15.717 -0.1208  0.3314 -0.0556
 1990W        W18124  14.601   6.722   2.579  0.0494  0.2237  0.4155
 1991W        W18125   0.283  10.274  16.162 -0.1187 -0.0634 -0.2985
 1992W        W18126   1.508   7.929   4.008 -0.1139  0.1796 -0.2571
 1993W        W18127   8.991   0.311   1.403 -0.3343  0.0745 -0.3992
 1994W        W18128   6.067  10.845   0.719  0.0020 -0.0636 -0.1200
 1995W        W18129   5.787   8.896  15.050  0.1279  0.1883 -0.0611
 1996W        W18130   2.557   0.147  12.651  0.0321 -0.0110 -0.2599
 1997W        W18131   7.138   5.903   4.962 -0.0478  0.2589  0.1670
 1998W        W18132  17.257   5.498  16.591  0.0606  0.1447 -0.1393
 1999W        W18133   3.047  13.456   1.044 -0.1996  0.1017  0.0889
 2000W        W18134  12.630  17.101  12.416  0.0001  0.1148  0.0481
 2001W        W18135   1.487   5.812  13.207  0.1746 -0.3464  0.4022
 2002W        W18136   6.601  16.942  16.430  0.0234 -0.0029  0.2391
 2003W        W18137   9.099   0.076  13.027  0.1260  0.0645  0.1180
 2004W        W18138   9.923   8.080  14.666  0.0016  0.1105  0.0840
 2005W        W18139  14.295   3.162   5.890 -0.2235 -0.0200 -0.1457
 2006W        W18140  12.485  11.416   5.234 -0.3390 -0.2801 -0.0234
 2007W        W18141  16.595   1.427   3.528  0.0002  0.3535 -0.1500
 2008W        W18142   8.195  13.004   2.516  0.0688  0.0319 -0.0639
 2009W        W18143  12.440  15.781  12.606  0.0368 -0.2510 -0.2072
 2010W        W18144   7.960  12.464   0.984 -0.0936  0.3634 -0.0896
 2011W        W18145   8.677  14.891   2.611 -0.3216  0.2104 -0.2328
 2012W        W18146   4.606   3.407   5.854  0.1479 -0.3559 -0.0848
 2013W        W18147   2.547   5.885   0.357 -0.0097  0.0257  0.1901
 2014W        W18148   1.686  15.307  11.997 -0.1059 -0.1825  0.0742
 2015W        W18149   0.893  10.190   0.831  0.0533  0.0912 -0.1270
 2016W        W18150   4.003   9.931  12.315  0.2757 -0.1230 -0.2459
 2017W        W18151   4.452   0.472   1.086  0.1426  0.0576 -0.0336
 2018W        W18152   8.052   5.194   5.694 -0.2605 -0.1302 -0.0442
 2019W        W18153  15.919   8.398   1.226 -0.1451  0.0783  0.0198
 2020W        W18154   5.923   4.159   3.213  0.0605 -0.1659  0.0453
 2021W        W18155   4.757   9.286   2.308 -0.0823  0.1436  0.0793
 2022W        W18156   7.414   4.498  16.579 -0.0942 -0.0546  0.1438
 2023W        W18157  13.895   1.663   3.549 -0.0901 -0.2181  0.1780
 2024W        W18158  15.501  12.587  13.386 -0.2893 -0.1182  0.0430
 2025W        W18159   6.061   6.888   3.894 -0.2112  0.1624 -0.0658
 2026W        W18160   8.391   7.026   4.382  0.1074 -0.0076  0.1164
 2027W        W18161   6.829  16.223  16.514  0.0270 -0.0820 -0.1284
 2028W        W18162  13.706  10.916  15.469 -0.0156 -0.1178 -0.1374
 2029W        W18163  13.157   1.906  12.457  0.0478  0.4249  0.0704
 2030W        W18164   2.605   8.577   0.801  0.1287 -0.1232  0.0948
 2031W        W18165   3.754   1.839   5.418  0.1842  0.0536  0.2293
 2032W        W18166   7.196   0.906  16.439  0.0062  0.0075 -0.4259
 2033W        W18167  10.102   5.178   4.923 -0.1143 -0.1137  0.1567
 2034W        W18168   1.415   8.780   5.492 -0.1290  0.0781 -0.1666
 2035W        W18169   1.646  17.272   2.102  0.1756 -0.0531 -0.0572
 2036W        W18170  12.838   7.726   4.462  0.2105  0.0020 -0.2353
 2037W        W18171  13.980   5.227   4.866  0.2256 -0.2546 -0.4206
 2038W        W18172   6.702   6.973   1.015 -0.4908  0.1777 -0.0353
 2039W        W18173  11.694   5.468  16.660  0.0120  0.2541  0.1718
 2040W        W18174   8.979   0.124   2.323  0.2269  0.1253  0.2543
 2041W        W18175  17.511  14.024  14.943  0.1884  0.2774 -0.1064
 2042W        W18176   8.417   8.260   3.364  0.0632 -0.1193 -0.0765
 2043W        W18177   8.940  16.604   0.724 -0.0987  0.1798 -0.1783
 2044W        W18178  10.694  13.248   4.074  0.0979  0.1449 -0.0176
 2045W        W18179   1.007  10.917  13.481 -0.1885  0.0974  0.2716
 2046W        W18180   2.804   4.031  12.763  0.0050 -0.0982 -0.0633
 2047W        W18181   7.612   2.041   2.531 -0.0542  0.0865  0.0741
 2048W        W18182   6.625   8.112   2.497  0.0728  0.2837 -0.4030
 2049W        W18183   3.095  17.533  15.812  0.0321 -0.2622 -0.2311
 2050W        W18184  11.081  11.362  16.745  0.0349 -0.1272 -0.1783
 2051W        W18185   7.084   7.213  15.971  0.0119 -0.0683  0.1652
 2052W        W18186  11.121   1.672  15.617 -0.1742 -0.1176  0.2047
 2053W        W18187  13.939  16.689   2.440  0.1667 -0.1673  0.0745
 2054W        W18188   2.145  13.923   1.518 -0.0255  0.0197  0.2041
 2055W        W18189   7.144   8.604   0.774 -0.3158  0.0705  0.4146
 2056W        W18190  10.096   7.614  15.548  0.4318  0.0328  0.0037
 2057W        W18191  15.771  13.902  13.264 -0.0708 -0.2503  0.1402
 2058W        W18192   1.765   4.395   4.378 -0.0084 -0.2090  0.0691
 2059W        W18193  17.388  10.023  14.976  0.1295 -0.3146  0.2349
 2060W        W18194   2.063   4.088  12.582 -0.1584  0.1319 -0.2499
 2061W        W18195  11.678   6.900  15.047  0.1218  0.1916  0.2262
 2062W        W18196   2.642   7.722   0.530 -0.2630  0.0747 -0.0157
 2063W        W18197  12.768   7.397   4.081  0.2683  0.1608  0.0104
 2064W        W18198  10.732  13.764   0.416 -0.0608 -0.4734 -0.0764
 2065W        W18199  11.777  13.415   4.118 -0.0202 -0.1281 -0.1767
 2066W        W18200   7.239  13.582  12.200 -0.0432 -0.1701 -0.1331
 2067W        W18201   3.065   7.134  16.656  0.2872 -0.1554 -0.2214
 2068W        W18202  14.093   2.339   4.087  0.1238 -0.0296 -0.2462
 2069W        W18203  16.723  17.533  13.545  0.0397 -0.0493  0.0408
 2070W        W18204  14.405  15.987   5.173  0.2606  0.1006 -0.1048
 2071W        W18205   9.056   7.117  15.217 -0.0993  0.1749 -0.2312
 2072W        W18206  15.202   3.230   5.558  0.0211 -0.0784  0.0414
 2073W        W18207   6.311   6.303   1.053 -0.1930 -0.2135  0.2636
 2074W        W18208  13.276  11.788  12.538  0.2915 -0.1361 -0.1746
 2075W        W18209  15.018  12.272   3.450  0.0548 -0.1788  0.0092
 2076W        W18210   7.514   2.339  15.978 -0.0639  0.0565  0.0818
 2077W        W18211   0.421  16.874  14.502  0.0072  0.0910  0.2321
 2078W        W18212   9.849   5.436   1.379 -0.1846  0.1410 -0.2568
 2079W        W18213   5.757   6.392   1.972  0.0899 -0.0765 -0.0053
 2080W        W18214   2.042   6.586  11.550 -0.1588  0.3416  0.1312
 2081W        W18215   1.433  14.698  12.107 -0.0693  0.0575  0.1246
 2082W        W18216   3.598  12.409  12.421 -0.2964 -0.0597 -0.0525
 2083W        W18217   4.835   3.508  13.764 -0.1580 -0.1485 -0.0229
 2084W        W18218  11.437   5.293  14.462  0.1899  0.1128 -0.0875
 2085W        W18219  15.529   8.722  12.527 -0.1635  0.0397 -0.0311
 2086W        W18220  16.359   4.927  12.463  0.1072 -0.0627 -0.1161
 2087W        W18221   2.981   9.558   0.695 -0.1560  0.0860 -0.0033
 2088W        W18222  10.059   1.659  12.628  0.1868  0.0841  0.1757
 2089W        W18223  13.316  14.907  14.240  0.2005  0.2082 -0.0704
 2090W        W18224   2.462   7.624   1.272 -0.0263 -0.0815  0.1544
 2091W        W18225  13.139   8.812   2.548  0.1126 -0.1170  0.1796
 2092W        W18226   5.428  15.409   5.135  0.1921 -0.1178  0.2833
 2093W        W18227   3.840  14.363  11.865  0.1232  0.3565 -0.0146
 2094W        W18228   0.413  11.628   2.378 -0.1937  0.0072  0.1406
 2095W        W18229   1.516   3.974   2.803  0.0958  0.1033 -0.0739
 2096W        W18230   0.354   8.161  10.842 -0.0667 -0.0547 -0.1085
 2097W        W18231   0.788  13.127   0.103 -0.3618  0.2480 -0.0354
 2098W        W18232  15.384   9.531   3.447 -0.2331 -0.2467  0.1162
 2099W        W18233   3.487  17.085  12.393 -0.0380  0.1287  0.2573
 2100W        W18234  16.765  14.251   0.242  0.0641 -0.0194  0.1054
 2101W        W18235  14.794   2.721   4.232  0.0971  0.4220  0.1455
 2102W        W18236  13.681  16.448   1.004  0.1559 -0.1591 -0.1838
 2103W        W18237   3.196   2.596  16.243 -0.2699 -0.1428  0.2695
 2104W        W18238  13.078  15.957  14.758  0.0160  0.0299  0.0497
 2105W        W18239   3.356   4.632   1.292  0.0220 -0.1123  0.0140
 2106W        W18240   0.708   6.956  12.805 -0.3708 -0.1502  0.1328
 2107W        W18241  16.507   8.872  12.451  0.3783  0.3067 -0.1310
 2108W        W18242   3.063  14.657  15.192 -0.1517 -0.1495 -0.1717
 2109W        W18243   7.687   1.939   5.034 -0.0043 -0.2677  0.0159
 2110W        W18244  11.156   2.924  16.174 -0.1490  0.0534  0.2574
 2111W        W18245  17.028  11.424   4.509 -0.2792  0.1321  0.2466
 2112W        W18246   2.667   8.183   3.925 -0.0473  0.0233  0.0150
 2113W        W18247   9.363  14.523  16.322  0.0125 -0.0655  0.1309
 2114W        W18248  15.467  12.396   4.608  0.2191  0.1044 -0.0035
 2115W        W18249   1.623   0.032  14.048 -0.0803  0.2344  0.1756
 2116W        W18250   3.497   7.189   3.958  0.1943  0.2050  0.2109
 2117W        W18251   4.317   3.871   0.364 -0.0599 -0.0856 -0.4355
 2118W        W18252   2.995  16.879   0.398  0.0416  0.2622 -0.1751
 2119W        W18253  10.374   2.867  16.550 -0.0904  0.1835 -0.0138
 2120W        W18254   7.261  11.103   4.480 -0.0266 -0.1191  0.2127
 2121W        W18255  15.249   6.167   4.140  0.0288 -0.2671 -0.1288
 2122W        W18256   7.380   6.334  13.221 -0.1843  0.0036  0.3275
 2123W        W18257   6.862   4.211   3.663 -0.3205  0.2991  0.2620
 2124W        W18258  10.936   7.904   1.607  0.1311  0.2103  0.0722
 2125W        W18259   4.538   4.802   1.481 -0.0410 -0.1743 -0.0340
 2126W        W18260   7.116   3.991  16.914 -0.3146 -0.7746  0.1261
 2127W        W18261   5.520  15.038  12.657  0.2080 -0.2373  0.0450
 2128W        W18262   0.730   5.819  12.592 -0.2085 -0.1822 -0.0384
 2129W        W18263  14.920  12.000   5.596 -0.2232 -0.0793  0.0119
 2130W        W18264   1.885  16.890   0.735 -0.1278  0.1727  0.0319
 2131W        W18265  13.459   2.844  12.791  0.3851  0.0597  0.2648
 2132W        W18266   7.360  11.531   4.822  0.1095 -0.0517 -0.2003
 2133W        W18267  12.541  12.845   2.761 -0.3882  0.2331 -0.1229
 2134W        W18268  16.696   9.780  16.547 -0.0232  0.0563  0.2948
 2135W        W18269   9.715  14.863  15.923  0.1871 -0.0377 -0.1527
 2136W        W18270   6.616  15.857   2.291  0.3037 -0.0450  0.2019
 2137W        W18271  16.054   7.354   3.565 -0.1671 -0.0862 -0.0672
 2138W        W18272   7.844   5.899   4.494 -0.2437  0.1303 -0.2867
 2139W        W18273  15.050  11.901   3.956  0.0158  0.0773 -0.0760
 2140W        W18274   7.707  15.486  12.931 -0.0780 -0.1558  0.4162
 2141W        W18275  14.733  16.473  13.299 -0.0571 -0.1750 -0.0895
 2142W        W18276  12.000  13.564  15.362  0.0519  0.3099  0.3058
 2143W        W18277  14.971   7.073   1.848  0.3160  0.0399 -0.3764
 2144W        W18278   8.911  11.159  15.097  0.1303  0.1241  0.1018
 2145W        W18279  10.431   8.915  16.005 -0.3529  0.0612  0.0518
 2146W        W18280  12.335  16.703  12.339 -0.1542  0.1091 -0.2859
 2147W        W18281   5.984   5.388   4.036  0.0607  0.1705 -0.0607
 2148W        W18282  12.637   8.967  15.163  0.0867  0.0825  0.1320
 2149W        W18283   3.317   7.244   4.682  0.1015 -0.1361 -0.2163
 2150W        W18284  17.458   6.168   5.624  0.0621 -0.0656  0.0230
 2151W        W18285   2.439   7.085  14.543  0.0365 -0.0555  0.2211
 2152W        W18286  13.654  12.070   1.743 -0.2836 -0.0612 -0.2021
 2153W        W18287   4.025   8.736   2.408 -0.0809  0.1209 -0.1196
 2154W        W18288   9.793   0.766   3.289  0.1739 -0.0436  0.2712
 2155W        W18289   1.232  10.725   5.192 -0.2573  0.0366  0.3182
 2156W        W18290   2.587  13.978   1.855  0.1460  0.1054 -0.0566
 2157W        W18291   7.614   7.642   1.476 -0.0247  0.1627 -0.0179
 2158W        W18292   3.017   4.902   3.267  0.2651  0.3582  0.2229
 2159W        W18293  13.972   0.447  12.780 -0.1192  0.0514  0.0121
 2160W        W18294  11.884   7.384  12.509 -0.1518  0.3177  0.1503
 2161W        W18295  12.814   9.697   0.432 -0.0407 -0.2376  0.3194
 2162W        W18296   4.709   3.122   4.548  0.0080  0.1483  0.1895
 2163W        W18297  14.174  17.428  16.981  0.0948  0.1721  0.0045
 2164W        W18298  13.248   6.452  16.986  0.0978 -0.0111 -0.1893
 2165W        W18299  10.367   5.295  14.990 -0.3161 -0.1391 -0.6022
 2166W        W18300   0.667  11.115  12.586  0.4160 -0.0005  0.3510
 2167W        W18301  12.207   5.403  16.664  0.0286  0.0884 -0.1716
 2168W        W18302   1.763  12.778   0.036  0.0926 -0.0890  0.1238
 2169W        W18303  17.311   7.281   3.688  0.0251  0.0222  0.0159
 2170W        W18304  14.813   0.858  14.638 -0.0894 -0.2545  0.2645
 2171W        W18305   1.528   6.528   5.833 -0.1604  0.0869 -0.2771
 2172W        W18306  15.444   8.626  16.169  0.2659 -0.0566 -0.0270
 2173W        W18307  16.380  17.329  15.580  0.1623 -0.0627 -0.1738
 2174W        W18308   1.098  10.622  11.164 -0.0775  0.0877  0.1267
 2175W        W18309   5.406   5.745  16.297 -0.0075  0.0244 -0.1150
 2176W        W18310  13.852   4.572  13.958  0.1053  0.0402 -0.2995
 2177W        W18311   0.107  14.332  13.598 -0.1543 -0.1419 -0.1497
 2178W        W18312   1.408   7.706  17.110  0.1952  0.4859 -0.0775
 2179W        W18313   3.020   9.199  12.525  0.2161 -0.1519  0.0415
 2180W        W18314   9.974  17.324   1.595 -0.1345 -0.0022  0.0188
 2181W        W18315   0.191  11.255   1.451 -0.0802  0.0151 -0.4811
 2182W        W18316  11.920   1.215  15.080 -0.0170 -0.1998 -0.1598
 2183W        W18317   0.665   9.052   5.597  0.1279 -0.1929 -0.3490
 2184W        W18318  16.467  11.913  11.602 -0.2112  0.0131  0.2883
 2185W        W18319  10.554  10.484  12.911  0.0847  0.0953 -0.0870
 2186W        W18320   8.130   3.362   5.716  0.1432  0.3096 -0.1552
 2187W        W18321  15.263  14.736  16.519  0.1477 -0.1873 -0.0328
 2188W        W18322   8.940   3.489  14.554 -0.1007  0.1477  0.1548
 2189W        W18323   1.910   1.432  13.589 -0.0934 -0.1372 -0.2216
 2190W        W18324   8.994   7.212  14.698  0.1914 -0.0033 -0.0131
 2191W        W18325  11.158   4.176   5.503 -0.4496 -0.0018  0.1046
 2192W        W18326   2.794   6.303  10.520  0.0246  0.1025 -0.0095
 2193W        W18327   9.456  14.070  12.734  0.0479 -0.1422 -0.0433
 2194W        W18328   7.794  13.001   2.822 -0.1779 -0.0243  0.0410
 2195W        W18329   2.496   0.560  16.823 -0.2592 -0.0613  0.0709
 2196W        W18330   3.585  14.649   4.602  0.2715  0.5092  0.2334
 2197W        W18331  17.137   7.595  12.660 -0.1746 -0.1526 -0.0493
 2198W        W18332  11.740   8.641  11.891  0.0424  0.2103 -0.2485
 2199W        W18333  10.107  15.431   0.720  0.0280  0.3966  0.3347
 2200W        W18334  16.439   3.196  12.890  0.1205  0.1058  0.0174
 2201W        W18335  17.316  11.204  12.268 -0.1091  0.2028  0.2484
 2202W        W18336   5.300   6.619   3.742  0.1154  0.0820  0.0950
 2203W        W18337  10.468  16.514   2.410 -0.3678  0.2349 -0.3461
 2204W        W18338   7.860  12.433   0.026 -0.1070  0.0032 -0.0622
 2205W        W18339   9.286   7.993  15.517 -0.4237  0.1083  0.0348
 2206W        W18340  11.631   8.706  11.171 -0.1115  0.1729  0.1759
 2207W        W18341   6.879  11.050  13.608  0.0599  0.1419  0.1280
 2208W        W18342   6.263   4.387  14.133 -0.0662 -0.3541 -0.1440
 2209W        W18343   4.217  14.586  16.804  0.0149 -0.0021  0.0527
 2210W        W18344   0.787   2.065   0.746  0.0867  0.0452 -0.0842
 2211W        W18345  16.835   9.653  10.800 -0.2483  0.0612  0.2340
 2212W        W18346  16.495   0.584   2.083  0.0576 -0.3363 -0.0385
 2213W        W18347   9.028  16.437  12.986  0.0958  0.0088 -0.0959
 2214W        W18348   7.404   0.004   6.260 -0.0820 -0.1446 -0.1660
 2215W        W18349   4.091   0.062  12.932  0.3903  0.0420  0.2794
 2216W        W18350   9.544  15.193  14.105  0.2810  0.0126 -0.4344
 2217W        W18351   5.116   0.736   4.463 -0.0021  0.2097 -0.0402
 2218W        W18352   0.976  17.067   5.845  0.1011 -0.1873 -0.2135
 2219W        W18353  15.236   4.443   2.752 -0.0695  0.0522  0.0047
 2220W        W18354   9.323  13.613  12.923 -0.1461  0.2548 -0.0127
 2221W        W18355   9.671  12.209   1.700 -0.0257  0.3269  0.1278
 2222W        W18356  13.242   0.733  12.783  0.1887  0.0408  0.2223
 2223W        W18357   7.287  14.996  16.818 -0.1892  0.0234 -0.0295
 2224W        W18358  15.730  11.720   0.483 -0.2672  0.3158  0.0077
 2225W        W18359   0.675   4.916  12.584  0.0482  0.2776 -0.1649
 2226W        W18360   4.803   7.566  13.302 -0.0838 -0.2055  0.3418
 2227W        W18361   9.058  14.018  15.982  0.1604  0.0467 -0.2617
 2228W        W18362  11.922   8.533  14.758 -0.2235  0.0471  0.0633
 2229W        W18363   4.903  11.752   2.686 -0.2032 -0.2405 -0.1875
 2230W        W18364  11.550  16.661  15.356  0.2751  0.1857 -0.1272
 2231W        W18365   4.716   9.284  17.049  0.0029 -0.1541  0.2261
 2232W        W18366  11.837   4.055   2.248 -0.2558 -0.0186 -0.3022
 2233W        W18367   6.640  12.421  14.262  0.0574 -0.1980 -0.0051
 2234W        W18368  14.202   7.069  12.714 -0.0495 -0.0272  0.0396
 2235W        W18369   2.149  14.631   2.566  0.2576  0.0745  0.0915
 2236W        W18370  11.207   9.091  12.491  0.1293 -0.1674  0.1336
 2237W        W18371  15.161   8.251   3.161  0.3676 -0.1919 -0.2789
 2238W        W18372  11.868  17.166   0.137  0.1274 -0.0300  0.1433
 2239W        W18373   4.493   6.608  11.596 -0.0835  0.1219 -0.1044
 2240W        W18374  13.586   8.572   2.619  0.1045 -0.3351 -0.1234
 2241W        W18375   7.651   4.925   1.392  0.1030 -0.0155  0.0592
 2242W        W18376  16.895  17.094  13.506 -0.0692 -0.3581  0.2810
 2243W        W18377   9.678   7.748  15.263  0.3359 -0.0060 -0.0977
 2244W        W18378   7.697   0.540  13.751 -0.0950  0.2615  0.3272
 2245W        W18379  15.331  14.427   1.876  0.0664 -0.1161  0.2234
 2246W        W18380  12.954   2.483  15.135 -0.0072 -0.2107  0.2608
 2247W        W18381  11.424  10.872  16.643  0.2609 -0.0754 -0.0182
 2248W        W18382   3.754  13.627  13.617  0.1108 -0.0283  0.2973
 2249W        W18383  10.872   2.348  13.938 -0.1130  0.4821 -0.0999
 2250W        W18384  13.029   6.598   2.471 -0.1080  0.0456 -0.1903
 2251W        W18385   7.419   1.423  13.073 -0.0864 -0.0536 -0.1712
 2252W        W18386  14.982  12.248  11.768 -0.0382  0.0547  0.6198
 2253W        W18387  17.361   0.225  13.841  0.0828 -0.3696 -0.1349
 2254W        W18388  12.898  15.010  14.563  0.1118 -0.0492  0.1430
 2255W        W18389  17.369  16.348   4.268 -0.0475 -0.0914  0.0928
 2256W        W18390  11.411  16.647  16.719 -0.0600  0.1733  0.1083
 2257W        W18391  15.843  11.292  11.440  0.1606  0.0490 -0.0662
 2258W        W18392  14.055  17.259  15.673  0.1266  0.0697  0.1000
 2259W        W18393  13.571  14.414  11.937  0.2243 -0.2137  0.0433
 2260W        W18394   3.241   0.669  15.228 -0.0380 -0.0280  0.2642
 2261W        W18395  11.277  12.835   4.616 -0.0522 -0.0890 -0.0973
 2262W        W18396   0.437   4.453  14.110  0.1862 -0.0265 -0.1800
 2263W        W18397  15.119   9.548   2.871 -0.0097 -0.0108  0.1480
 2264W        W18398   6.613   7.454   3.756 -0.2240  0.2047  0.3584
 2265W        W18399   3.329   2.160  12.211 -0.0284 -0.1013  0.5042
 2266W        W18400  15.215   8.255  15.534  0.2893  0.0412 -0.1306
 2267W        W18401  15.315  10.750  11.008  0.1176  0.2649  0.1997
 2268W        W18402  10.285  14.871  15.582 -0.1661 -0.1012  0.1511
 2269W        W18403  17.139   0.665  16.772 -0.1359  0.1643 -0.0568
 2270W        W18404  14.559  15.926   4.672 -0.2453  0.0659 -0.1653
 2271W        W18405   6.899  16.847   3.465 -0.0468 -0.0528  0.1513
 2272W        W18406  10.177  10.893  15.488 -0.2353 -0.1093  0.1328
 2273W        W18407   2.331  14.721   4.808  0.2179  0.2395  0.3156
 2274W        W18408  14.321   6.973  16.431 -0.1392  0.1503 -0.3900
 2275W        W18409   6.195   2.234  14.468 -0.2561 -0.2365  0.0380
 2276W        W18410   8.858  17.384   2.573  0.1506 -0.1501 -0.2361
 2277W        W18411  11.509   0.213   2.164  0.3111  0.1021 -0.1603
 2278W        W18412   1.934   4.907   1.576  0.0465  0.0041 -0.3319
 2279W        W18413   5.784   4.704  12.223 -0.1777  0.1316 -0.0965
 2280W        W18414  16.100   3.333   2.485 -0.2709  0.3826  0.0735
 2281W        W18415   1.853  13.977  12.373 -0.3151  0.1973  0.1194
 2282W        W18416   0.826  15.211  14.248  0.1750 -0.1034  0.5075
 2283W        W18417   4.685   7.016   4.942  0.0808 -0.0687  0.0680
 2284W        W18418  10.373   6.592  12.344  0.0011 -0.1772  0.0127
 2285W        W18419  10.419   1.036  11.590 -0.0656  0.1409 -0.0321
 2286W        W18420  16.263  12.825   2.877 -0.1304 -0.0502  0.0714
 2287W        W18421   9.056   0.285  13.477 -0.0945 -0.2060  0.1364
 2288W        W18422   4.299   8.108  12.487  0.0997  0.2746  0.1270
 2289W        W18423   1.820   7.978  15.118 -0.1783  0.0129  0.2613
 2290W        W18424  10.772   7.112   5.234  0.0164 -0.1717 -0.0206
 2291W        W18425   0.412   3.590   1.976 -0.1305  0.1156  0.0077
 2292W        W18426  14.827   3.576  14.600  0.0942 -0.0930 -0.1485
 2293W        W18427   1.188   4.040   0.688  0.1868 -0.0990  0.0225
 2294W        W18428   6.771  16.846   4.138  0.0700  0.1620 -0.1016
 2295W        W18429   2.558  11.540   4.957 -0.1212 -0.1301 -0.0874
 2296W        W18430  11.933  11.292   0.169  0.2441 -0.2700  0.2606
 2297W        W18431   2.210  15.419  14.012 -0.0189  0.1505  0.1732
 2298W        W18432   7.578   5.613   2.726 -0.2272  0.2673  0.2091
 2299W        W18433  10.176  10.158  15.993  0.0055 -0.3487 -0.0288
 2300W        W18434   5.694  12.600   1.705  0.0466 -0.1426 -0.1984
 2301W        W18435  12.261  16.737   2.531 -0.1212  0.2391 -0.1267
 2302W        W18436   9.110   4.250  13.768  0.1309  0.2192 -0.3165
 2303W        W18437  13.265   1.510   0.171  0.3420 -0.0579  0.1796
 2304W        W18438  10.513   0.452  12.866 -0.1135  0.0562  0.0233
 2305W        W18439  13.487  15.308  14.741 -0.2140 -0.2562  0.1560
 2306W        W18440  15.010   0.726   0.207  0.0009  0.0419 -0.0978
 2307W        W18441   9.507   5.096  15.105  0.2900 -0.2438 -0.1660
 2308W        W18442   7.132   1.832  16.751  0.0608 -0.4202 -0.0911
 2309W        W18443   4.254   8.951   1.534 -0.0372  0.0933  0.0828
 2310W        W18444  10.624   3.176   0.364 -0.2891  0.2788  0.0519
 2311W        W18445  13.594   0.548  12.370  0.2532 -0.2041 -0.1427
 2312W        W18446  12.649   9.822  14.086 -0.2569  0.0709  0.3746
 2313W        W18447   9.845  11.115   4.159 -0.3668  0.0876 -0.0835
 2314W        W18448   7.827  10.093   1.177 -0.0499 -0.1017 -0.0905
 2315W        W18449   7.646  10.511  11.331 -0.5302  0.1699 -0.2153
 2316W        W18450   8.579   0.364   0.568  0.0418  0.1926  0.1319
 2317W        W18451   0.149  14.516  12.633  0.2202  0.1490 -0.1725
 2318W        W18452  10.615  13.422  12.396 -0.1473  0.1235  0.3271
 2319W        W18453   7.100  10.450  14.119 -0.0472 -0.0626 -0.0257
 2320W        W18454   2.437  13.364  14.969  0.1484 -0.1362 -0.0496
 2321W        W18455   0.302   9.507   5.607 -0.1384  0.0365  0.1619
 2322W        W18456   0.439   7.096   4.892 -0.0735 -0.2164 -0.1944
 2323W        W18457   6.129  11.362   4.284 -0.1952 -0.0714  0.3707
 2324W        W18458  15.262  10.452   2.400  0.0065 -0.0119  0.0479
 2325W        W18459  16.819  15.399  14.789 -0.1758  0.2584 -0.6726
 2326W        W18460  15.679  12.318  12.993 -0.1611  0.0438  0.0362
 2327W        W18461   5.584  16.257   2.684 -0.0593  0.0886 -0.1644
 2328W        W18462  14.294   0.670   5.706  0.1051  0.1947 -0.0529
 2329W        W18463   6.874   2.678  15.181  0.0175 -0.1124 -0.0027
 2330W        W18464  11.957   9.822   2.468  0.1449  0.1239  0.1298
 2331W        W18465  11.999  17.561  14.472  0.0977 -0.3033 -0.2903
 2332W        W18466   9.284   0.852   5.210 -0.0427  0.0365  0.0110
 2333W        W18467   1.552   9.217  13.102  0.1886 -0.0746 -0.2611
 2334W        W18468   1.047   3.792   6.105 -0.0811  0.2831 -0.1006
 2335W        W18469  13.425  15.968   1.685 -0.1312  0.1554 -0.0131
 2336W        W18470  17.319   6.493   1.969  0.1931  0.1496  0.0782
 2337W        W18471  14.614  16.229   5.949 -0.1193 -0.1643 -0.2204
 2338W        W18472   8.063  14.310  13.568 -0.0076  0.0664 -0.0623
 2339W        W18473   2.698  15.732  14.882  0.1121  0.0830 -0.1385
 2340W        W18474  13.942   0.408   5.977  0.0945 -0.2255 -0.0389
 2341W        W18475   3.416  13.696   0.107 -0.2313 -0.0145 -0.0062
 2342W        W18476  13.088   4.385  11.313 -0.0408  0.1442  0.1131
 2343W        W18477  17.048   7.426  11.836 -0.2515  0.0608 -0.0531
 2344W        W18478  16.515   8.980  14.803 -0.3598 -0.0460 -0.1189
 2345W        W18479   9.487  16.524  12.820 -0.2916 -0.0913  0.1860
 2346W        W18480   3.343   2.454   3.980  0.1997  0.0856  0.0314
 2347W        W18481   2.687   7.027  17.003  0.2151 -0.1277 -0.1866
 2348W        W18482   2.548  11.712   2.604  0.0319  0.2464  0.3979
 2349W        W18483  13.539  11.897   5.411 -0.0657  0.0316 -0.0815
 2350W        W18484  12.071   6.851  15.590  0.0602 -0.0450  0.1332
 2351W        W18485  11.242  16.071   4.527  0.4725  0.1922  0.2598
 2352W        W18486  14.059   2.444  14.562  0.1555  0.3849 -0.2884
 2353W        W18487   1.444  14.645   5.562  0.1084  0.3997 -0.0978
 2354W        W18488   6.337  16.716   3.588  0.0649  0.0664  0.0381
 2355W        W18489  10.575   3.450   3.537 -0.0249 -0.0126 -0.0561
 2356W        W18490  14.562   1.089   4.070  0.2029 -0.0176  0.0772
 2357W        W18491  11.371   3.022  16.860  0.1492 -0.2727 -0.0633
 2358W        W18492  14.282  13.061   0.982  0.0022  0.2422  0.1907
 2359W        W18493   0.998  14.941  16.802 -0.2335 -0.1785  0.0640
 2360W        W18494  13.810   7.353  17.015  0.3356 -0.0934  0.0789
 2361W        W18495   3.450   1.501  16.649  0.0339 -0.3506 -0.1515
 2362W        W18496   8.282   1.031   3.826  0.0922  0.1253 -0.2554
 2363W        W18497   0.223   4.930  16.747  0.2746  0.0379  0.4184
 2364W        W18498   4.454  14.384   1.008  0.1879  0.1879  0.2522
 2365W        W18499  10.829   2.913  13.212 -0.3557  0.1154 -0.0307
 2366W        W18500  11.462   0.926   2.161 -0.1920  0.1015  0.0762
 2367W        W18501  17.051   5.452  15.429  0.0655 -0.2651  0.3144
 2368W        W18502  13.759   5.266   4.391  0.1920  0.2960 -0.3019
 2369W        W18503  11.974  11.380  16.840 -0.1080  0.0237  0.1410
 2370W        W18504  12.041   8.897   3.395 -0.1341  0.0732 -0.0507
 2371W        W18505   9.328   6.444   2.968  0.2714 -0.1461 -0.2765
 2372W        W18506  10.202   4.895  13.678 -0.1419  0.1308  0.0312
 2373W        W18507  10.140   2.216   1.319 -0.0339 -0.2616 -0.0499
 2374W        W18508   7.859  11.202   5.217 -0.0403 -0.0128 -0.1208
 2375W        W18509  16.642  11.220   3.233 -0.3192 -0.1016  0.0441
 2376W        W18510  12.450   2.401   6.343  0.0096  0.3756  0.0821
 2377W        W18511  16.321   4.226  12.936 -0.1084  0.0657 -0.2521
 2378W        W18512  17.488   8.472  12.593  0.0048 -0.2135  0.0278
 2379W        W18513   4.161  10.911  15.101 -0.0345  0.0901 -0.3119
 2380W        W18514   9.354  13.298  12.483 -0.1038  0.1456  0.1925
 2381W        W18515  16.049  15.822  12.646  0.1693 -0.0836  0.0379
 2382W        W18516   8.405   4.591  14.943  0.1084  0.2159 -0.0527
 2383W        W18517   4.247  17.205  12.910 -0.2334  0.1798  0.2513
 2384W        W18518  17.028   4.844   4.773  0.0090 -0.2620  0.0381
 2385W        W18519  15.459  10.342   0.235 -0.2897  0.0226  0.0901
 2386W        W18520  13.936   6.848   3.949  0.0043 -0.0996 -0.0918
 2387W        W18521  15.712  10.178   5.078 -0.0437 -0.1545 -0.2107
 2388W        W18522  14.918  10.793  16.283  0.1748  0.2963  0.0191
 2389W        W18523   3.818   0.545  12.925 -0.1062 -0.1284  0.0843
 2390W        W18524   5.886  13.354  11.974 -0.1781  0.2931 -0.1895
 2391W        W18525  15.072   8.759   4.914 -0.1779  0.2813  0.1125
 2392W        W18526   8.858  11.268  12.710  0.0472  0.2311 -0.2471
 2393W        W18527   7.274   3.700   5.473 -0.1240 -0.1778 -0.1730
 2394W        W18528   2.688   8.756  14.203 -0.1708 -0.2274  0.1474
 2395W        W18529  13.081  12.168  12.223  0.0743  0.0886 -0.1980
 2396W        W18530   2.038  14.735   2.078  0.0219 -0.0679  0.2661
 2397W        W18531  14.987   1.161   5.936 -0.2067 -0.1284  0.1186
 2398W        W18532   8.160  17.655  15.506 -0.1427  0.1344 -0.0076
 2399W        W18533   8.758   6.612  14.576 -0.1215  0.1485 -0.1082
 2400W        W18534   9.793  14.983  15.444  0.1412  0.1066 -0.2724
 2401W        W18535  15.569   1.213   1.869  0.0255 -0.0251  0.1123
 2402W        W18536   4.188  14.849   0.829  0.0636 -0.0116  0.0210
 2403W        W18537   9.571  11.271  14.965  0.0870 -0.0897  0.3854
 2404W        W18538   8.693  17.653   1.739 -0.2422 -0.1003  0.2250
 2405W        W18539  14.270   5.951  11.690  0.0799  0.0346 -0.0764
 2406W        W18540   3.268  13.922  12.529 -0.1938  0.0367 -0.0780
 2407W        W18541   1.450   1.662  14.786  0.2851 -0.0414  0.0945
 2408W        W18542   6.480  11.684   5.750 -0.1657 -0.0113  0.0222
 2409W        W18543  16.276   4.653   5.858 -0.0463  0.2210 -0.0659
 2410W        W18544  13.340  10.531   0.451  0.1941  0.0855  0.2397
 2411W        W18545   4.003   6.870  15.818  0.0481 -0.0453  0.0882
 2412W        W18546  13.338  16.704   2.297  0.0380 -0.0708  0.2741
 2413W        W18547   6.689   1.820   5.294  0.0308  0.1466 -0.1713
 2414W        W18548   4.575   8.449  14.264  0.0434 -0.2187  0.2489
 2415W        W18549   3.955   7.842   4.403  0.1528  0.1058 -0.0336
 2416W        W18550   5.875  10.476   4.579 -0.0889 -0.0534  0.2507
 2417W        W18551   7.509   5.389  12.726 -0.3057 -0.0424  0.0127
 2418W        W18552   2.337   2.461  16.463  0.1570 -0.0041  0.1669
 2419W        W18553   9.123  10.031  12.237  0.2269 -0.1122 -0.3474
 2420W        W18554  16.343  13.073   4.269 -0.1105  0.0029  0.0890
 2421W        W18555  10.211   0.296  15.730 -0.1717 -0.0311  0.0199
 2422W        W18556   5.050   8.857   4.517 -0.0148 -0.1622  0.3188
 2423W        W18557   0.749  14.867  13.294 -0.1365  0.0733 -0.0759
 2424W        W18558  10.101   4.370  14.030 -0.0988 -0.3447 -0.1156
 2425W        W18559   8.994   4.674  11.695 -0.1330  0.1324 -0.1594
 2426W        W18560   4.284  16.662  13.564  0.1797  0.0945 -0.0573
 2427W        W18561   5.882   8.959  12.518 -0.0018 -0.1158 -0.1316
 2428W        W18562  13.760  14.230  14.660 -0.0173 -0.1723 -0.0155
 2429W        W18563   1.824  15.848  14.957  0.1298  0.2164  0.1245
 2430W        W18564   7.987   4.215   0.205 -0.0752 -0.0581 -0.0417
 2431W        W18565  16.930  13.560   3.685 -0.2502  0.2324 -0.0268
 2432W        W18566  11.030  13.057   0.679  0.1169 -0.2722  0.2295
 2433W        W18567  17.174   2.794   4.271  0.0749 -0.0326 -0.0213
 2434W        W18568  12.709  12.656  13.221  0.0968 -0.0564 -0.0838
 2435W        W18569  11.786   6.552  13.479 -0.0692  0.0653 -0.1157
 2436W        W18570   2.304   7.621  12.756 -0.4019 -0.0349 -0.0043
 2437W        W18571   7.568  16.433   0.981 -0.1755 -0.2101  0.2036
 2438W        W18572  15.908  10.788   4.038 -0.0664 -0.0090 -0.2806
 2439W        W18573   9.220   6.821   4.890  0.2458  0.0624  0.1660
 2440W        W18574  10.513   0.944   4.691 -0.1081  0.0148  0.1932
 2441W        W18575   2.916   6.370   1.773  0.0351 -0.2343 -0.1064
 2442W        W18576   7.370  14.205   2.036  0.1549 -0.3224  0.0526
 2443W        W18577   6.112  11.382   2.046  0.1851 -0.0262 -0.1134
 2444W        W18578   9.684   5.966  11.915  0.3321 -0.0472  0.0510
 2445W        W18579  15.560  13.476   6.443 -0.1212 -0.1021  0.0047
 2446W        W18580   0.178  13.833   4.458  0.1628 -0.0702 -0.1712
 2447W        W18581   7.602  13.982   0.547 -0.2795 -0.1294 -0.0105
 2448W        W18582   9.040  10.346   5.726 -0.2537  0.4183  0.1452
 2449W        W18583  15.804   4.234   4.546 -0.1785  0.0690  0.0198
 2450W        W18584   9.594   8.206   3.770 -0.2929  0.2141  0.1242
 2451W        W18585  10.971   4.926   1.907  0.1625 -0.0800  0.0706
 2452W        W18586   4.725  15.438   4.087  0.2545 -0.1499  0.2192
 2453W        W18587   0.892  10.978  13.019  0.1815  0.0773  0.2856
 2454W        W18588  17.021   7.893  12.070  0.0135  0.0626  0.2211
 2455W        W18589   6.102   0.599   0.792  0.0985 -0.2343 -0.1603
 2456W        W18590   3.156   7.341   3.581 -0.2323 -0.0032  0.0273
 2457W        W18591   1.113  17.309  14.769 -0.1815  0.0611  0.0845
 2458W        W18592  17.311  17.608   1.269  0.0413 -0.0057 -0.0415
 2459W        W18593   8.104  17.470  17.147  0.0356  0.1638  0.0325
 2460W        W18594   2.634   2.014  11.683  0.3226  0.1637  0.2317
 2461W        W18595  10.884   3.259  12.809  0.0981 -0.1696  0.1551
 2462W        W18596  10.349   8.395   3.072  0.1293  0.0341 -0.0522
 2463W        W18597   9.383   3.035   4.238 -0.2528  0.0100 -0.1528
 2464W        W18598  10.934   8.408   3.835 -0.1546  0.0287  0.0777
 2465W        W18599   2.500  17.389  16.284 -0.0207 -0.1044 -0.1001
 2466W        W18600  11.445   3.680  13.020  0.1416 -0.2703 -0.1715
 2467W        W18601   7.305   0.559   4.687  0.0898  0.2219 -0.0173
 2468W        W18602   5.087   5.286  14.998  0.0613 -0.2939  0.1311
 2469W        W18603  10.255   0.233  13.761  0.1012 -0.2029  0.5376
 2470W        W18604  12.587  12.510   1.010  0.0050 -0.0049 -0.0402
 2471W        W18605  10.993   1.759   3.822 -0.1297  0.0841 -0.3358
 2472W        W18606  10.078  16.039   0.193 -0.1027  0.0834 -0.2061
 2473W        W18607   3.617   6.667   0.979  0.0798  0.1046 -0.0467
 2474W        W18608  17.083   3.698  16.253  0.0199 -0.1361  0.1228
 2475W        W18609  17.637   1.773   3.122  0.1829  0.0868 -0.2079
 2476W        W18610   6.956  12.163  15.637  0.0035  0.0242  0.1636
 2477W        W18611   5.732   8.185  11.865 -0.1896 -0.0741  0.5411
 2478W        W18612   3.998   6.824  16.335  0.1008  0.2877  0.2692
 2479W        W18613  16.360  10.565   0.524  0.2335  0.1638 -0.0843
 2480W        W18614  14.082  10.278   1.256  0.2655 -0.0235 -0.0133
 2481W        W18615  13.746   9.251  14.000 -0.0859 -0.1834 -0.0440
 2482W        W18616   3.312  13.831   5.012  0.1245 -0.1983  0.0071
 2483W        W18617  15.326  12.155   2.559  0.2080  0.3868  0.1037
 2484W        W18618   7.378  15.860   1.834  0.1005 -0.2081 -0.0602
 2485W        W18619   4.697  10.609   0.706 -0.0888  0.1796 -0.1878
 2486W        W18620  12.250   8.342   3.895 -0.1028 -0.0026 -0.0466
 2487W        W18621   9.271  10.518   6.150 -0.1496  0.0023  0.3293
 2488W        W18622   9.124   8.300   1.018 -0.1658  0.0584 -0.0135
 2489W        W18623  14.646  15.102   3.429 -0.1327  0.4129  0.2070
 2490W        W18624   2.575   5.819  14.404 -0.1750 -0.0517 -0.1134
 2491W        W18625   5.611   3.289   0.666  0.0926 -0.2173 -0.1054
 2492W        W18626   1.634  12.786   3.515  0.0738  0.1191 -0.0882
 2493W        W18627  14.966  16.465  15.162  0.2464 -0.0648 -0.0180
 2494W        W18628   9.924  15.196   2.067  0.2540 -0.1046 -0.2496
 2495W        W18629  10.324  12.555  13.848 -0.0118 -0.2944  0.2084
 2496W        W18630   2.886   6.492   6.268 -0.1586 -0.2165  0.3506
 2497W        W18631  16.461  14.777   2.144 -0.0315  0.0128 -0.2395
 2498W        W18632   5.584  10.248   2.061  0.1719 -0.2246  0.3156
 2499W        W18633  13.432  15.859   5.640 -0.0673  0.0837  0.0454
 2500W        W18634  15.821   5.399  11.932  0.1036  0.2200  0.0737
 2501W        W18635  16.759  12.165   3.524  0.0861  0.2234  0.0197
 2502W        W18636   7.767  15.853   4.916 -0.0232  0.0354  0.2819
 2503W        W18637  17.600   3.676  16.891 -0.0714 -0.0840 -0.0087
 2504W        W18638   0.114  15.138   3.608 -0.0991  0.0746 -0.2138
 2505W        W18639  13.915   5.296  14.520 -0.0286  0.0393 -0.0254
 2506W        W18640  12.865   9.028  11.704 -0.0711 -0.2370  0.1526
 2507W        W18641   1.962  11.805  10.507 -0.3181 -0.0753 -0.2434
 2508W        W18642   3.125   2.598  12.087  0.0914 -0.3411  0.1601
 2509W        W18643  15.989  13.730   1.415 -0.0395  0.2029  0.1415
 2510W        W18644   6.182  15.149   1.487  0.0062  0.1035 -0.2085
 2511W        W18645   9.634   5.434  12.795  0.2724  0.2590 -0.1531
 2512W        W18646  16.648   2.127  17.008  0.1910  0.1980 -0.1055
 2513W        W18647  12.343  15.096   0.829 -0.1788 -0.0225 -0.1975
 2514W        W18648   0.210   1.290   6.759 -0.0965 -0.2993 -0.2562
 2515W        W18649   2.755   9.595   4.468 -0.0610 -0.1465 -0.0040
 2516W        W18650   9.948   4.372  15.819  0.0373 -0.5912  0.0186
 2517W        W18651  13.600   3.599   6.040 -0.4125 -0.0203 -0.1359
 2518W        W18652  14.026  14.204  14.168  0.2574  0.2014  0.0444
 2519W        W18653   8.872   8.145  13.595 -0.0021 -0.1151 -0.0477
 2520W        W18654   9.305  16.705   4.389  0.0181 -0.0419 -0.0421
 2521W        W18655  11.950   6.840  16.500  0.0102  0.0925 -0.0635
 2522W        W18656   1.510   1.646   0.044  0.2046 -0.0644  0.0908
 2523W        W18657  11.519  12.989   0.496  0.0101  0.0552 -0.2167
 2524W        W18658   9.992   7.074  16.439 -0.0988 -0.2179  0.1523
 2525W        W18659   2.306  10.242   4.202 -0.0949  0.1932  0.1570
 2526W        W18660  16.520   1.149   1.434 -0.0718 -0.3289 -0.1289
 2527W        W18661  14.486  13.879   0.246 -0.2247 -0.0005 -0.0144
 2528W        W18662  11.316  10.144  15.542 -0.0476 -0.1096  0.1213
 2529W        W18663   1.318  16.822  13.034 -0.1250  0.0351 -0.1457
 2530W        W18664  16.959   4.855   1.432  0.0876 -0.2040  0.3275
 2531W        W18665   1.327   9.510   5.694 -0.1213 -0.0482 -0.2005
 2532W        W18666   2.493   7.404   5.545  0.0321  0.1962  0.1684
 2533W        W18667  13.137  11.544   3.617 -0.0751 -0.0950 -0.3597
 2534W        W18668   0.257   8.565  14.191  0.3528 -0.0337 -0.0287
 2535W        W18669   4.724  13.216   3.893 -0.0334 -0.0868 -0.0789
 2536W        W18670   2.360   6.984  11.600  0.3401 -0.0711 -0.4369
 2537W        W18671   5.065  15.643  13.197  0.2627  0.0646  0.2493
 2538W        W18672   1.264   8.045  16.663 -0.0594 -0.0305  0.0323
 2539W        W18673   1.956   7.218   0.701 -0.0220  0.0897  0.0994
 2540W        W18674   7.967   5.661  13.365 -0.0754 -0.1717 -0.1100
 2541W        W18675  10.252  15.725  15.934 -0.1903  0.0805 -0.1585
 2542W        W18676   3.304  15.469   1.052 -0.0402 -0.2703  0.1429
 2543W        W18677   4.339   3.967   1.001  0.2111  0.1632  0.1009
 2544W        W18678  16.142  10.572  13.120  0.0793 -0.0817 -0.0096
 2545W        W18679   7.861   5.203   2.699 -0.0781 -0.0118  0.0260
 2546W        W18680   1.388  13.420   1.540 -0.1557  0.2380 -0.1648
 2547W        W18681  11.926   6.480  15.237 -0.2885 -0.2935  0.1429
 2548W        W18682   7.579   6.116  11.912  0.0112  0.0445  0.3396
 2549W        W18683  11.405   9.882   2.587  0.0385 -0.0807 -0.0185
 2550W        W18684  15.150   6.099   2.140 -0.0030  0.0751 -0.2995
 2551W        W18685   3.897  10.248   4.960 -0.0015  0.1288  0.2669
 2552W        W18686   3.250  13.911   1.016 -0.1971 -0.2966 -0.2451
 2553W        W18687   5.551   0.430  15.091 -0.0337  0.0084  0.0787
 2554W        W18688  12.724   8.376  15.428 -0.2069 -0.2688  0.1432
 2555W        W18689  17.517  10.947   1.130  0.1065 -0.2068 -0.0200
 2556W        W18690   4.154  14.773  14.618 -0.1541 -0.1191  0.1179
 2557W        W18691  10.629   7.778  13.718  0.0156 -0.4200  0.0468
 2558W        W18692  11.338   7.973   1.924  0.0174  0.0798  0.0035
 2559W        W18693  12.867  13.050  13.534  0.2147  0.2439 -0.2107
 2560W        W18694   6.266   8.514  16.810 -0.1249  0.0919  0.0974
 2561W        W18695  15.819   7.137  15.608  0.1263 -0.0387  0.0420
 2562W        W18696  14.222  13.322  12.306  0.2971  0.0523 -0.0755
 2563W        W18697  12.800  12.307   0.399 -0.2289 -0.0864 -0.2707
 2564W        W18698  15.623   4.457  16.003  0.0328 -0.2356 -0.1396
 2565W        W18699  16.401   0.667  12.107  0.0101  0.2519 -0.0699
 2566W        W18700   1.014   6.136   0.576  0.0322 -0.0992 -0.0073
 2567W        W18701   1.495  16.817   1.843  0.2986 -0.0896 -0.1343
 2568W        W18702   8.639  16.889  14.884  0.2732  0.0905  0.2684
 2569W        W18703   5.051  14.715  16.243  0.1479  0.0176 -0.1022
 2570W        W18704  15.177  11.608   0.315 -0.0002 -0.0604  0.0208
 2571W        W18705  12.172  15.880   1.950  0.2344  0.0484  0.1215
 2572W        W18706  15.607  16.683   5.566  0.0053 -0.1097  0.1240
 2573W        W18707   4.656  12.136   2.454  0.3506 -0.1959  0.0990
 2574W        W18708   3.740  17.300  13.012  0.1366 -0.0597  0.2639
 2575W        W18709   3.418   1.457  12.674  0.1538  0.1508  0.2854
 2576W        W18710   7.125  15.436  12.248 -0.1271  0.1094  0.0245
 2577W        W18711   2.298   9.433   4.371 -0.0726 -0.1030  0.0807
 2578W        W18712  17.548   1.374   4.375  0.1187 -0.0868  0.0861
 2579W        W18713  12.655  11.548   5.677 -0.2294  0.1255  0.1441
 2580W        W18714  14.885   1.826  13.882  0.0271  0.0522  0.2627
 2581W        W18715  11.122  13.968   3.849 -0.0251 -0.0198  0.0259
 2582W        W18716   5.675  16.935  16.334 -0.1370  0.0917  0.0116
 2583W        W18717  10.512   6.495  16.849 -0.2306 -0.1602 -0.0088
 2584W        W18718   8.175   4.801   3.585  0.0090  0.0156  0.2086
 2585W        W18719  13.551   8.326   5.948 -0.1179 -0.1519  0.0509
 2586W        W18720  16.013   9.370  17.146  0.0501 -0.2838 -0.0405
 2587W        W18721   0.277  13.284  13.098  0.0002  0.1623 -0.3055
 2588W        W18722   9.099  15.081  17.091 -0.2591 -0.1882  0.1652
 2589W        W18723  12.625  15.431   4.673  0.0359  0.2296 -0.2392
 2590W        W18724  10.611  11.318  16.538 -0.2057  0.1915  0.0590
 2591W        W18725   0.491   5.122   3.778 -0.1578  0.3094 -0.0307
 2592W        W18726   8.833  11.810   5.893 -0.1405  0.3534  0.0622
 2593W        W18727  13.529  15.052   4.941 -0.1470 -0.1334 -0.1153
 2594W        W18728  16.120  12.047   0.553  0.1038  0.1720  0.0733
 2595W        W18729   6.472  16.469   4.016  0.2901  0.2033  0.1413
 2596W        W18730  15.721  15.004  15.189 -0.0158 -0.1289 -0.2566
 2597W        W18731   8.574  12.901   5.471  0.3612  0.0423 -0.2894
 2598W        W18732   5.291   4.798   1.893 -0.1657  0.2195  0.1395
 2599W        W18733   2.591  12.404   6.041  0.1857  0.2443 -0.3339
 2600W        W18734   6.053   0.991   0.228  0.1757 -0.1173  0.1253
 2601W        W18735  12.626  17.454  15.282 -0.1781  0.1093  0.0073
 2602W        W18736   9.184  14.823  12.139  0.1661  0.1335  0.1355
 2603W        W18737   2.729   4.011   3.145  0.0047  0.0165 -0.0224
 2604W        W18738   9.589  12.997  15.953 -0.0966  0.0605  0.0325
 2605W        W18739  15.948   0.434   3.619 -0.1558  0.1664  0.0648
 2606W        W18740  11.448  15.358   4.211 -0.1177 -0.0847 -0.1429
 2607W        W18741  12.720   1.903  12.122 -0.1258 -0.1957 -0.2092
 2608W        W18742  14.193   8.938   0.658  0.1748 -0.1067  0.2938
 2609W        W18743  11.051  11.959  13.791 -0.3433 -0.3060 -0.0906
 2610W        W18744  17.421  15.904   1.957  0.0050 -0.1484 -0.0055
 2611W        W18745   5.273  10.954  14.409 -0.0698 -0.3148  0.2213
 2612W        W18746  12.148  11.092   2.798  0.1519 -0.0388 -0.1457
 2613W        W18747   8.397   6.773  12.335  0.3566 -0.2441 -0.1654
 2614W        W18748   6.789  16.694  14.831  0.1722  0.1560  0.0485
 2615W        W18749   8.146  10.538   5.875 -0.2077  0.0472 -0.5557
 2616W        W18750   7.886   2.996   2.895 -0.2610  0.1359 -0.0454
 2617W        W18751   6.734  11.488  16.126  0.1939 -0.3424 -0.1135
 2618W        W18752   0.848   3.105   0.742 -0.0124 -0.1902 -0.0195
 2619W        W18753  12.156   9.101  16.521  0.3659  0.2177  0.6984
 2620W        W18754   7.698  12.306  12.548 -0.1340 -0.0071  0.0098
 2621W        W18755  13.161   7.467  14.888  0.2836  0.0404  0.2494
 2622W        W18756   8.600   8.934   6.107  0.0143  0.3285 -0.0660
 2623W        W18757   2.482  13.171   5.562  0.0846  0.2035 -0.1795
 2624W        W18758   2.444   7.798   5.985 -0.2149  0.0365 -0.1024
 2625W        W18759   4.171  11.446  16.028  0.0936 -0.2219 -0.0898
 2626W        W18760  14.695  16.574  15.588  0.2271 -0.0433 -0.1188
 2627W        W18761  11.661  14.179   3.655 -0.1011  0.0323  0.0857
 2628W        W18762   3.787  10.519   3.022  0.1738  0.0953 -0.2158
 2629W        W18763   2.147   3.591  14.499  0.0726  0.0358 -0.0411
 2630W        W18764   2.260   4.205   3.222  0.1458 -0.0225  0.0562
 2631W        W18765   9.006   0.170   0.392  0.2278 -0.2244 -0.0042
 2632W        W18766   1.317  11.156   0.953 -0.2477  0.0758 -0.0833
 2633W        W18767   7.577   5.422  13.233  0.1887  0.1138  0.1207
 2634W        W18768   1.639   3.944   0.476 -0.0538 -0.3641 -0.0590
 2635W        W18769   1.028  14.384   2.778  0.3288  0.1878 -0.0521
 2636W        W18770   2.369   8.417   0.095 -0.1193  0.3188 -0.0525
 2637W        W18771   0.538  14.553   0.623  0.0180 -0.2340  0.1213
 2638W        W18772  15.424  11.696  16.303 -0.1836  0.0985 -0.0270
 2639W        W18773   5.607   2.165  12.459 -0.1087 -0.1897  0.2230
 2640W        W18774   7.311  16.665  14.636  0.0563  0.4318 -0.1388
 2641W        W18775   7.808  10.314  16.395 -0.1667  0.1622 -0.3639
 2642W        W18776  11.594   0.439  11.847 -0.0157  0.0570 -0.0190
 2643W        W18777   5.437   6.861  13.367 -0.1675 -0.0060 -0.0935
 2644W        W18778   9.026  13.964  13.087 -0.1010 -0.0579 -0.1280
 2645W        W18779   4.252  15.752   3.449 -0.3836 -0.1311  0.0438
 2646W        W18780  16.452   5.246  13.758  0.0942 -0.1148  0.1733
 2647W        W18781  17.450   5.381   3.097  0.1114  0.1579  0.2931
 2648W        W18782  13.976   3.601  12.698  0.2433  0.1367  0.0800
 2649W        W18783  15.591   5.646   2.714 -0.2393  0.2840  0.0249
 2650W        W18784   1.485   2.938   3.650  0.1900 -0.0789  0.4162
 2651W        W18785   8.961   6.730   5.294  0.1502 -0.3292  0.0563
 2652W        W18786   1.021   7.124   1.260 -0.0638  0.2003  0.2513
 2653W        W18787  11.079  16.171   3.024  0.0237  0.0224  0.0822
 2654W        W18788  13.555   0.228  16.221 -0.1868  0.2526  0.0430
 2655W        W18789   6.184   2.269   0.963  0.0081 -0.0020  0.2954
 2656W        W18790  10.775  11.526   3.732 -0.0624  0.2199  0.2300
 2657W        W18791   1.166  16.534   3.047  0.1167  0.0039 -0.1507
 2658W        W18792   4.368  16.342  16.317 -0.2815  0.1296 -0.3259
 2659W        W18793  17.168   2.474   2.455 -0.0774 -0.2207 -0.3076
 2660W        W18794   3.645   7.434  12.880 -0.1835 -0.0206 -0.0311
 2661W        W18795   7.664   6.215   1.965 -0.1605  0.1003  0.0995
 2662W        W18796  12.898   5.952   5.183 -0.0536 -0.1912 -0.1468
 2663W        W18797   1.883  11.984  15.906  0.2785  0.0270 -0.3636
 2664W        W18798   9.038   1.978  15.851  0.2650  0.3968 -0.0105
 2665W        W18799  11.173  14.174   4.308 -0.3010  0.2284 -0.0735
 2666W        W18800  11.357  14.260   0.829  0.3783  0.1056  0.1728
 2667W        W18801  14.009  11.851   1.998  0.1233 -0.0667 -0.3037
 2668W        W18802  15.383   0.992  16.617 -0.0265  0.0683 -0.1823
 2669W        W18803  17.367   4.831  12.528 -0.1012  0.3820  0.3419
 2670W        W18804   8.550   4.370  12.217 -0.0524 -0.1396  0.2469
 2671W        W18805   2.288   2.041   5.648 -0.1666  0.2383  0.2037
 2672W        W18806   5.747  17.459   0.697  0.0136  0.1901  0.1564
 2673W        W18807   0.025   9.565   6.052 -0.0183  0.2436 -0.1333
 2674W        W18808  13.444   2.225  15.772 -0.0846 -0.1186  0.0889
 2675W        W18809  14.730   8.943  12.339 -0.2032 -0.2517 -0.1893
 2676W        W18810   7.701  16.374   4.591  0.0233  0.0342 -0.1123
 2677W        W18811  16.860  13.464  12.077  0.2647 -0.0832  0.0797
 2678W        W18812  17.509  11.878  13.792 -0.1013 -0.1045  0.1373
 2679W        W18813  11.019   9.613  15.750  0.0251  0.1136 -0.0617
 2680W        W18814  17.383   2.082  17.108 -0.1051 -0.5345 -0.1446
 2681W        W18815  17.626  10.275   5.093 -0.0508 -0.1714  0.3204
 2682W        W18816  11.082  15.959  15.410  0.0837  0.1566 -0.0644
 2683W        W18817  13.427  11.781  15.541 -0.0312 -0.1549  0.2599
 2684W        W18818   8.181   4.231  13.566  0.4116 -0.1477 -0.2755
 2685W        W18819  12.347  13.513   5.798  0.2475  0.0342  0.0101
 2686W        W18820   1.408   0.791  13.417  0.2064  0.0036 -0.0521
 2687W        W18821  17.577   7.868  13.802 -0.3686  0.1274 -0.0959
 2688W        W18822   8.807  11.084   3.284  0.0194 -0.0507  0.1224
 2689W        W18823   0.259   2.317   2.461 -0.0461 -0.0333  0.0571
 2690W        W18824   3.107  14.406   2.701 -0.1812 -0.2098  0.5898
 2691W        W18825  12.021  12.917   6.124  0.1329 -0.0792 -0.1065
 2692W        W18826   2.579   5.613   2.061  0.0329 -0.3581  0.1641
 2693W        W18827   8.415  10.126   0.427 -0.1527 -0.0262 -0.3530
 2694W        W18828   2.458  16.876   5.857 -0.2221 -0.0916  0.1225
 2695W        W18829   6.367  16.235  12.458 -0.0500  0.1900  0.3293
 2696W        W18830   9.617   0.931  16.209 -0.1417  0.1361  0.1257
 2697W        W18831   5.548   8.202   6.358 -0.1646  0.2045 -0.2894
 2698W        W18832   0.796   6.129  16.138  0.0284  0.0688 -0.0700
 2699W        W18833   1.954   2.420   5.519  0.1473  0.0659 -0.0956
 2700W        W18834   1.313   8.797  11.717 -0.1858 -0.3101  0.0055
 2701W        W18835   7.242   3.423  12.627 -0.0642 -0.2808 -0.1318
 2702W        W18836   0.247  16.753   5.329 -0.1386 -0.2525 -0.2020
 2703W        W18837   6.780   6.129   4.619  0.1223  0.0220  0.2001
 2704W        W18838  11.344   2.407  16.771  0.0312 -0.0363 -0.2301
 2705W        W18839   1.143   3.121  16.635 -0.0353  0.0846 -0.1530
 2706W        W18840  10.075  14.481  12.605  0.2299  0.4736  0.1094
 2707W        W18841   3.814  13.369   0.056  0.1507  0.3896 -0.0289
 2708W        W18842   6.472   5.175  10.746 -0.5077  0.1409 -0.1988
 2709W        W18843  16.039  16.583  15.867  0.1923  0.1726  0.1490
 2710W        W18844  13.504   4.091   4.083 -0.0467  0.1955  0.4938
 2711W        W18845   6.276   5.567  16.389  0.3809  0.0439 -0.1064
 2712W        W18846  10.534  12.381   2.455  0.4970  0.0264  0.1036
 2713W        W18847   7.199   2.321   0.038  0.1076  0.2876  0.2168
 2714W        W18848   6.113   9.134  15.384 -0.1522  0.0792 -0.0133
 2715W        W18849   9.623   7.479  15.712 -0.1020 -0.0450  0.0549
 2716W        W18850   4.040  11.646   0.576  0.3370 -0.0405 -0.0271
 2717W        W18851   7.610   8.175   5.125 -0.1567 -0.2051 -0.2452
 2718W        W18852  10.867  17.080  15.804  0.0199 -0.0283 -0.2022
 2719W        W18853   0.909  14.222   0.683  0.0738 -0.0796 -0.0263
 2720W        W18854  15.324  14.472  15.552 -0.2337 -0.1030 -0.3258
 2721W        W18855   0.803  10.852   5.424  0.0188 -0.1065  0.0063
 2722W        W18856  14.522   0.188   1.825 -0.0295 -0.0811 -0.4408
 2723W        W18857   6.752  14.530  14.832  0.0383  0.0564  0.4050
 2724W        W18858   4.223   8.483  13.315 -0.0361  0.1285 -0.0870
 2725W        W18859   1.566   2.691   3.054 -0.1144  0.0471 -0.0617
 2726W        W18860  13.406  13.020   2.954 -0.4617 -0.1721  0.1179
 2727W        W18861   2.033   0.701   3.645 -0.0207  0.3570  0.0045
 2728W        W18862  12.181   2.006  15.573 -0.0167  0.1843 -0.0501
 2729W        W18863   5.148  15.230  16.057  0.4434  0.0612  0.1381
 2730W        W18864   4.480  12.598  13.533  0.2349 -0.1619 -0.0989
 2731W        W18865   4.954  13.425  15.985  0.0079 -0.1570  0.0828
 2732W        W18866   8.598  10.295   5.979 -0.1025  0.0305 -0.0875
 2733W        W18867   0.997   2.198  13.609  0.1197 -0.0702 -0.0751
 2734W        W18868   5.387   6.651   5.140 -0.0665 -0.1798  0.1216
 2735W        W18869  11.547   8.216  16.285  0.1238  0.0784 -0.0850
 2736W        W18870   0.969   1.460  14.851 -0.2656  0.2566  0.0328
 2737W        W18871   5.331   3.225   4.709 -0.1147 -0.0574 -0.0816
 2738W        W18872  13.577   5.470   6.062 -0.1299 -0.1314  0.2515
 2739W        W18873  11.048  17.577  14.218  0.0992  0.0568  0.0083
 2740W        W18874  12.705  10.358   2.064 -0.2016  0.2556  0.0814
 2741W        W18875   3.038   8.791   1.030 -0.0617 -0.3073  0.2257
 2742W        W18876   5.103   7.486   6.267 -0.0962  0.2316 -0.0158
 2743W        W18877  17.264  12.631  11.695 -0.2001  0.2598 -0.3997
 2744W        W18878  15.433   8.392   5.670 -0.2327  0.2645  0.3382
 2745W        W18879   6.265   4.645   5.331 -0.1908 -0.0400  0.1405
 2746W        W18880   6.059   9.072   5.469  0.4334 -0.0589  0.0998
 2747W        W18881   7.313   2.964  14.957 -0.0238  0.2476  0.0019
 2748W        W18882   8.927   1.168  13.680 -0.0856  0.2068 -0.0769
 2749W        W18883  11.628  15.955  16.567  0.0942 -0.0680  0.0911
 2750W        W18884   9.945   8.480  15.890  0.0065  0.0950 -0.4239
 2751W        W18885   6.702   0.693   2.893 -0.0205  0.1077  0.1352
 2752W        W18886  11.575  10.428   2.496  0.0719 -0.2424  0.0083
 2753W        W18887   8.844  17.326  17.006 -0.2269 -0.0929  0.2290
 2754W        W18888   8.156   8.369   5.430 -0.0397 -0.0436 -0.1126
 2755W        W18889   4.939   2.371  13.585 -0.1737 -0.0817 -0.0914
 2756W        W18890  12.601   1.578  14.727 -0.0572  0.2137 -0.2301
 2757W        W18891  16.396  10.220  16.601  0.1071  0.1122  0.1075
 2758W        W18892   6.873  15.522   4.170 -0.1623 -0.1509  0.1199
 2759W        W18893   5.964   9.070   1.361 -0.1047 -0.1454 -0.4427
 2760W        W18894   5.825  11.416   4.819  0.1582  0.1050  0.2402
 2761W        W18895   1.049   7.415  16.809 -0.1532 -0.1803 -0.0029
 2762W        W18896   2.486   9.095   4.698 -0.0250  0.1561 -0.1272
 2763W        W18897  10.837   3.636   4.891  0.0755 -0.1003  0.1335
 2764W        W18898  10.132   9.378  12.929  0.1800  0.3031  0.0342
 2765W        W18899  17.257   9.707  12.745 -0.2052  0.1151  0.0192
 2766W        W18900  11.893   8.790   2.733  0.1535  0.6006  0.1052
 2767W        W18901  12.859   2.804  11.807  0.1738  0.0248 -0.1068
 2768W        W18902  12.514  15.349   5.643  0.0025  0.0797 -0.0520
 2769W        W18903   7.820   3.711  15.066  0.1933  0.3120  0.3125
 2770W        W18904   4.927   3.966   4.006  0.0898 -0.0412  0.0090
 2771W        W18905   4.973  13.214   4.349 -0.4470 -0.3872  0.0082
 2772W        W18906   6.540   9.690   2.884  0.1773 -0.0136  0.1221
 2773W        W18907   3.831  15.383  13.379 -0.2801  0.0739  0.0065
 2774W        W18908  11.019  13.572   3.400  0.1211 -0.2338  0.1132
 2775W        W18909   7.262   9.526  12.967  0.0341 -0.0173 -0.1235
 2776W        W18910  15.020  10.153   1.819 -0.2255  0.1219 -0.2229
 2777W        W18911  14.745  13.361   4.882  0.0672 -0.1487 -0.0806
 2778W        W18912   0.648  16.750   5.016 -0.3605 -0.3354 -0.0213
 2779W        W18913   2.559  11.197   5.340 -0.0484 -0.0502  0.1304
 2780W        W18914   0.147  14.546   0.119 -0.1969  0.1234  0.1144
 2781W        W18915   2.778   1.918  16.468  0.0764  0.0604  0.0149
 2782W        W18916  11.351  12.894   1.792  0.2101  0.3210 -0.0570
 2783W        W18917   5.159   4.927   2.730 -0.3108  0.2855  0.0797
 2784W        W18918   2.032  15.933   5.883 -0.2174 -0.0455  0.1695
 2785W        W18919   9.521   9.503  13.861 -0.2765 -0.0672 -0.2083
 2786W        W18920  10.079  12.947  14.523 -0.1486 -0.1837  0.0943
 2787W        W18921  10.074  14.529   4.663  0.0424 -0.1988 -0.0425
 2788W        W18922   1.551   4.886   2.196 -0.1332 -0.2072 -0.1029
 2789W        W18923   3.571   2.595   5.425 -0.2354  0.2407 -0.2482
 2790W        W18924   7.961   4.185   5.381 -0.0905 -0.0646 -0.2736
 2791W        W18925  11.158  17.320   3.298  0.0176  0.3008 -0.1215
 2792W        W18926  17.253  11.061   4.851 -0.0126 -0.1470 -0.3230
 2793W        W18927  15.144   0.585  16.824  0.0566 -0.0311  0.0306
 2794W        W18928  16.839   5.872  15.308 -0.0763  0.2870  0.1360
 2795W        W18929  12.805   3.302   2.205  0.1418 -0.0824  0.1988
 2796W        W18930  11.936  15.025   0.525 -0.0987  0.0756  0.0301
 2797W        W18931   0.518   2.654  16.694  0.1839  0.0623 -0.0636
 2798W        W18932   8.540   2.144   0.141  0.1207  0.1407  0.2638
 2799W        W18933   4.671  14.513  16.642  0.0145  0.1842  0.0659
 2800W        W18934  16.643   8.012  15.395  0.1092  0.0107 -0.0254
 2801W        W18935  10.163  10.500  12.020 -0.2087  0.1500 -0.3109
 2802W        W18936  16.406   6.664  15.763 -0.2618  0.2244 -0.0312
 2803W        W18937  16.138   9.359  15.112 -0.4225  0.2422  0.0007
 2804W        W18938   5.910   7.237  12.240 -0.2021  0.2697 -0.1704
 2805W        W18939  11.403  12.215  14.088  0.2629  0.0427 -0.1104
 2806W        W18940   8.266  16.168   1.170  0.0165 -0.2312 -0.2787
 2807W        W18941   9.347   0.008   1.578 -0.3361  0.2989  0.2741
 2808W        W18942  15.454  11.495  15.732  0.1280 -0.1951 -0.3878
 2809W        W18943   0.771  17.596   1.676 -0.3510  0.1423 -0.2703
 2810W        W18944   2.294   7.574   5.152 -0.1954  0.2102 -0.0702
 2811W        W18945   8.522  15.795   2.489  0.1231 -0.4385 -0.1373
 2812W        W18946   0.938   0.158   3.625 -0.0960  0.0172  0.2747
 2813W        W18947   5.596  14.270   3.572 -0.0532 -0.2667 -0.1609
 2814W        W18948   2.634   5.534  13.162 -0.1749 -0.1189  0.1855
 2815W        W18949   7.994  16.155  15.168  0.0405  0.1645  0.0092
 2816W        W18950  14.917   9.594   1.170  0.1538 -0.4385  0.0936
 2817W        W18951   7.036  16.209   1.909 -0.0168  0.0517  0.1877
 2818W        W18952   4.000   2.992   3.765  0.1791 -0.1440 -0.0319
 2819W        W18953   3.514   7.182  11.974  0.1421 -0.2642 -0.0780
 2820W        W18954   0.721   5.502  15.558 -0.1203 -0.0447 -0.2019
 2821W        W18955   0.118   3.630   5.914 -0.1900 -0.0140  0.2037
 2822W        W18956   4.862  14.717   0.262 -0.3982 -0.0597  0.1425
 2823W        W18957   1.507  12.098   4.002  0.0325  0.0643  0.0089
 2824W        W18958   1.229   4.622   4.599  0.2179  0.0902  0.2952
 2825W        W18959  11.925  14.387   6.728 -0.1667  0.0370 -0.2037
 2826W        W18960   1.774   6.300  12.506  0.0797  0.0585  0.2992
 2827W        W18961   1.590  10.563   1.597  0.3367 -0.0022  0.3338
 2828W        W18962   5.380   5.199  16.274  0.1117 -0.0364 -0.0055
 2829W        W18963  10.369   5.712   4.257  0.1524 -0.1723 -0.1136
 2830W        W18964   3.845   7.057   2.620 -0.4809  0.2578 -0.4270
 2831W        W18965  14.985   9.416   3.781  0.1211  0.1603 -0.0705
 2832W        W18966  12.704   4.111   4.535  0.2398  0.1862 -0.0929
 2833W        W18967   7.185   3.676  12.215 -0.0610  0.0460  0.1800
 2834W        W18968  14.883  11.426   2.157 -0.2111  0.3129 -0.0487
 2835W        W18969   9.166   5.793   2.527 -0.1245 -0.0558  0.0386
 2836W        W18970  15.376   9.446   1.045  0.1093 -0.1845 -0.1410
 2837W        W18971   4.239   7.290   0.457  0.1164 -0.1554 -0.0435
 2838W        W18972   9.003   6.796  13.369  0.1168  0.2256 -0.1575
 2839W        W18973   2.976   3.430  13.969 -0.1603  0.0470  0.0109
 2840W        W18974   3.619  14.261  16.010  0.1200  0.2127  0.0174
 2841W        W18975   8.867   8.460  14.970  0.0339  0.1014  0.1950
 2842W        W18976   6.065   8.814   3.953 -0.1211  0.2463 -0.1358
 2843W        W18977   3.936  12.482   3.028 -0.0391 -0.0060 -0.0825
 2844W        W18978   6.341  16.942   4.294  0.0588  0.3829  0.0141
 2845W        W18979  15.781   9.378   3.781  0.5074 -0.3170  0.2007
 2846W        W18980   0.815   9.571  12.664 -0.2405 -0.1615  0.0188
 2847W        W18981  12.386  14.952  16.988 -0.2825 -0.0977 -0.1681
 2848W        W18982   1.969  15.426   5.228 -0.3401 -0.0874 -0.1536
 2849W        W18983   8.217   0.248   1.749 -0.2886  0.3987 -0.0444
 2850W        W18984   8.135   8.818   0.066  0.2671  0.1785  0.0679
 2851W        W18985   5.503   2.359  15.755  0.1263  0.1228  0.0360
 2852W        W18986   2.026  13.673  12.018 -0.1647 -0.2700  0.0705
 2853W        W18987  16.150   1.666   4.760  0.0703 -0.1615 -0.3057
 2854W        W18988   1.302   2.208   6.643 -0.1803  0.1866  0.0473
 2855W        W18989   9.687  10.199  16.302 -0.1303 -0.2374 -0.1189
 2856W        W18990  10.624  13.387  14.948 -0.3570 -0.0203 -0.1796
 2857W        W18991   6.740  14.101  12.696 -0.1308  0.1229 -0.1191
 2858W        W18992  17.178  13.075   4.510  0.2655  0.0552 -0.2121
 2859W        W18993  13.042   7.948   2.852 -0.1622  0.1382  0.0351
 2860W        W18994  10.201   4.212   4.078 -0.0307 -0.3463 -0.1057
 2861W        W18995  10.717   1.682  12.802  0.1471 -0.0380  0.0678
 2862W        W18996  10.679   2.383   2.509 -0.1494  0.1431 -0.2123
 2863W        W18997  13.133   0.587   0.539 -0.2815 -0.1294 -0.3456
 2864W        W18998   9.159   1.967   3.568  0.2066 -0.1549 -0.1110
 2865W        W18999  17.271   0.791   1.997 -0.4615  0.1252  0.1327
 2866W        W19000   7.694  12.059   1.302  0.1733 -0.1664  0.1041
 2867W        W19001  14.535   4.645  16.592 -0.2596 -0.1995  0.1533
 2868W        W19002   4.409  15.324  14.771 -0.1786  0.1341 -0.1180
 2869W        W19003   7.466   7.284   2.822  0.1553  0.0844  0.1205
 2870W        W19004  14.613   5.694   4.334  0.0641 -0.2072 -0.0422
 2871W        W19005  17.025  12.396  12.628  0.0416 -0.1056 -0.1040
 2872W        W19006   1.710  12.038   1.428 -0.0482  0.4084 -0.1160
 2873W        W19007  16.335  17.127  13.652  0.2111  0.1586  0.0390
 2874W        W19008   0.168   8.205   4.418 -0.0657  0.1766 -0.1336
 2875W        W19009  15.650   0.676   5.224  0.0015 -0.0711 -0.1952
 2876W        W19010   3.991   0.380  12.104  0.0025  0.0849 -0.2178
 2877W        W19011  11.035   4.399  12.410 -0.1005  0.0574 -0.2010
 2878W        W19012  15.712   5.303   4.760  0.0144  0.1657 -0.0932
 2879W        W19013   9.586   2.890  15.457 -0.1138 -0.2493  0.0034
 2880W        W19014  13.561   0.067  14.066  0.2004  0.1068  0.2038
 2881W        W19015  17.062  16.791   5.622 -0.0187 -0.0776  0.0419
 2882W        W19016   1.237   9.921  16.277 -0.1996 -0.1012  0.1186
 2883W        W19017  17.170   7.625  14.682 -0.0812  0.1356 -0.2023
 2884W        W19018  14.230   9.595  13.371 -0.3080 -0.0958  0.4620
 2885W        W19019  13.615   7.387   1.897 -0.0525  0.0679  0.2240
 2886W        W19020  16.187  15.978  15.161  0.1751  0.0208  0.0728
 2887W        W19021   4.279  15.240  13.498  0.2788 -0.1422 -0.2345
 2888W        W19022   3.513   1.477  14.019 -0.2834 -0.0499  0.1039
 2889W        W19023  14.508   7.606   3.709  0.0547 -0.1939 -0.3576
 2890W        W19024   6.321  13.030   0.521  0.0859  0.2742  0.0468
 2891W        W19025  13.525   5.955  12.702 -0.3303  0.0639  0.0721
 2892W        W19026   0.007   3.122  13.627  0.3546  0.0228 -0.1763
 2893W        W19027  15.647  12.643  15.075  0.0481  0.3719  0.1031
 2894W        W19028   7.984  13.518   2.533  0.1218  0.0228  0.4587
 2895W        W19029   7.777   1.514  14.485  0.2263 -0.0450 -0.0124
 2896W        W19030   0.480   5.086   0.661 -0.0391  0.0366  0.1274
 2897W        W19031   3.107   7.749   4.590 -0.0794  0.0123 -0.0856
 2898W        W19032  15.513  16.733  15.587  0.0745 -0.2877 -0.1031
 2899W        W19033   2.728   0.618  15.913 -0.2038  0.0743  0.2377
 2900W        W19034   1.847   9.264   4.926 -0.2155 -0.0661 -0.3774
 2901W        W19035   5.551  12.245  16.307 -0.1715  0.0409  0.0548
 2902W        W19036   3.273  11.746  16.421  0.0420 -0.3472  0.1725
 2903W        W19037   5.656  10.958   0.432  0.2878  0.0816  0.0105
 2904W        W19038  17.541  12.921  13.162 -0.2818 -0.3052  0.0394
 2905W        W19039   7.460  13.514   5.297  0.0827 -0.0841  0.3959
 2906W        W19040  16.666   1.102  13.984 -0.0379 -0.0767 -0.0391
 2907W        W19041  17.059  12.889   3.102 -0.2628 -0.0841  0.0328
 2908W        W19042   3.157   2.046  17.067 -0.1646  0.0264 -0.0466
 2909W        W19043   7.954   3.707  12.173 -0.0877  0.0880 -0.0312
 2910W        W19044   2.963  14.343  16.160  0.1847 -0.1338 -0.2524
 2911W        W19045   3.049   6.643   0.300 -0.1133  0.1512 -0.2561
 2912W        W19046   4.934   5.271   0.099 -0.3257 -0.0695 -0.1212
 2913W        W19047   0.131   4.127   2.869  0.3560 -0.0097  0.0832
 2914W        W19048   1.025   3.603  13.877 -0.3002  0.3929 -0.1803
 2915W        W19049   1.845   8.163   2.900  0.0303 -0.0204  0.3669
 2916W        W19050   1.260   9.113  15.861 -0.0071 -0.1564 -0.2778
 2917W        W19051   0.740   6.194   2.210 -0.0093  0.3661  0.0162
 2918W        W19052  17.553  10.678  16.250  0.3048  0.1059  0.0804
 2919W        W19053   1.517   7.762  13.331  0.0733  0.0081  0.1596
 2920W        W19054   2.326   7.862  14.946  0.1570  0.0060 -0.1620
 2921W        W19055   3.947  14.934   5.772 -0.2504 -0.1246 -0.2316
 2922W        W19056   8.585  14.512  14.303  0.2739  0.1660 -0.2738
 2923W        W19057   7.797   0.561  17.071  0.1936 -0.2710 -0.1099
 2924W        W19058  16.150   9.823   1.012  0.2281 -0.1316 -0.3592
 2925W        W19059   7.428  16.217   0.070  0.0292 -0.4773 -0.2025
 2926W        W19060   3.939  16.592  15.980  0.1811  0.3511 -0.0210
 2927W        W19061   7.570  10.519   3.488 -0.2055  0.0776  0.2507
 2928W        W19062   9.529   8.966  14.734 -0.0148 -0.3839  0.0049
 2929W        W19063   6.873   6.028   5.936  0.1440 -0.0147  0.2200
 2930W        W19064  13.924   5.350   3.538 -0.0618  0.1760 -0.2019
 2931W        W19065   9.139  16.055  12.648 -0.0320 -0.0518  0.1276
 2932W        W19066  10.927  11.588  11.893  0.2714  0.0486 -0.0504
 2933W        W19067   9.898   6.476   5.514  0.0091 -0.0591  0.1896
 2934W        W19068  13.028  16.951  13.676  0.0589  0.2469 -0.2284
 2935W        W19069  15.203   7.749   3.215 -0.0030  0.1749  0.2915
 2936W        W19070  12.784  10.169   0.366  0.1632 -0.0104  0.0904
 2937W        W19071   5.608   9.812  17.043 -0.3626 -0.0784  0.3382
 2938W        W19072   3.096  16.515   4.664  0.1114  0.0547 -0.1062
 2939W        W19073   3.461   3.439   5.039 -0.1108 -0.0789 -0.0103
 2940W        W19074   3.989   8.508  12.279 -0.2938 -0.0100 -0.0995
 2941W        W19075   8.344   3.117  14.044 -0.2872 -0.2309  0.1114
 2942W        W19076  14.775   4.813   5.255  0.0428 -0.0140  0.0097
 2943W        W19077  11.973  10.704   3.350  0.0127 -0.0329  0.0427
 2944W        W19078   9.395   6.841  15.491 -0.0485  0.0738 -0.1744
 2945W        W19079  17.459  16.167  16.208 -0.1933  0.1264 -0.1369
 2946W        W19080  16.547  12.685  13.385 -0.2122 -0.1331 -0.0656
 2947W        W19081   0.389  15.490   1.656  0.0639  0.1559  0.0136
 2948W        W19082   3.219   6.240  12.793  0.2860 -0.1014 -0.1059
 2949W        W19083  16.659   2.974  15.062 -0.0312  0.2072  0.0210
 2950W        W19084  11.744   3.465  13.424 -0.1711 -0.0038 -0.0431
 2951W        W19085   9.139  14.652   5.720 -0.1222 -0.0264  0.1453
 2952W        W19086  11.849   0.481  15.689  0.1504  0.4534 -0.1181
 2953W        W19087   2.735   0.024   5.436  0.1540  0.2256  0.0733
 2954W        W19088   5.773   8.313  17.139  0.1289  0.2212  0.2939
 2955W        W19089   2.136   5.512   2.355  0.1158 -0.0956 -0.1705
 2956W        W19090  16.665  12.129   0.224  0.0787 -0.2340 -0.3371
 2957W        W19091   4.981   7.269  15.388  0.0438  0.0939  0.0835
 2958W        W19092  13.236   7.555   1.481 -0.0808  0.2051 -0.0792
 2959W        W19093  12.367   6.461   3.332  0.1105 -0.2347  0.1881
 2960W        W19094   8.345   8.641   2.222  0.3537  0.0945  0.0797
 2961W        W19095  10.179  15.503   5.605 -0.1516  0.0353  0.3035
 2962W        W19096  17.107  10.416  13.687  0.0204 -0.1389  0.4062
 2963W        W19097  10.264   4.460  13.504  0.4458  0.1020 -0.2165
 2964W        W19098   1.203   4.022   1.999 -0.1451  0.0444 -0.1056
 2965W        W19099  16.239  13.473   2.232  0.3461  0.1933  0.2022
 2966W        W19100   3.895   1.256  16.406 -0.2677  0.0700 -0.1890
 2967W        W19101   3.385   1.689   1.793 -0.3324  0.2098  0.4708
 2968W        W19102   4.249   1.585   4.151  0.0254 -0.0981 -0.0706
 2969W        W19103  17.474   7.131  11.949  0.1570  0.1740 -0.0078
 2970W        W19104   7.564  13.772  12.571  0.1035 -0.0695  0.0050
 2971W        W19105  14.429  16.984   5.146  0.1968 -0.2598  0.0568
 2972W        W19106   7.379  13.921   3.047  0.1592 -0.3965  0.0364
 2973W        W19107   8.737   3.160   3.059  0.0043 -0.2396 -0.1501
 2974W        W19108  10.801   5.780   2.529  0.0434  0.1294  0.0973
 2975W        W19109  10.722   4.691  12.665 -0.2746  0.1972  0.0528
 2976W        W19110  12.539   5.987   1.868 -0.0525  0.1457 -0.2525
 2977W        W19111   8.784   8.458  17.150  0.1894 -0.2054 -0.0989
 2978W        W19112   0.471   6.363   2.618  0.0253  0.3393 -0.2762
 2979W        W19113   5.187   5.954   6.158 -0.2852 -0.0933  0.0152
 2980W        W19114   0.079  11.159   4.820  0.2181 -0.1729  0.0522
 2981W        W19115  17.640  15.679  16.190 -0.3329  0.2604 -0.0579
 2982W        W19116   8.421  11.550   6.016  0.0548 -0.2438  0.1350
 2983W        W19117  15.027  11.430  14.900  0.1687  0.1011 -0.1887
 2984W        W19118  11.155   9.155  15.927  0.2367 -0.0377 -0.0855
 2985W        W19119  16.715   7.369   0.460  0.1115 -0.0418  0.2034
 2986W        W19120   7.435   7.657  12.389  0.1389 -0.1374  0.0238
 2987W        W19121  17.461   7.642   3.190 -0.1385  0.2260 -0.0778
 2988W        W19122  14.967  11.669   2.621 -0.1394 -0.1159 -0.2854
 2989W        W19123  13.374   9.618  13.908  0.0140  0.0703 -0.0046
 2990W        W19124   7.603   2.152   5.491  0.0989  0.0806  0.4212
 2991W        W19125  11.795  14.616  13.087 -0.2608  0.0494 -0.1314
 2992W        W19126  12.497   4.333   0.726  0.0678 -0.0703  0.0179
 2993W        W19127  11.648   4.307  14.715 -0.1751 -0.2168 -0.2407
 2994W        W19128   7.108   2.034  15.776 -0.0455  0.0834  0.1060
 2995W        W19129  14.454   6.792   2.089 -0.1197  0.0888 -0.0501
 2996W        W19130   4.048  15.633   1.953 -0.0704 -0.1685  0.1122
 2997W        W19131  16.723   4.832  16.948 -0.0899 -0.2287  0.0800
 2998W        W19132   7.418   3.520   4.618 -0.1779  0.0957  0.0870
 2999W        W19133  10.888  12.586  15.480  0.0166 -0.1732  0.1486
 3000W        W19134  10.329   3.177  12.694 -0.0458 -0.0701 -0.0511
 3001W        W19135   5.620  10.937   1.000 -0.2909  0.0347  0.1387
 3002W        W19136   9.109  16.857   1.223  0.1149 -0.0445 -0.1274
 3003W        W19137   3.923   8.779  13.682 -0.1941  0.0688  0.1122
 3004W        W19138  17.392   6.340  15.582  0.2212  0.1307  0.3888
 3005W        W19139   7.396  14.406   5.242  0.2221  0.0229  0.0519
 3006W        W19140   7.041   1.781   3.544 -0.0670  0.0764 -0.3539
 3007W        W19141  15.819   1.533   0.059 -0.0772  0.0822 -0.2686
 3008W        W19142   9.691   0.319  11.731 -0.0955  0.0149 -0.0750
 3009W        W19143   9.808   9.619   3.671  0.1333  0.1145 -0.2196
 3010W        W19144   1.338   0.079  14.934  0.2710  0.1012  0.3869
 3011W        W19145   9.126  16.362   0.226  0.0528 -0.0996 -0.4242
 3012W        W19146   2.868   9.447  11.701  0.1214  0.2225  0.3006
 3013W        W19147   0.793  16.015  13.526 -0.1187  0.0004  0.0042
 3014W        W19148   6.877   5.546   0.221  0.0327  0.0164 -0.0111
 3015W        W19149   0.213  11.558  14.230 -0.0561  0.3091  0.3978
 3016W        W19150  10.979   7.996  14.592 -0.0619 -0.2599  0.1956
 3017W        W19151  12.945   3.686   3.718 -0.1273 -0.0783 -0.1624
 3018W        W19152   5.144  14.235  15.810 -0.2016  0.0312 -0.0374
 3019W        W19153  12.750  12.930  14.037 -0.1746 -0.1068  0.3148
 3020W        W19154   9.469  14.813   4.418 -0.0769  0.2182 -0.0044
 3021W        W19155  15.466   4.181   3.357 -0.1533  0.1429  0.1173
 3022W        W19156  15.319   7.995  15.932  0.0885 -0.2489  0.0450
 3023W        W19157  13.154  16.049   2.159  0.0889  0.4375 -0.0913
 3024W        W19158   1.910   8.651  16.488  0.2438 -0.2795 -0.0806
 3025W        W19159  10.978  16.758   1.637  0.1248 -0.3634 -0.1853
 3026W        W19160   0.554   4.314  13.559 -0.2970 -0.0323  0.1980
 3027W        W19161  17.233   1.378   2.956  0.1666  0.2088  0.4329
 3028W        W19162  15.292  14.029  15.843 -0.1911 -0.0862 -0.4466
 3029W        W19163   6.037   5.198  11.509  0.2598 -0.2630  0.0296
 3030W        W19164  15.247   1.108  14.734  0.0386  0.1618  0.0625
 3031W        W19165  14.501  13.319  15.680  0.3064  0.1452 -0.0759
 3032W        W19166  16.985   9.051   3.427  0.0488  0.0954 -0.2645
 3033W        W19167  15.264  13.904  15.337  0.0037  0.1635  0.0314
 3034W        W19168   5.192  11.674  12.659  0.1172  0.2392  0.0478
 3035W        W19169  11.100   0.178  16.294  0.0532 -0.1607  0.1018
 3036W        W19170  14.205  15.155  15.838  0.2371  0.1276  0.3451
 3037W        W19171   9.488  17.315   3.802 -0.0269  0.1007 -0.1610
 3038W        W19172   0.276   0.073   4.754  0.0231 -0.0274 -0.1423
 3039W        W19173   5.557   8.674   4.687 -0.2524 -0.1638 -0.0288
 3040W        W19174   0.925   9.259  11.780 -0.1156  0.0423  0.0611
 3041W        W19175   5.076  11.803   3.538 -0.1509  0.0934 -0.0664
 3042W        W19176  11.078   4.933  15.318  0.0569  0.0128 -0.1326
 3043W        W19177   6.052  10.094  13.382 -0.1383 -0.0382  0.4807
 3044W        W19178  10.893   7.743  16.618 -0.1683  0.0412  0.0970
 3045W        W19179  14.368  15.200   5.041  0.0245 -0.1398  0.1052
 3046W        W19180   9.957  16.443  14.754  0.1029 -0.0928 -0.0382
 3047W        W19181  15.197  17.520   0.226 -0.2962 -0.0519 -0.0041
 3048W        W19182  10.825   7.566   0.307 -0.1687  0.0505 -0.1322
 3049W        W19183  17.068   4.276   5.458  0.0672  0.0444  0.2603
 3050W        W19184  10.405  17.204   6.392 -0.0709  0.0606  0.2966
 3051W        W19185   3.446   1.896   3.791 -0.3077  0.0629  0.1977
 3052W        W19186   0.104  13.017   3.758  0.0566 -0.4021  0.3989
 3053W        W19187  12.930  12.796   4.025 -0.0048  0.2076 -0.0218
 3054W        W19188  16.627   8.751  14.275  0.1665  0.2975 -0.1049
 3055W        W19189   5.136   5.220   3.154  0.0855  0.0402 -0.0310
 3056W        W19190   6.543  11.687   4.071  0.0582  0.1505 -0.0286
 3057W        W19191   5.289  14.914   5.252 -0.3016 -0.0865 -0.0343
 3058W        W19192  15.109   0.924   1.820 -0.1113 -0.1456  0.2137
 3059W        W19193   9.947   4.547   2.738 -0.1324  0.1845  0.1058
 3060W        W19194  16.652   0.598  14.282 -0.1143  0.1167 -0.0048
 3061W        W19195   3.149   8.206  14.848 -0.1295  0.0842  0.2724
 3062W        W19196   0.212   6.176   5.278  0.2232 -0.1674  0.1157
 3063W        W19197   1.083   1.775   6.622 -0.2155 -0.1778 -0.0512
 3064W        W19198  16.247  12.953  16.578 -0.0355 -0.1157  0.0038
 3065W        W19199  16.262  13.580   5.683  0.0530  0.0763  0.0918
 3066W        W19200  12.242   5.462   5.093 -0.3396  0.1056  0.2232
 3067W        W19201  12.182   0.178  16.638  0.0311 -0.0135  0.0067
 3068W        W19202   7.748  14.867   0.363  0.2254 -0.1527 -0.0537
 3069W        W19203   2.409   3.961  14.188 -0.0489  0.0768 -0.0285
 3070W        W19204   6.041   3.122  14.862  0.1947 -0.0394  0.1516
 3071W        W19205  14.288  15.169  14.390  0.0464 -0.1130 -0.1383
 3072W        W19206   1.494   6.277  14.697  0.2271  0.1739 -0.3549
 3073W        W19207   8.850  11.166   4.263  0.2255  0.1798  0.1788
 3074W        W19208  10.599   6.616   6.142 -0.3638 -0.0804 -0.0030
 3075W        W19209   9.694   7.595  13.278 -0.1818 -0.3518  0.1045
 3076W        W19210   9.304  13.635  16.685  0.0664  0.2390  0.2427
 3077W        W19211   1.138  11.877  15.500 -0.1379 -0.0848  0.6860
 3078W        W19212   8.038  14.594  16.234  0.1092  0.2695 -0.1908
 3079W        W19213   4.829   3.280  12.824  0.1642  0.1907 -0.0240
 3080W        W19214  15.690   5.491  15.245 -0.0847  0.0142 -0.1183
 3081W        W19215   3.520  16.787   0.222  0.0110  0.1040  0.0251
 3082W        W19216  13.114  13.185   0.853 -0.3764  0.0785 -0.1220
 3083W        W19217  17.166   5.244   1.700 -0.0858  0.0372  0.2127
 3084W        W19218   4.952  14.869   5.778 -0.1075  0.2302  0.2764
 3085W        W19219   1.889  12.041  12.967 -0.1021  0.0635 -0.4270
 3086W        W19220   1.515  10.362   0.758 -0.0379 -0.0617  0.0762
 3087W        W19221   4.438   6.426  16.998  0.0047  0.1347  0.4704
 3088W        W19222  12.536   2.749   5.054 -0.2508 -0.1741  0.3047
 3089W        W19223  15.161   5.908  14.093 -0.4082 -0.4595 -0.0695
 3090W        W19224  10.159  15.982  13.890  0.0753 -0.1823  0.2187
 3091W        W19225  15.465   6.679   5.180 -0.1892  0.1323 -0.0570
 3092W        W19226  12.662   1.156  14.408  0.0887 -0.1062  0.2894
 3093W        W19227  12.010   5.919  16.899 -0.3225 -0.1591  0.0543
 3094W        W19228  16.443   9.389  16.330  0.1018 -0.1686  0.1057
 3095W        W19229   6.765   0.050   1.931  0.1407 -0.1301  0.3062
 3096W        W19230  15.596   7.798  16.279 -0.1100  0.0448  0.1231
 3097W        W19231  17.012   3.388   5.555 -0.0148 -0.1590 -0.1383
 3098W        W19232   4.076   0.623  15.637  0.2979  0.0099  0.2078
 3099W        W19233  14.843   6.333  16.545 -0.0911  0.2091 -0.1846
 3100W        W19234   0.095  17.291  14.499 -0.1349 -0.4624 -0.0630
 3101W        W19235  16.899   9.851   2.777 -0.2103  0.0109  0.2213
 3102W        W19236  12.982   3.530   5.342 -0.0871  0.0054  0.0665
 3103W        W19237   6.810  17.532  14.498 -0.0829  0.1975  0.1486
 3104W        W19238   0.714  16.297   3.143  0.3001  0.0763 -0.0055
 3105W        W19239   8.074   4.512   4.543  0.0728  0.0417  0.0977
 3106W        W19240   9.844   3.816   4.687  0.0225 -0.0795  0.0077
 3107W        W19241   5.252  15.255   0.031  0.3113  0.0078 -0.0527
 3108W        W19242   1.647   4.304   5.253 -0.1334  0.1823  0.3389
 3109W        W19243   5.736   9.201  16.294 -0.3956  0.1162 -0.3531
 3110W        W19244   9.461   9.900  14.959  0.1621  0.2503 -0.0142
 3111W        W19245   8.865   6.425  11.623  0.0490 -0.0785  0.0407
 3112W        W19246  11.771  16.813   2.305  0.0538  0.1828  0.2213
 3113W        W19247   3.230   7.570  15.607  0.1239  0.0967  0.0589
 3114W        W19248   2.965  17.228  12.490  0.2347  0.1139 -0.0559
 3115W        W19249  13.842  12.043  13.234 -0.0653 -0.2869 -0.1327
 3116W        W19250  11.794   4.533   3.682 -0.1836  0.2736  0.0625
 3117W        W19251   3.284   2.840   1.878  0.1650  0.2231 -0.1428
 3118W        W19252   6.157  14.553  11.584 -0.0184  0.1055 -0.0495
 3119W        W19253   0.427   9.576   2.615 -0.1443 -0.1087 -0.1449
 3120W        W19254   4.624  12.286  12.665 -0.0087 -0.0704  0.1109
 3121W        W19255  10.725   2.159  14.767  0.1252  0.2874 -0.2922
 3122W        W19256  12.671  12.964   5.393  0.3067 -0.3068 -0.1029
 3123W        W19257  11.163  14.876  16.005  0.2209  0.0086 -0.0149
 3124W        W19258   3.210  17.317  13.735  0.0142  0.1751  0.0006
 3125W        W19259   8.909  11.399  14.497 -0.0620  0.2459 -0.3815
 3126W        W19260   0.411   1.020   3.476  0.1514 -0.3181 -0.0479
 3127W        W19261   6.127  12.051  13.432  0.0065  0.0069  0.0562
 3128W        W19262   3.741   8.311  16.111  0.1203 -0.1291 -0.0493
 3129W        W19263  10.917   2.852  15.735 -0.0901 -0.1672  0.1345
 3130W        W19264   8.943   8.743  16.273  0.0027 -0.2330  0.0357
 3131W        W19265  10.748  13.754  12.703 -0.1478  0.0079  0.1799
 3132W        W19266  14.588   4.935  13.459 -0.1550 -0.1511  0.2061
 3133W        W19267   2.468  16.734   2.359  0.3890  0.1764 -0.0187
 3134W        W19268   1.877  16.692   5.605  0.1671 -0.1460  0.1621
 3135W        W19269   8.631   3.764   1.943 -0.3260  0.0709  0.0028
 3136W        W19270   0.839   1.668  16.000 -0.1122  0.0487  0.0085
 3137W        W19271   3.080  15.428  16.555 -0.0220  0.1169 -0.1095
 3138W        W19272  15.717   0.455   3.161 -0.0234 -0.1938 -0.2169
 3139W        W19273   2.916   5.562  12.081 -0.0692  0.2362  0.0993
 3140W        W19274   4.863   0.366  16.842  0.0138  0.0605  0.0592
 3141W        W19275   3.664  13.534  15.885  0.0622 -0.1989  0.0672
 3142W        W19276  14.495  15.238  16.368  0.3080  0.0127 -0.0107
 3143W        W19277  13.754   6.817  13.869 -0.0698  0.3006 -0.0834
 3144W        W19278   9.210   0.750  14.768 -0.1118 -0.1215 -0.1653
 3145W        W19279  13.752   0.623  15.339  0.0214  0.0384 -0.1052
 3146W        W19280  15.018   1.279  16.365 -0.0121  0.0588 -0.1496
 3147W        W19281   0.089   7.645  11.834  0.0374 -0.1044 -0.1233
 3148W        W19282  16.837  15.313  16.122 -0.1019  0.1427 -0.1064
 3149W        W19283  15.318  10.858  11.651  0.1513 -0.3062  0.2590
 3150W        W19284  11.422   2.141   0.116 -0.1741 -0.3015 -0.1396
 3151W        W19285  16.609   8.942   3.827  0.0402  0.2786  0.0400
 3152W        W19286   7.155   8.004  14.358  0.0113  0.1943  0.1838
 3153W        W19287   0.465  12.216   4.773  0.1763 -0.1110 -0.2871
 3154W        W19288   0.716   4.668  16.748 -0.3284 -0.3320 -0.3827
 3155W        W19289  11.105  11.653  15.511 -0.1009 -0.3252  0.1807
 3156W        W19290  16.018  14.338   1.308  0.1497  0.0127  0.0320
 3157W        W19291   3.993   6.806   1.211 -0.0760 -0.0202  0.0740
 3158W        W19292   0.906  16.010  15.718 -0.0986 -0.2865  0.0322
 3159W        W19293  12.463  10.042   3.683 -0.0430 -0.3504 -0.0626
 3160W        W19294   4.005  11.180  16.445 -0.0432  0.0593  0.2519
 3161W        W19295  12.342   5.568  11.919  0.4419  0.2310  0.0817
 3162W        W19296  10.429   6.611  16.315 -0.1785  0.2647  0.0678
 3163W        W19297   7.870   8.875  16.339 -0.0972  0.0025  0.1656
 3164W        W19298   2.783   2.425  16.622 -0.0772  0.0722 -0.0669
 3165W        W19299  11.090  11.235   0.929 -0.2496 -0.0763 -0.1713
 3166W        W19300   4.998   1.675   3.145 -0.1166  0.1152 -0.1537
 3167W        W19301   1.810   8.824  16.967 -0.1414  0.0271 -0.1666
 3168W        W19302   6.095   0.723   3.997  0.2959  0.0796  0.3229
 3169W        W19303   6.865   2.335   4.686  0.1648  0.0430 -0.1961
 3170W        W19304   5.172   5.617   1.862  0.1294 -0.3256  0.0867
 3171W        W19305  13.687  13.914   0.787  0.1095 -0.0145 -0.0525
 3172W        W19306  13.997   8.358   2.658  0.0890  0.0432 -0.2695
 3173W        W19307  17.347  13.551  16.284 -0.3796  0.0948 -0.1465
 3174W        W19308  16.380  11.087  12.081  0.3978 -0.3016 -0.2191
 3175W        W19309  15.168   5.099  16.073  0.1224 -0.1908 -0.4223
 3176W        W19310   9.512   5.693  11.442 -0.1332 -0.0734  0.0583
 3177W        W19311   7.189   1.806  15.343  0.1050  0.0167  0.0698
 3178W        W19312   1.752  16.757  15.632  0.2645 -0.2506 -0.0329
 3179W        W19313  13.425  13.600  14.598  0.1724 -0.1366  0.0674
 3180W        W19314   1.947  16.786   2.207  0.0134 -0.1478  0.0680
 3181W        W19315   1.184   1.180  14.226  0.0606  0.0584  0.0641
 3182W        W19316  13.618  13.729   5.285 -0.0381  0.0604  0.0170
 3183W        W19317   1.289   2.176   1.580  0.0836 -0.1449 -0.0478
 3184W        W19318  12.098  10.035   1.113 -0.3930 -0.0658  0.1201
 3185W        W19319   3.036   3.376  12.493 -0.2253  0.1195  0.1958
 3186W        W19320  10.641   5.262   3.312 -0.0136  0.0791 -0.1119
 3187W        W19321   2.012   9.967   2.148  0.0314 -0.1774 -0.1758
 3188W        W19322   2.826   1.983   2.819  0.0026  0.0333 -0.0099
 3189W        W19323  17.609  16.915  13.359  0.3520 -0.1470  0.1219
 3190W        W19324  11.442  10.687  11.730  0.0054  0.0362 -0.2425
 3191W        W19325   9.855  10.042  12.626  0.1525  0.0491 -0.1897
 3192W        W19326  17.372   6.507  13.702 -0.1686  0.1626 -0.2424
 3193W        W19327   6.520  17.203   3.886 -0.0724 -0.0381 -0.1133
 3194W        W19328   9.677  14.955   0.623 -0.2879 -0.1129 -0.4696
 3195W        W19329  16.766   2.714  15.515 -0.0294  0.1601 -0.0908
 3196W        W19330   7.564   0.455   0.380  0.2064  0.1931 -0.3182
 3197W        W19331   7.157  13.599  13.870  0.0736  0.3184  0.1318
 3198W        W19332   6.857   3.487  14.048  0.0845 -0.1273 -0.1012
 3199W        W19333  17.552   4.167   4.285  0.1448  0.0910 -0.1915
 3200W        W19334  13.183  11.812  13.759  0.0175  0.2539 -0.0966
 3201W        W19335   7.417   1.080  14.665 -0.3310  0.0668 -0.1134
 3202W        W19336   8.362  13.232   4.225  0.0590 -0.3863  0.1048
 3203W        W19337   1.529   9.098   1.989 -0.0724  0.3584  0.0250
 3204W        W19338   5.534   7.482   3.622 -0.2455 -0.0828  0.0579
 3205W        W19339   0.770   7.331   0.845  0.0252  0.2719  0.0782
 3206W        W19340   0.433  10.270   6.289  0.1697 -0.0916 -0.1630
 3207W        W19341   1.346   4.052  16.718 -0.0563  0.1982  0.1525
 3208W        W19342   1.843   3.534   2.758 -0.1905 -0.0864 -0.0941
 3209W        W19343   2.992  13.743   3.822  0.1981  0.1293  0.0426
 3210W        W19344  16.995   3.400   6.130  0.2037 -0.1076  0.3012
 3211W        W19345   9.444  10.318   2.600 -0.2026  0.1182 -0.0348
 3212W        W19346  14.511   2.343  15.939 -0.1806 -0.2615 -0.2180
 3213W        W19347   7.662   8.335  12.536  0.0804  0.1793  0.1627
 3214W        W19348   4.093   4.476  13.428 -0.2514 -0.1907 -0.0236
 3215W        W19349   7.877   0.162  15.109  0.3780 -0.0236 -0.1784
 3216W        W19350  10.724   0.818  15.173 -0.0517 -0.0534 -0.0984
 3217W        W19351  11.586  11.394  16.555 -0.2299  0.0933  0.0558
 3218W        W19352   2.771  11.977  16.065 -0.0759 -0.1680 -0.3644
 3219W        W19353  14.488   4.056   2.028 -0.0999 -0.1373  0.1251
 3220W        W19354  13.598   0.337   2.828 -0.0959 -0.0925  0.0036
 3221W        W19355  12.902   6.541  15.446  0.4109  0.1735  0.1522
 3222W        W19356  17.133   4.488  15.594  0.2664 -0.3209  0.2367
 3223W        W19357   6.159  15.941   0.872 -0.2722 -0.1225  0.1491
 3224W        W19358  14.381  11.606  17.065 -0.0408 -0.2233 -0.0811
 3225W        W19359  14.890   2.430  17.115  0.0107 -0.0550 -0.0988
 3226W        W19360   4.990   7.080  13.089 -0.0549 -0.0639  0.2954
 3227W        W19361   7.248  11.297   3.977 -0.0716  0.1667  0.0605
 3228W        W19362  12.339   5.435   4.380 -0.1825 -0.1584  0.0847
 3229W        W19363   2.495   9.672   1.441 -0.1821 -0.4283 -0.0611
 3230W        W19364   0.797  11.752  16.837  0.2859  0.0787 -0.0775
 3231W        W19365  15.839   2.968  12.013 -0.0820 -0.1292  0.0262
 3232W        W19366   0.207  10.792  16.654 -0.0744 -0.0088  0.2775
 3233W        W19367   5.211   3.643  12.926  0.0109 -0.1274  0.1415
 3234W        W19368   0.125   4.514  14.958 -0.1363  0.0997 -0.1862
 3235W        W19369  12.662  11.232  12.632 -0.0263  0.1529 -0.3493
 3236W        W19370  12.173   2.971   0.773 -0.1048  0.2711  0.1170
 3237W        W19371  15.812   8.143  15.710  0.1313  0.1424  0.1157
 3238W        W19372  16.854   8.413   0.457  0.5515  0.0514 -0.1466
 3239W        W19373   9.453   4.161  12.331  0.0362 -0.3437 -0.0516
 3240W        W19374   8.396  16.924  16.576  0.1066 -0.3321 -0.1275
 3241W        W19375   6.386   5.453   0.105 -0.0144 -0.0004  0.0299
 3242W        W19376   2.814   2.167  12.230 -0.0947 -0.2698 -0.0717
 3243W        W19377   1.519  12.085   6.000 -0.0915 -0.0956 -0.1285
 3244W        W19378   4.383   7.357   0.943 -0.0898  0.3212  0.1176
 3245W        W19379  10.557  10.723  12.041 -0.2230  0.0181 -0.2172
 3246W        W19380  17.613   0.067   1.709  0.0320 -0.0161  0.1364
 3247W        W19381  16.611   0.079  14.359 -0.0591 -0.0837  0.3123
 3248W        W19382   7.919  17.637  13.149  0.1482 -0.0956  0.1242
 3249W        W19383   3.141   8.644   0.494 -0.0788  0.0539  0.0463
 3250W        W19384  10.672   4.092   0.942 -0.0192  0.1388 -0.0644
 3251W        W19385   6.995  11.983  11.223 -0.0988  0.1907  0.0194
 3252W        W19386   8.402   0.262  13.935  0.1406 -0.1896  0.0470
 3253W        W19387  13.208  16.309  17.164 -0.0848  0.1654  0.1583
 3254W        W19388  15.772   9.090   5.068  0.3197 -0.1217  0.1806
 3255W        W19389  11.375  17.656  14.612  0.0760  0.0195  0.3423
 3256W        W19390  15.421  17.466   4.953  0.0280 -0.2576 -0.0197
 3257W        W19391   5.422  12.557   2.495  0.1714  0.1456 -0.1610
 3258W        W19392   3.305   2.724   4.462  0.0964 -0.0095 -0.2599
 3259W        W19393  17.052  12.959  17.090  0.1413 -0.1343  0.0095
 3260W        W19394   2.516   4.118  12.136  0.2048  0.4007 -0.1614
 3261W        W19395   7.243   0.534   5.661 -0.1920 -0.2810  0.1188
 3262W        W19396  11.051  10.266   2.599 -0.0719 -0.2782  0.1720
 3263W        W19397   2.127  15.050   3.448  0.2162 -0.0163  0.0322
 3264W        W19398  10.011  17.212   3.825 -0.1534  0.1040 -0.0442
 3265W        W19399  16.357   1.272   0.474 -0.2546  0.0847  0.1935
 3266W        W19400   4.413   7.542  15.867  0.1798  0.1733 -0.0710
 3267W        W19401   2.037  13.610  16.759 -0.0869  0.1214 -0.0730
 3268W        W19402  15.925  16.796   5.193 -0.0581  0.2537  0.4064
 3269W        W19403   1.546   3.788   0.948 -0.2015 -0.2938 -0.0193
 3270W        W19404  16.065   4.161  17.138 -0.2015 -0.2707 -0.2385
 3271W        W19405   0.292  11.534   5.126 -0.0467  0.0388 -0.3173
 3272W        W19406   9.498   6.359   0.704  0.0190 -0.2855  0.0313
 3273W        W19407   6.016  12.089  15.096 -0.2017  0.1349  0.2638
 3274W        W19408  14.224   8.431   1.847  0.1305  0.2268 -0.0041
 3275W        W19409   0.776   2.193  16.538 -0.0805 -0.2048  0.2424
 3276W        W19410  10.420  12.184  14.284 -0.0429 -0.2435 -0.5295
 3277W        W19411   4.001   8.865  11.596 -0.0024  0.0235  0.0494
 3278W        W19412  16.581  10.379   4.643  0.0523 -0.3331  0.2626
 3279W        W19413  13.330   9.103  15.901  0.1040 -0.1787 -0.2473
 3280W        W19414  15.180   9.903   0.284  0.0796  0.3539 -0.0729
 3281W        W19415  14.863  17.242  16.511 -0.1830  0.2000  0.2348
 3282W        W19416   4.828   1.743   0.056 -0.0444 -0.0001 -0.0767
 3283W        W19417   1.351   4.466  15.127  0.1621  0.1063  0.2157
 3284W        W19418   2.182  12.254   1.295 -0.1621  0.1496 -0.0662
 3285W        W19419   3.171   5.402   3.839 -0.1347  0.1176  0.0541
 3286W        W19420  16.572  16.768   1.279 -0.2004 -0.1130 -0.2188
 3287W        W19421  11.661   7.492   1.180 -0.0994  0.2424 -0.0619
 3288W        W19422  12.194   8.066  12.975 -0.1894  0.0029  0.0336
 3289W        W19423   3.670   6.175  16.350  0.0818  0.2213  0.1442
 3290W        W19424  15.479  14.612   4.339  0.4299 -0.0748  0.2091
 3291W        W19425   3.177  15.498   3.322 -0.1430 -0.0689  0.1197
 3292W        W19426   0.418   0.561  13.567 -0.0655 -0.0596  0.1136
 3293W        W19427   3.579  14.917   2.928  0.1367  0.1669 -0.0697
 3294W        W19428  11.801   2.634  11.573  0.1284 -0.1063 -0.1093
 3295W        W19429   5.122  11.580  17.099 -0.1472 -0.2152  0.0487
 3296W        W19430  16.440   6.895   2.407  0.1558 -0.0741 -0.2944
 3297W        W19431   0.054   7.414   1.883 -0.0458  0.1068 -0.0307
 3298W        W19432   7.631   8.197   0.755 -0.1714 -0.0157 -0.1509
 3299W        W19433  10.771  17.234   3.861  0.1916  0.0623 -0.1122
 3300W        W19434   3.460  12.061   1.355  0.2218  0.1432  0.1506
 3301W        W19435  15.905  10.359  13.561  0.0897 -0.2603 -0.0792
 3302W        W19436   9.273   4.882   2.563 -0.2092 -0.1178  0.1610
 3303W        W19437   4.319   8.886   3.554  0.0650 -0.1603  0.0865
 3304W        W19438   7.466   1.516   6.109 -0.0797  0.1225 -0.4450
 3305W        W19439   7.038   6.903   4.779  0.0427 -0.1441 -0.1227
 3306W        W19440   9.975  12.109  13.199 -0.1080  0.0844 -0.0430
 3307W        W19441  10.577   8.076   5.436 -0.2056 -0.0334  0.0473
 3308W        W19442   3.765   6.325   4.475  0.2793 -0.0536 -0.0618
 3309W        W19443   9.114  13.827   4.227  0.0796 -0.1263 -0.0690
 3310W        W19444   0.589   1.071   2.946  0.2381 -0.0673  0.0942
 3311W        W19445  11.076   2.302  14.449 -0.2030  0.0127 -0.2546
 3312W        W19446   4.358  14.777  13.249 -0.0198 -0.3383  0.0427
 3313W        W19447   2.622  12.204   2.803  0.0824  0.2418  0.1695
 3314W        W19448  10.638  12.965  15.241  0.1604 -0.1008 -0.2583
 3315W        W19449   2.577   3.651   1.816 -0.2010 -0.0285 -0.1385
 3316W        W19450   4.680   8.900   5.021  0.1507  0.1574 -0.0855
 3317W        W19451  15.658  12.854   3.434 -0.1068 -0.1101  0.0261
 3318W        W19452   6.653  13.446  15.036 -0.1822 -0.1717 -0.2153
 3319W        W19453   0.236   3.341   6.700  0.1515 -0.0050  0.0846
 3320W        W19454  16.851   8.723  15.641 -0.0811  0.1072  0.0571
 3321W        W19455  16.423  16.224  16.008 -0.1623  0.0846 -0.3591
 3322W        W19456   6.137  17.656  13.273 -0.1701  0.3016  0.1168
 3323W        W19457  15.124   4.894  11.909  0.0481 -0.2149 -0.1037
 3324W        W19458   0.073   2.425  16.942  0.3257 -0.1785 -0.2595
 3325W        W19459  14.487  14.254  16.011  0.2702  0.0281 -0.2994
 3326W        W19460  11.555   7.920   3.429  0.1374  0.0371  0.1357
 3327W        W19461  15.974  11.927   3.520 -0.2648 -0.0833  0.0984
 3328W        W19462  16.822   2.984   2.638 -0.0419 -0.1823 -0.1492
 3329W        W19463  11.713  14.350   5.878  0.2665  0.0640 -0.2167
 3330W        W19464  12.686  11.041   2.690 -0.2048  0.0405  0.1850
 3331W        W19465   3.393  16.549  14.411 -0.3426  0.0880 -0.0973
 3332W        W19466  10.330   2.551   4.398  0.2207  0.0751 -0.0871
 3333W        W19467  16.737  10.490  16.855 -0.0360  0.1156  0.2894
 3334W        W19468  12.068  12.661  13.903  0.1312  0.0080 -0.1586
 3335W        W19469  12.752   9.204  15.847  0.0466  0.2022 -0.1418
 3336W        W19470  14.087  15.567  14.692  0.1416  0.2545  0.2458
 3337W        W19471  16.741   6.566  15.315  0.0920  0.2180  0.3739
 3338W        W19472   3.026   1.656   3.733 -0.1194 -0.1314  0.3000
 3339W        W19473  14.774   6.095   3.979 -0.2333 -0.0946 -0.0318
 3340W        W19474  12.243   1.415   0.021 -0.2587 -0.2737  0.1947
 3341W        W19475   8.869   1.956  13.252  0.0711 -0.1098  0.0616
 3342W        W19476   6.934   3.271  14.513 -0.1676 -0.1307  0.0986
 3343W        W19477   2.143  16.261  14.171  0.2392 -0.3417 -0.0287
 3344W        W19478  16.393   5.468  17.060  0.0380 -0.1924 -0.0172
 3345W        W19479  11.278   9.151   1.984  0.0037 -0.2096  0.2742
 3346W        W19480   1.092  14.274   2.187  0.0730 -0.0997 -0.1230
 3347W        W19481  11.790  16.030  12.133  0.0179  0.0406  0.0207
 3348W        W19482   4.580   7.498   0.115 -0.2444 -0.3207 -0.3896
 3349W        W19483   1.521  12.213  16.684  0.2135 -0.1508 -0.0429
 3350W        W19484  15.733   3.399  10.835 -0.0880  0.1640 -0.1724
 3351W        W19485   7.544   3.663  11.901 -0.1915 -0.0468  0.0066
 3352W        W19486   4.177  11.127  14.069  0.0754 -0.0802 -0.3090
 3353W        W19487  13.267   3.415   2.376 -0.1252  0.3313  0.0376
 3354W        W19488   6.067   1.984  12.588  0.2032  0.0934 -0.0062
 3355W        W19489  15.435  12.249  11.655  0.2495 -0.1961  0.0604
 3356W        W19490  15.020   2.217   0.554  0.1652 -0.1763  0.0849
 3357W        W19491   0.062   2.937   3.238  0.0134 -0.1194 -0.1207
 3358W        W19492  10.380  12.788  15.676 -0.1955 -0.0414 -0.0491
 3359W        W19493  11.036   9.395  11.735 -0.0762  0.0013  0.2274
 3360W        W19494   2.290  15.952  12.448 -0.3638 -0.0075 -0.5059
 3361W        W19495  12.845  17.046   4.821 -0.0703  0.0983  0.2922
 3362W        W19496   3.170  17.270   2.419 -0.1864 -0.0864 -0.1430
 3363W        W19497  17.013   7.321   3.219  0.1725  0.1384 -0.1915
 3364W        W19498  12.136   5.506   0.006  0.1518 -0.0258  0.1237
 3365W        W19499   1.884   5.634   4.619  0.3129 -0.0429 -0.0411
 3366W        W19500  15.459  17.566   5.832 -0.0026 -0.0287 -0.2167
 3367W        W19501  17.256   8.456   2.780 -0.0186 -0.0177  0.0634
 3368W        W19502   3.173   7.122  15.851 -0.3764 -0.2715  0.5028
 3369W        W19503  15.467  17.103   2.692  0.2764 -0.1617  0.0666
 3370W        W19504   1.733  15.055  15.079  0.0511  0.0947 -0.1463
 3371W        W19505   6.205   4.301  16.035 -0.1731  0.0111 -0.0861
 3372W        W19506   2.217  13.687   6.026  0.3602 -0.2948  0.4542
 3373W        W19507  17.264   0.345  14.725 -0.2524 -0.0534 -0.1064
 3374W        W19508  13.294  15.271  13.842  0.0373  0.0955  0.2294
 3375W        W19509  10.522  12.103  17.103 -0.0390 -0.0205 -0.0464
 3376W        W19510   1.999   7.566   1.291 -0.1048  0.1006 -0.1177
 3377W        W19511   3.031   1.643  16.820  0.2060  0.2659 -0.5475
 3378W        W19512   6.563   1.517   4.407 -0.1795 -0.1566 -0.1242
 3379W        W19513  13.742  16.008  13.961  0.1492  0.1115  0.1318
 3380W        W19514  14.040  16.666   5.707  0.1198  0.0365 -0.0749
 3381W        W19515   1.546   5.502  13.646 -0.2181 -0.0170 -0.2743
 3382W        W19516  13.559  10.831   3.459 -0.2150 -0.0840 -0.2202
 3383W        W19517   3.182   9.020  16.540  0.1369 -0.1255 -0.3366
 3384W        W19518   7.188   5.539   4.079  0.0343  0.2254 -0.1166
 3385W        W19519   1.844   2.892  16.768 -0.2872  0.2438 -0.2168
 3386W        W19520   6.715   3.926   1.744  0.0193 -0.0716  0.0450
 3387W        W19521  16.028   9.371  13.908 -0.0872 -0.1898  0.0150
 3388W        W19522   4.273  10.243   0.722  0.1978 -0.1234  0.0131
 3389W        W19523   5.393  13.686  15.187  0.0190  0.0367  0.2500
 3390W        W19524   0.529   9.858  16.027  0.2235  0.1091  0.0475
 3391W        W19525  15.827   2.309   3.730  0.0050  0.0344 -0.2926
 3392W        W19526  10.847  10.121   1.587 -0.0486  0.1382  0.0755
 3393W        W19527   0.219   1.394   0.574  0.0756  0.1593 -0.2187
 3394W        W19528  10.513   1.012   0.722  0.0018 -0.0129 -0.0751
 3395W        W19529  14.756  15.504  13.326 -0.0316  0.0038  0.0337
 3396W        W19530   3.588   9.584   3.467  0.3638  0.1595  0.3157
 3397W        W19531  16.069   6.240   1.529  0.0053  0.0940  0.1483
 3398W        W19532  11.515   8.442   1.997  0.1646  0.3157  0.0238
 3399W        W19533   8.035   6.828  17.081 -0.2317 -0.1034  0.3484
 3400W        W19534  14.993   6.504  14.784  0.1043 -0.0097  0.1177
 3401W        W19535  11.448   0.938   0.714 -0.2205 -0.1109  0.1621
 3402W        W19536  11.747  14.402   4.275 -0.4285 -0.3409  0.2902
 3403W        W19537   5.780   0.721   1.307 -0.1647 -0.1074  0.1427
 3404W        W19538  17.291   0.933  14.761 -0.2049 -0.0857  0.1464
 3405W        W19539   3.672   7.656   4.870  0.0100 -0.1182  0.2432
 3406W        W19540  15.915   6.737   0.330 -0.1766 -0.0259 -0.0968
 3407W        W19541  14.646  10.566  15.018 -0.0489  0.1867  0.1983
 3408W        W19542   9.066  14.430   0.870 -0.3319  0.1987 -0.3151
 3409W        W19543  15.735  15.295   0.263 -0.0637 -0.1032  0.2349
 3410W        W19544  17.506   8.869   4.041 -0.0528 -0.1877  0.5334
 3411W        W19545   7.097  16.376  15.642 -0.1892  0.1723  0.0397
 3412W        W19546   7.986  13.038  12.653 -0.2601 -0.0498 -0.1995
 3413W        W19547  14.724  10.051   1.363 -0.1496 -0.2045 -0.2374
 3414W        W19548   4.925   6.404  16.878 -0.2239  0.0040  0.0151
 3415W        W19549   6.737  10.097   4.716  0.0778 -0.1153 -0.2240
 3416W        W19550  16.316   8.319   3.083 -0.0305 -0.1748  0.0296
 3417W        W19551  12.472  14.389  15.339 -0.0158  0.0067  0.1754
 3418W        W19552  10.766   4.155  16.102 -0.1567  0.1598  0.2802
 3419W        W19553   4.421   3.683  14.731 -0.2008  0.0476 -0.1599
 3420W        W19554  14.297   9.381   4.562  0.1311  0.0373  0.1156
 3421W        W19555   3.666   7.854  17.042 -0.0462  0.1546 -0.0062
 3422W        W19556   8.323  13.582   0.360  0.2507  0.1062 -0.0565
 3423W        W19557   9.932  11.898  12.213 -0.1860 -0.0441 -0.0366
 3424W        W19558  10.889   4.191  11.786 -0.1670 -0.1745 -0.2860
 3425W        W19559   2.380  14.547   4.031  0.1360  0.1850  0.4429
 3426W        W19560  14.400  16.982   1.165  0.0939  0.0163  0.0818
 3427W        W19561   4.830  12.460   1.033 -0.2823 -0.2049 -0.0489
 3428W        W19562  13.978   6.639  12.889 -0.0857  0.0730  0.0449
 3429W        W19563  12.197   0.407   5.395  0.2124 -0.1404 -0.1252
 3430W        W19564  13.132  15.397  14.315 -0.0608 -0.2260  0.1059
 3431W        W19565  16.776   9.265  14.509  0.1212 -0.0739 -0.0293
 3432W        W19566  11.478  10.321   0.127  0.4909 -0.1412  0.0724
 3433W        W19567   8.151  11.293  14.944  0.0145  0.0466 -0.0757
 3434W        W19568   8.102   5.254  12.111  0.0945  0.1771 -0.1049
 3435W        W19569  14.871  17.589   0.590 -0.0080  0.1783  0.1897
 3436W        W19570  15.456   0.290   3.684 -0.1462 -0.1759 -0.1467
 3437W        W19571   6.333   3.031   1.362 -0.1668  0.2143  0.0602
 3438W        W19572  17.380  13.629   1.530  0.2833 -0.0735 -0.1005
 3439W        W19573   4.599  13.367  12.336  0.0048  0.4358 -0.4678
 3440W        W19574   4.663   7.848   1.140 -0.0330 -0.0533 -0.0107
 3441W        W19575  16.087   3.408   4.308  0.2319 -0.1032 -0.4496
 3442W        W19576  10.714  12.563   0.076  0.1380  0.5205 -0.1478
 3443W        W19577   6.003   2.903   3.248  0.1382  0.1032 -0.1784
 3444W        W19578  10.418   6.311   2.295  0.2143  0.3553 -0.2131
 3445W        W19579  11.034  12.250  16.878 -0.1167 -0.3437 -0.1374
 3446W        W19580   9.088   5.318   4.158  0.2030 -0.1399 -0.2001
 3447W        W19581   0.661  13.687   1.936 -0.4024  0.0147  0.0472
 3448W        W19582  12.049   0.928  12.873  0.0718  0.0108  0.0404
 3449W        W19583  10.194  11.637   3.748 -0.1462 -0.1626  0.3991
 3450W        W19584   8.131  16.283  13.033  0.1642 -0.1486 -0.2342
 3451W        W19585   2.186   2.161  12.981  0.1536  0.2515  0.1385
 3452W        W19586  16.992   4.590  16.488  0.0978 -0.2283  0.1343
 3453W        W19587   6.883   0.552   2.352 -0.0841 -0.1250  0.0042
 3454W        W19588  10.617   0.607  13.392  0.1381  0.0239 -0.2469
 3455W        W19589  10.596   7.269   2.110  0.1567 -0.1393 -0.0020
 3456W        W19590  16.767  13.140  15.666  0.0004  0.4060  0.1796
 3457W        W19591   6.884   5.067  13.612 -0.0207 -0.1572  0.2135
 3458W        W19592   2.824  11.590  12.254  0.2838 -0.1888  0.2702
 3459W        W19593   3.987   7.134  12.619 -0.0032  0.0598  0.0725
 3460W        W19594   6.460  11.644   1.747  0.3469  0.3023 -0.2851
 3461W        W19595   9.262  10.237  16.985 -0.2224  0.1321  0.1831
 3462W        W19596   9.185   4.634  15.104  0.2195  0.5784  0.1995
 3463W        W19597  16.621  16.709   0.404  0.1717 -0.0433  0.1227
 3464W        W19598  13.890  12.042  16.277 -0.1105  0.0959  0.0471
 3465W        W19599  14.291  12.817   2.027  0.1795 -0.0497  0.1621
 3466W        W19600  15.817  14.545  15.425 -0.2159  0.0352  0.3969
 3467W        W19601  13.591   7.879   3.944  0.0888 -0.0491  0.0303
 3468W        W19602   9.693   4.203   0.209 -0.0281 -0.1241 -0.2473
 3469W        W19603  10.389   5.097  16.932  0.1704 -0.1616 -0.0654
 3470W        W19604   0.187  12.242   2.819 -0.0476 -0.2911 -0.0882
 3471W        W19605  14.291   5.791   1.588  0.0305 -0.0314 -0.0709
 3472W        W19606  16.216   1.174   4.879  0.1276 -0.1875 -0.0069
 3473W        W19607  11.859  14.809  12.112  0.0741  0.1231  0.0911
 3474W        W19608  15.779  13.564   2.962  0.4382  0.3900  0.2366
 3475W        W19609   5.958  10.095  16.105 -0.1948  0.2365  0.0873
 3476W        W19610   5.916  15.298  15.206 -0.1128 -0.0229 -0.1942
 3477W        W19611  16.620   6.019   3.402 -0.1278 -0.0388 -0.1853
 3478W        W19612   2.079  16.635   0.381 -0.0931  0.0970 -0.0463
 3479W        W19613   1.479  11.859   5.045 -0.1676  0.1985 -0.3088
 3480W        W19614  13.163  12.697  12.306  0.2152  0.0126 -0.0132
 3481W        W19615   4.011   1.183   1.632 -0.0326 -0.0668 -0.0730
 3482W        W19616   3.191   1.226   3.538  0.0791 -0.3835  0.2117
 3483W        W19617  15.424   7.648  11.824  0.2041  0.1564  0.0485
 3484W        W19618   6.283   5.307   1.063 -0.1251 -0.0430 -0.2565
 3485W        W19619  16.358   8.991  11.832  0.0961 -0.2650 -0.1365
 3486W        W19620  10.379  17.038   0.316  0.1830 -0.0993  0.0041
 3487W        W19621  14.037  16.607  12.256 -0.0113 -0.4063  0.0508
 3488W        W19622   7.330   5.170  14.903  0.2393  0.0226  0.1069
 3489W        W19623   3.898  16.017  15.095 -0.0580 -0.2030 -0.0752
 3490W        W19624  13.942   6.142   4.681  0.1309  0.3419 -0.1682
 3491W        W19625   1.562  15.918   5.472 -0.2540  0.2926 -0.0683
 3492W        W19626   4.192  16.595   1.298  0.0447 -0.0966 -0.0401
 3493W        W19627   2.536  11.107   2.714  0.1537  0.1970  0.1424
 3494W        W19628   6.139   0.472   3.553  0.1256 -0.3394 -0.2128
 3495W        W19629   6.958   0.698  15.464 -0.0446  0.2172  0.2302
 3496W        W19630   1.585   7.569  11.368 -0.0154  0.1094 -0.1800
 3497W        W19631   7.000   2.684   0.901  0.0575  0.4521 -0.0100
 3498W        W19632   6.761   4.573   6.473 -0.1327 -0.3252  0.0984
 3499W        W19633   9.199   0.667   5.664 -0.1303  0.1070  0.0314
 3500W        W19634  14.603   8.517  12.034  0.0326 -0.2814 -0.1234
 3501W        W19635  16.057  12.547   0.682  0.0883  0.1183 -0.0555
 3502W        W19636   2.726   4.911   5.688 -0.4013 -0.1597 -0.0041
 3503W        W19637   4.695  13.207   0.383  0.2708  0.0877  0.1069
 3504W        W19638   4.541  13.634   3.004 -0.0707  0.1476  0.4190
 3505W        W19639   2.279  14.179   5.014  0.1972 -0.1732 -0.1502
 3506W        W19640   8.687  10.577   5.195  0.2207  0.2428  0.2791
 3507W        W19641  15.300   5.289  15.022  0.1255 -0.3681  0.2257
 3508W        W19642   4.630   2.656   2.408 -0.0518  0.1918 -0.0372
 3509W        W19643   3.928  12.291   0.702  0.1225 -0.0155  0.0946
 3510W        W19644   0.222   5.242  15.405  0.0018  0.3123  0.0850
 3511W        W19645   5.498   2.093   2.118 -0.2132  0.0873 -0.0308
 3512W        W19646  11.594  16.993  14.048 -0.0384 -0.2227  0.3465
 3513W        W19647  16.401  13.024   2.369  0.2181 -0.2056  0.0119
 3514W        W19648   2.412   8.014   1.650  0.0998 -0.0856 -0.2424
 3515W        W19649   0.624  10.891   2.278 -0.1502 -0.0635  0.1303
 3516W        W19650  11.495  13.652   3.640 -0.1483 -0.0315 -0.0372
 3517W        W19651   6.619   1.859   1.750 -0.1074  0.1581  0.3012
 3518W        W19652  10.618  11.759  14.051  0.0220 -0.0026 -0.3414
 3519W        W19653  13.248   4.399  15.651  0.0831  0.1252  0.1435
 3520W        W19654   6.709  14.535   1.079 -0.1100 -0.0409  0.0076
 3521W        W19655   5.657   3.032  12.328  0.0079  0.0317  0.0641
 3522W        W19656   4.687  12.840  12.931 -0.0535  0.2679  0.2851
 3523W        W19657   7.874   8.286   3.754 -0.1495 -0.0999  0.1695
 3524W        W19658   7.227  11.942   1.158 -0.5171  0.3107 -0.1574
 3525W        W19659   2.454  10.926   2.245 -0.1024  0.0170  0.0630
 3526W        W19660   5.703  16.201   0.102 -0.0246 -0.0964 -0.1565
 3527W        W19661  16.958  13.966   3.972  0.0496  0.0809 -0.3237
 3528W        W19662   3.118  13.407  13.328 -0.2440 -0.0651  0.3518
 3529W        W19663   6.806   7.121  11.732 -0.0004  0.0557  0.1827
 3530W        W19664   6.571  17.655   4.702 -0.0022  0.0226 -0.0171
 3531W        W19665   3.662   4.361   2.635 -0.1593  0.3810  0.1845
 3532W        W19666   3.155  12.351  13.769 -0.0082 -0.1420 -0.0509
 3533W        W19667   3.342  11.357  14.032  0.0507  0.0396 -0.0952
 3534W        W19668   0.809  10.428   2.267 -0.0205 -0.1502  0.1069
 3535W        W19669   8.444   1.623   0.806 -0.0672 -0.1280  0.1464
 3536W        W19670   0.026  12.610  16.713 -0.4000  0.1268 -0.2738
 3537W        W19671  11.266  12.200   5.784 -0.0310  0.0677 -0.0884
 3538W        W19672   3.830   8.176   4.860 -0.1544 -0.1456 -0.1819
 3539W        W19673  13.004  16.553   0.886  0.2810 -0.2285 -0.0583
 3540W        W19674   4.315  12.108  14.618 -0.0480 -0.1098  0.0794
 3541W        W19675   7.311   5.901  16.773  0.2020  0.1805  0.2232
 3542W        W19676   5.279   7.437  11.605  0.2018  0.1988 -0.0603
 3543W        W19677   7.509  14.884   4.536 -0.2115 -0.0963  0.1504
 3544W        W19678   6.678   2.400   0.259 -0.2272  0.0093 -0.2331
 3545W        W19679   3.517  11.243   5.290  0.0343  0.0084  0.1299
 3546W        W19680   3.036   9.150   4.498 -0.2326  0.1089 -0.0478
 3547W        W19681   8.625  14.775  13.903  0.0695  0.4678  0.1447
 3548W        W19682   0.912  12.754  17.016  0.0876 -0.3179  0.3306
 3549W        W19683   1.769   9.657   4.422  0.3422  0.0476  0.1186
 3550W        W19684   0.543   7.273   3.416  0.0263  0.2039  0.3619
 3551W        W19685  16.049  17.111  16.040  0.1333  0.1489  0.3800
 3552W        W19686   9.933   9.648  15.046  0.0480  0.1372 -0.3433
 3553W        W19687   8.109   5.315   4.879  0.1217  0.1149 -0.1024
 3554W        W19688   2.869   7.286   4.516 -0.2194 -0.0148 -0.0444
 3555W        W19689   6.772   5.335  15.622 -0.0705  0.1929  0.1476
 3556W        W19690   7.433   7.286   0.475  0.3379 -0.0986  0.2400
 3557W        W19691   6.378  14.825   4.682 -0.1185  0.1547 -0.0174
 3558W        W19692  14.836   1.591  13.321  0.0092 -0.2668  0.2538
 3559W        W19693  12.796   1.061   4.167 -0.0868 -0.0339 -0.1079
 3560W        W19694   4.212   4.418  11.664 -0.1479  0.1909  0.3695
 3561W        W19695   9.150   7.188  10.999  0.4567  0.0521 -0.0314
 3562W        W19696  14.588   6.464   3.381 -0.1289 -0.0826 -0.0074
 3563W        W19697  12.345   4.146  15.200  0.3682  0.1000  0.1833
 3564W        W19698  14.233   1.069  13.903 -0.0737 -0.1901 -0.1328
 3565W        W19699  14.931   5.154   5.766  0.1064 -0.0771 -0.0822
 3566W        W19700   5.444  12.377  13.666  0.3042  0.1314  0.0533
 3567W        W19701   4.252  14.544   5.933 -0.4675  0.4400  0.0629
 3568W        W19702   2.596  11.286  15.459 -0.0224  0.1069  0.1146
 3569W        W19703   8.680  15.572   4.506  0.0609 -0.1633 -0.1369
 3570W        W19704   6.290   0.243   1.804 -0.0661  0.5590 -0.0408
 3571W        W19705   1.552   5.279   1.545 -0.1682  0.1659 -0.1080
 3572W        W19706   9.920  16.353  16.570 -0.1012 -0.0239  0.1185
 3573W        W19707   3.172   1.037  12.685 -0.3581 -0.1622  0.0911
 3574W        W19708   9.928   9.834  15.741  0.0757 -0.0721 -0.0978
 3575W        W19709   4.252   5.912   2.141 -0.0616 -0.0173  0.1355
 3576W        W19710  10.531   2.839  12.447  0.0913 -0.2084  0.2817
 3577W        W19711  10.149   3.812  16.788 -0.1222 -0.0949  0.1336
 3578W        W19712  15.047   9.406  12.960 -0.1169  0.1319 -0.1414
 3579W        W19713   3.831   5.886  13.889  0.0281  0.1130 -0.1510
 3580W        W19714  16.438  12.507   2.237  0.3475 -0.2290 -0.2507
 3581W        W19715   8.656   3.974   4.112  0.2434  0.1411  0.0894
 3582W        W19716  15.307   7.916  12.932  0.1809  0.0884  0.0131
 3583W        W19717  14.976  17.404  13.542 -0.1892 -0.1024 -0.0345
 3584W        W19718  12.881  16.130   3.026  0.0318 -0.0823  0.0716
 3585W        W19719  17.162  13.830   0.550  0.0781  0.3651  0.0367
 3586W        W19720  15.738  16.603   3.583 -0.3008 -0.3669  0.0093
 3587W        W19721   1.264  11.242   3.892  0.0991  0.5316  0.1239
 3588W        W19722   7.741  13.368   1.450  0.2822  0.1805  0.0261
 3589W        W19723   8.797  10.246   4.621  0.0329 -0.0026 -0.0188
 3590W        W19724   4.521   3.576   4.921 -0.2107 -0.1593 -0.0163
 3591W        W19725   1.365   6.023   5.859 -0.1012  0.2552  0.1682
 3592W        W19726   7.747  14.386   0.132  0.2383  0.0140  0.1601
 3593W        W19727  14.996   0.199  17.139  0.1645 -0.0837 -0.1806
 3594W        W19728   0.743   9.537  13.125  0.2597 -0.0381 -0.0249
 3595W        W19729  14.685   0.415  14.005  0.3532  0.0461 -0.0237
 3596W        W19730   0.496   6.042   1.775 -0.0458 -0.0484 -0.0176
 3597W        W19731   7.256  12.680  15.585  0.1067  0.1157 -0.2812
 3598W        W19732   2.650  13.627   5.687  0.1546  0.3607 -0.0638
 3599W        W19733   3.560   7.255   1.358 -0.0921  0.0370 -0.0458
 3600W        W19734   1.124   7.812   5.718 -0.1903  0.0983  0.1155
 3601W        W19735   3.435   7.088  16.337 -0.2464  0.1082  0.2055
 3602W        W19736   9.221   3.222  16.107  0.0612  0.0662  0.0320
 3603W        W19737   0.108   2.537  15.782 -0.2237  0.0242 -0.0976
 3604W        W19738   0.143   4.848  14.504  0.3927 -0.1069 -0.3177
 3605W        W19739  10.436   9.805   3.814 -0.1413  0.1804  0.0878
 3606W        W19740  16.506   7.731  13.482 -0.1109 -0.0982 -0.0965
 3607W        W19741  14.147   7.441  16.682 -0.1549 -0.1271  0.0331
 3608W        W19742  13.447  13.874   3.471  0.0599  0.3187  0.1889
 3609W        W19743  15.367  10.471  14.356  0.0739 -0.1465 -0.1229
 3610W        W19744   2.633   7.918   4.604  0.3178 -0.1231  0.1144
 3611W        W19745   9.928   8.362   0.054  0.0027  0.0062 -0.0160
 3612W        W19746   8.124  14.460  15.720  0.1434 -0.1720  0.0361
 3613W        W19747   0.107   1.640  15.251 -0.0359 -0.0031  0.0598
 3614W        W19748   7.848  10.172  13.219  0.0019 -0.1727 -0.0944
 3615W        W19749   0.935  15.506   3.449 -0.2726 -0.0808 -0.2892
 3616W        W19750   6.554  17.487  12.977  0.0752 -0.0341 -0.2226
 3617W        W19751  15.918   3.885  14.298 -0.2691 -0.1940 -0.0354
 3618W        W19752   7.567  12.566  14.400  0.1319 -0.2846 -0.1203
 3619W        W19753  15.617  16.214  15.414  0.1336  0.5252  0.0118
 3620W        W19754  16.878  14.222   5.895  0.0035  0.0515 -0.0993
 3621W        W19755   8.443   3.718   1.388 -0.1840  0.0174  0.1895
 3622W        W19756  16.812   9.595   2.265  0.0917 -0.1192  0.0591
 3623W        W19757  15.280  17.070  17.146  0.1473 -0.1596 -0.1941
 3624W        W19758  16.353   1.306  14.342  0.1473  0.0205 -0.0109
 3625W        W19759  13.699   8.639  14.707  0.2156  0.0298  0.0779
 3626W        W19760  11.974   3.376  16.892  0.6389 -0.0609  0.1719
 3627W        W19761  17.538  12.148   3.216 -0.1536  0.0708  0.0801
 3628W        W19762   7.750  13.867   2.229 -0.1490 -0.2626  0.0143
 3629W        W19763  14.843  10.182   0.525  0.1118 -0.1717 -0.1065
 3630W        W19764  17.608   5.831   4.979  0.1343 -0.0747  0.1034
 3631W        W19765   5.385   0.570   4.873  0.3099  0.1471  0.0735
 3632W        W19766  14.142   9.676  10.722  0.0435 -0.0962 -0.3764
 3633W        W19767   1.466   2.673  16.548 -0.1876  0.1844  0.0462
 3634W        W19768   8.414   4.662  14.032 -0.3107  0.1611  0.2987
 3635W        W19769  14.236  14.625  14.033  0.1759 -0.0791 -0.2850
 3636W        W19770   8.082   8.472  16.906 -0.1120 -0.3341  0.4268
 3637W        W19771   4.086  16.941   0.178 -0.2131  0.1174  0.0599
 3638W        W19772  11.416   4.572  11.449  0.1929 -0.2665 -0.0696
 3639W        W19773  16.085   6.405   4.228 -0.0265  0.1353 -0.0454
 3640W        W19774   1.405   2.516   3.950  0.2660  0.1384  0.2391
 3641W        W19775  17.349   5.108   3.478  0.3209  0.2291 -0.0689
 3642W        W19776   4.881  11.410   4.104 -0.0200  0.1213  0.0633
 3643W        W19777  10.462  11.847  12.055 -0.0950  0.0294 -0.0584
 3644W        W19778  10.854  11.290  13.912  0.0023 -0.0070 -0.0240
 3645W        W19779  14.457   3.947   5.774 -0.1299 -0.0790  0.1518
 3646W        W19780  13.697   6.945  12.518  0.2141  0.4986  0.0330
 3647W        W19781  10.590   8.766  13.654  0.0946 -0.4660 -0.0235
 3648W        W19782  17.054   0.144   2.912  0.0649  0.1601 -0.1416
 3649W        W19783   4.078  17.413   5.312 -0.0613  0.0138  0.1390
 3650W        W19784   8.173   9.497  13.004 -0.0415  0.1070 -0.1686
 3651W        W19785   1.147  13.194   0.527  0.0737 -0.1407 -0.2325
 3652W        W19786   8.008  13.042  16.672 -0.1035  0.1269 -0.0137
 3653W        W19787  12.825   8.843   3.012 -0.0498 -0.1295  0.2129
 3654W        W19788   7.543   3.861  15.881  0.2689  0.1064 -0.0208
 3655W        W19789   5.699  13.763   4.537  0.3450 -0.1854 -0.0719
 3656W        W19790   0.252   2.043  14.805 -0.1843  0.0374 -0.2564
 3657W        W19791   2.710   0.969  12.381 -0.0443 -0.2051 -0.3669
 3658W        W19792  14.141  12.462  10.822 -0.1237 -0.1191  0.2221
 3659W        W19793   7.811  15.966   6.122  0.0623  0.0741 -0.1306
 3660W        W19794   1.874   9.166   4.158 -0.1039 -0.1376  0.0862
 3661W        W19795   6.189  17.350  14.603 -0.1306 -0.0058  0.0151
 3662W        W19796  16.991   3.599  15.682 -0.2848  0.0293 -0.1094
 3663W        W19797   8.376  16.865  15.773 -0.0593 -0.1201 -0.3188
 3664W        W19798  13.776  14.246  16.590 -0.0357  0.1364 -0.1274
 3665W        W19799   1.925  14.124   0.434 -0.0212  0.1622  0.0368
 3666W        W19800   5.360  11.081  16.998  0.0569  0.2469  0.0561
 3667W        W19801   3.976   1.048   0.487  0.1994  0.4146  0.0547
 3668W        W19802  13.044  14.052  12.117  0.2610 -0.2861 -0.1529
 3669W        W19803   8.065   9.666  13.485  0.1197  0.0627 -0.1371
 3670W        W19804   9.433   8.436  11.556 -0.1829  0.1953 -0.1433
 3671W        W19805   4.138  10.606   4.536 -0.4789 -0.5652 -0.0572
 3672W        W19806   4.429   5.067  12.721  0.1258 -0.0046  0.2059
 3673W        W19807   2.494  15.865  12.006  0.1260  0.0024  0.4241
 3674W        W19808  12.231  15.416   1.209  0.1217 -0.1032 -0.1096
 3675W        W19809  12.321   5.869   4.151 -0.0335 -0.0267 -0.0938
 3676W        W19810  13.756  17.005   0.126 -0.0852  0.0080 -0.2138
 3677W        W19811   9.860  16.318  12.942 -0.0027 -0.0276  0.0814
 3678W        W19812   2.492   5.684  12.562  0.3383  0.2478  0.1307
 3679W        W19813  13.971  11.828   2.533  0.1144 -0.0323 -0.1488
 3680W        W19814   9.552  11.954   1.290  0.0524  0.1342  0.0971
 3681W        W19815  10.670   6.783   4.497  0.2115  0.0925  0.0138
 3682W        W19816   7.100   7.640   3.939 -0.0361  0.0409 -0.3471
 3683W        W19817   5.595  15.377  15.851 -0.3504 -0.3911 -0.2394
 3684W        W19818  15.448  13.646  14.788 -0.1406  0.1239  0.0686
 3685W        W19819   4.862  12.001   5.368  0.0402 -0.1590 -0.0421
 3686W        W19820   4.051   9.413   2.884  0.0977  0.1278 -0.0297
 3687W        W19821   9.593  16.333   4.051  0.0687  0.0065  0.4267
 3688W        W19822   8.693  15.418   3.962  0.1187  0.0123 -0.3503
 3689W        W19823  17.307   9.737  12.057  0.0582 -0.0516  0.0453
 3690W        W19824  10.382   9.539  13.285 -0.0028 -0.5146 -0.1369
 3691W        W19825  12.818  16.627  12.393  0.0125  0.4635  0.2502
 3692W        W19826  14.218   8.911  14.034 -0.0363 -0.0267 -0.0885
 3693W        W19827  10.814  15.822  13.398 -0.2398  0.0413 -0.0714
 3694W        W19828   0.268  11.609  13.544 -0.0051  0.0321 -0.1951
 3695W        W19829   5.765   8.172   2.525  0.3151  0.2741  0.3917
 3696W        W19830   6.412  14.510  12.649  0.1684  0.2239  0.1639
 3697W        W19831   5.332   8.665  16.382 -0.1694 -0.2463  0.0738
 3698W        W19832   4.168  14.310  15.914 -0.0815  0.1349  0.0251
 3699W        W19833  16.802   8.940  16.185 -0.0408 -0.1148  0.1226
 3700W        W19834   6.580   7.723  15.001 -0.1273  0.2937  0.0996
 3701W        W19835   3.141   9.330  13.877  0.2116 -0.0116  0.0944
 3702W        W19836   4.651   4.868   5.128 -0.0119 -0.3881  0.1375
 3703W        W19837   4.515   9.012   0.242  0.0140  0.0635  0.3136
 3704W        W19838   1.040   7.908   2.428  0.0884  0.0102  0.2155
 3705W        W19839   0.136  12.295  15.791 -0.2430  0.2405 -0.1054
 3706W        W19840   3.771   6.569  14.691 -0.2134  0.0881  0.0729
 3707W        W19841   1.130  15.376  11.936  0.2843 -0.0849  0.0639
 3708W        W19842   1.385   5.248  13.239  0.2781  0.1833 -0.0078
 3709W        W19843  10.545   7.830  12.600 -0.2300 -0.1311  0.0448
 3710W        W19844  12.562   3.691   1.325  0.1142 -0.0163 -0.0596
 3711W        W19845  11.788  13.103  15.505  0.0501  0.3683 -0.0858
 3712W        W19846   9.041   4.612   3.061 -0.1010 -0.1747  0.0152
 3713W        W19847  13.560   9.915   0.699  0.2127 -0.1937 -0.0597
 3714W        W19848  16.404  17.074  16.374  0.1804 -0.2575 -0.0729
 3715W        W19849  13.848   6.241  12.444  0.2101 -0.1569  0.2474
 3716W        W19850  13.304  17.443  14.931 -0.0275 -0.1172  0.1713
 3717W        W19851  16.556   4.770  14.282  0.2593  0.0254 -0.2921
 3718W        W19852  17.491   4.607  16.567  0.0410  0.0894 -0.0956
 3719W        W19853   2.619  13.655  16.498 -0.1520 -0.3564  0.1850
 3720W        W19854   4.371  13.969  14.149  0.0192  0.2079  0.0302
 3721W        W19855  14.568   0.145  15.318  0.2169  0.0870  0.1528
 3722W        W19856  16.765   7.778  14.391  0.0344  0.0873 -0.3346
 3723W        W19857   9.931  15.161   5.306 -0.1376  0.0400 -0.1275
 3724W        W19858  15.788  15.670   5.094  0.0743  0.2226  0.0199
 3725W        W19859  17.467   0.396  17.004 -0.3665  0.2950 -0.2596
 3726W        W19860   9.862  10.823  13.266  0.0275 -0.0866 -0.0711
 3727W        W19861  10.327   8.288  13.849 -0.0986 -0.0380 -0.1307
 3728W        W19862  10.142  16.997   4.301  0.3235  0.1925  0.1024
 3729W        W19863  11.512   2.249   0.908 -0.1395 -0.0365  0.3656
 3730W        W19864  16.781   8.921  12.925  0.0219  0.0889 -0.1967
 3731W        W19865   5.203   0.229  14.288 -0.1454  0.0818 -0.2731
 3732W        W19866   3.293   7.943  14.087  0.0584 -0.0722 -0.1026
 3733W        W19867  14.382  15.927   0.663 -0.0647 -0.3287 -0.4824
 3734W        W19868  11.647  15.938   2.220 -0.0273 -0.3595 -0.1573
 3735W        W19869  14.267  14.362   1.400  0.1652  0.3283  0.0564
 3736W        W19870  13.910   4.892  15.407 -0.2129 -0.0411 -0.2475
 3737W        W19871  16.125  10.716   1.397  0.0155  0.2752 -0.0064
 3738W        W19872  11.562  13.181  16.616  0.1038  0.1614 -0.1951
 3739W        W19873   2.450  15.159  13.528 -0.0824 -0.0864 -0.5261
 3740W        W19874   2.959   5.410   4.436  0.1194 -0.0536  0.1344
 3741W        W19875   0.456  14.792   5.645  0.0485  0.1399  0.3811
 3742W        W19876  11.448   1.673  16.024 -0.3693  0.0035 -0.2031
 3743W        W19877   5.409   0.161   5.809  0.0051 -0.0893  0.0726
 3744W        W19878   0.786   7.044   5.893 -0.1910 -0.0480 -0.1153
 3745W        W19879   2.550   6.905  12.109  0.0865 -0.4176  0.0638
 3746W        W19880   5.863  15.547  12.969 -0.0310 -0.1770 -0.0484
 3747W        W19881  12.229  11.021   4.279  0.0740  0.0483 -0.1952
 3748W        W19882   2.682   6.979  15.020 -0.0576  0.3191  0.2132
 3749W        W19883  14.241   9.252  13.024  0.1833 -0.0777  0.1036
 3750W        W19884   1.876   1.764   3.156  0.3187  0.0577 -0.0076
 3751W        W19885   3.416   6.896   3.514  0.1650  0.0677 -0.1127
 3752W        W19886   9.179   9.889   0.970 -0.1036  0.2314  0.0691
 3753W        W19887   6.454  13.424  15.834  0.4563 -0.0349 -0.0404
 3754W        W19888  14.126   8.057  13.560  0.1693  0.1306 -0.1174
 3755W        W19889   1.793   4.742  15.185  0.0535  0.3386  0.1001
 3756W        W19890  15.438   7.938   0.595 -0.0164 -0.3634 -0.0835
 3757W        W19891   4.339  13.317   2.032 -0.0352  0.1565 -0.1982
 3758W        W19892   3.157   2.281   4.486 -0.1082 -0.0423  0.0465
 3759W        W19893  12.541   7.787  12.692 -0.2877  0.0578 -0.0307
 3760W        W19894  13.509   2.509   1.237  0.0674 -0.0124 -0.1936
 3761W        W19895   9.041   2.342   1.254  0.0610 -0.4656 -0.2466
 3762W        W19896   4.534   5.796   4.304 -0.0053  0.1548  0.0238
 3763W        W19897   1.000   0.924   0.413 -0.1301  0.0460 -0.1843
 3764W        W19898   2.118   8.378  14.973  0.0610  0.0593 -0.1403
 3765W        W19899  10.421   1.050   2.678 -0.1066  0.3282  0.1692
 3766W        W19900   0.399   0.989  12.006 -0.0993 -0.2386 -0.0549
 3767W        W19901   6.885   8.085   0.640  0.0725  0.2682  0.1864
 3768W        W19902   7.589   2.974   4.312 -0.0976 -0.2900  0.1159
 3769W        W19903   7.200   1.812  14.664 -0.0214  0.0924  0.0288
 3770W        W19904  16.603   4.318  13.999  0.1963 -0.2349 -0.1592
 3771W        W19905  10.155   0.751   2.013  0.0547 -0.0206 -0.3175
 3772W        W19906   2.770  15.603   0.858  0.0138  0.1707  0.0420
 3773W        W19907   2.778   0.626  11.810  0.3034  0.1878 -0.0817
 3774W        W19908   7.864   8.021   1.786  0.1314 -0.1576 -0.1926
 3775W        W19909  12.285  14.993  15.419 -0.1568 -0.0856  0.1369
 3776W        W19910  16.389  11.310   4.633 -0.0945 -0.2655  0.2330
 3777W        W19911   3.599  15.909  13.284 -0.2130 -0.1375 -0.2223
 3778W        W19912   5.119   2.472   2.278 -0.1378 -0.1927 -0.1359
 3779W        W19913  14.796   1.830   5.941 -0.0102 -0.3655  0.3797
 3780W        W19914  11.490  10.174  11.698 -0.1069  0.2716  0.4413
 3781W        W19915   1.106   3.134   4.072 -0.2336 -0.1926  0.0302
 3782W        W19916  13.589  13.908   3.956  0.0259  0.0782  0.0349
 3783W        W19917   3.438   3.935  15.618  0.2821 -0.4060  0.3588
 3784W        W19918  16.057   0.579  13.007  0.0635 -0.3274 -0.0037
 3785W        W19919  16.560   6.828  13.062 -0.0782 -0.1468  0.1311
 3786W        W19920  11.369   2.491  16.261 -0.3405 -0.0479 -0.2244
 3787W        W19921   5.509   7.531  14.587 -0.0527  0.0453 -0.1173
 3788W        W19922  16.175   8.778   3.987 -0.0245 -0.2688  0.2457
 3789W        W19923  10.103   4.867  14.744  0.1269  0.0387 -0.1446
 3790W        W19924  14.697  14.789  16.573  0.0408  0.0351 -0.1574
 3791W        W19925  10.302  16.117  12.807 -0.2491 -0.1801 -0.3349
 3792W        W19926   8.483   1.580   1.301  0.1811  0.1841  0.0678
 3793W        W19927   1.578   9.003  13.680 -0.0179  0.0019 -0.1036
 3794W        W19928  14.936   9.055   1.178 -0.1847  0.1296  0.2098
 3795W        W19929   7.298  11.227   1.985  0.0925 -0.2476 -0.0885
 3796W        W19930  13.308   7.805  16.697 -0.1358 -0.0087  0.2264
 3797W        W19931   2.396   9.481   5.387  0.0194  0.1920  0.0290
 3798W        W19932  14.491  14.233  12.094  0.0319 -0.0002 -0.2357
 3799W        W19933  16.974   7.162   4.335  0.1746 -0.1195 -0.1037
 3800W        W19934  12.614  15.145  12.208  0.4680  0.0399 -0.0099
 3801W        W19935   2.966  15.915   3.437 -0.0717 -0.0344 -0.0461
 3802W        W19936   0.062  17.300   2.043 -0.0280  0.1314 -0.2641
 3803W        W19937   4.133   8.099   3.931  0.0323  0.0841 -0.0479
 3804W        W19938  15.174   1.208   0.487 -0.1982 -0.1468  0.0094
 3805W        W19939   2.744   6.364   3.167  0.0913  0.1812 -0.0796
 3806W        W19940   4.614   9.477  15.748  0.2211  0.0744  0.1389
 3807W        W19941  16.926   1.078   4.364  0.0146 -0.0893 -0.1818
 3808W        W19942  10.585   5.806  15.258 -0.1315 -0.2948  0.1699
 3809W        W19943  11.204   3.988   2.859  0.0338  0.2298  0.1274
 3810W        W19944   5.753  13.222  14.626 -0.2704 -0.0838  0.1658
 3811W        W19945   5.470   0.066   3.987 -0.3320 -0.0270  0.3590
 3812W        W19946   9.127  10.626   2.484 -0.3502 -0.2238 -0.0934
 3813W        W19947  16.392   3.243  12.336  0.0637  0.2773  0.1957
 3814W        W19948   4.579  10.394  16.665  0.0341 -0.0849  0.0088
 3815W        W19949   2.352  11.331  13.501 -0.1188 -0.0612 -0.0431
 3816W        W19950  11.945   3.372  15.159  0.0751  0.0552  0.1180
 3817W        W19951  13.049   2.669  13.658  0.0049 -0.0156  0.0557
 3818W        W19952   2.758   1.325   1.177 -0.1346  0.0292  0.1691
 3819W        W19953   3.598  13.206   0.883 -0.0932 -0.2744  0.1624
 3820W        W19954  10.177   2.281  13.012 -0.3462  0.0826 -0.3328
 3821W        W19955  14.664  10.851   0.939 -0.1166  0.0692 -0.2647
 3822W        W19956   5.979   2.347  15.464  0.1649  0.2775  0.2016
 3823W        W19957   1.130   8.994  15.336 -0.0303  0.2024 -0.1631
 3824W        W19958   5.380   3.139  12.729 -0.1165 -0.0155 -0.0647
 3825W        W19959   3.815   8.483   0.440 -0.0170  0.1673  0.1257
 3826W        W19960   4.248   7.038  11.669 -0.0553 -0.2744 -0.2682
 3827W        W19961   5.775  11.695   3.018 -0.3240 -0.1129  0.0331
 3828W        W19962   3.079  17.338   1.237  0.1799 -0.1626  0.3555
 3829W        W19963   5.141  16.203  13.305 -0.0543  0.0042  0.0988
 3830W        W19964  13.186  15.787  15.267  0.0525  0.0493 -0.2191
 3831W        W19965  12.576   8.179   2.963 -0.2450 -0.0361 -0.2211
 3832W        W19966  14.649   7.639  17.099 -0.0622 -0.0213  0.2958
 3833W        W19967  11.982   7.333   2.138  0.2455 -0.0493  0.0895
 3834W        W19968  12.365  15.692  15.798  0.1641  0.1313  0.1342
 3835W        W19969  10.226   7.645   0.769 -0.4197  0.0755 -0.2879
 3836W        W19970  11.848   6.157   2.620  0.1073  0.1621 -0.2219
 3837W        W19971  10.447  10.933   5.130  0.2068  0.1129 -0.1331
 3838W        W19972  14.763   4.916   0.935  0.2077 -0.0969  0.0747
 3839W        W19973   7.626  12.086  14.245  0.0093 -0.1115 -0.1206
 3840W        W19974   6.479  16.937  16.922  0.0600 -0.1377  0.0417
 3841W        W19975   9.022  15.675  13.568  0.0884  0.1551  0.0583
 3842W        W19976   1.858   7.296   1.691  0.0152 -0.0669  0.0307
 3843W        W19977   8.951   8.603  13.725  0.0174 -0.2316 -0.0443
 3844W        W19978  15.419   8.621  15.125  0.0143  0.0785  0.1460
 3845W        W19979   1.309  17.278   1.032 -0.2267  0.0388 -0.1345
 3846W        W19980  11.068   3.166  11.630  0.0085 -0.0211 -0.1694
 3847W        W19981  12.193   2.222   5.920  0.2071  0.0864  0.1161
 3848W        W19982  13.042   9.026   2.107 -0.0356 -0.2048 -0.1776
 3849W        W19983  15.983  15.019  16.227 -0.0195 -0.1832 -0.1061
 3850W        W19984   7.254   6.001   2.766  0.1644  0.0409 -0.0967
 3851W        W19985   7.241   9.412   1.969 -0.0871 -0.2927 -0.2477
 3852W        W19986   6.658   6.631   4.668  0.1676  0.1225 -0.4527
 3853W        W19987   1.820   4.264  16.858 -0.0708  0.2390 -0.1721
 3854W        W19988  11.867   3.992  13.530  0.0413 -0.0471  0.2001
 3855W        W19989   1.173  16.881  12.175 -0.0934  0.1536 -0.0227
 3856W        W19990   9.015   1.467  12.042 -0.2124 -0.1121 -0.2298
 3857W        W19991   3.499   4.083  17.158  0.0308 -0.0627  0.1378
 3858W        W19992  14.212  16.807  14.815 -0.2758  0.0727  0.0149
 3859W        W19993  11.175  15.775  11.652  0.1053 -0.0910 -0.0212
 3860W        W19994   0.064   9.433  14.358  0.0013 -0.1273 -0.3595
 3861W        W19995   7.906   0.772  12.760  0.1561 -0.1139  0.0608
 3862W        W19996  10.516   8.874  13.097  0.1130  0.0387  0.3144
 3863W        W19997  15.003   3.845   4.384  0.5264 -0.0485 -0.0145
 3864W        W19998   4.909  16.491   4.989 -0.3438 -0.3292 -0.3668
 3865W        W19999  17.627   8.859  10.486 -0.0520 -0.0378  0.0836
 3866W        W20000   2.936   0.475   2.565 -0.3128 -0.1010  0.3509
 3867W        W20001   0.048  16.768   4.329  0.1933  0.0725  0.1909
 3868W        W20002   6.900   6.446  14.133 -0.3429  0.2977 -0.0516
 3869W        W20003   6.068   9.250  12.949  0.0315 -0.1793  0.4124
 3870W        W20004   1.752   5.359   4.242  0.2349  0.1246 -0.2001
 3871W        W20005   7.691  15.286  16.772 -0.0671 -0.0337 -0.0821
 3872W        W20006   8.627  11.621   5.399 -0.0364  0.1961  0.0368
 3873W        W20007   8.617  15.127   4.834 -0.0053 -0.2323 -0.0776
 3874W        W20008   1.209   3.542   4.273 -0.2108  0.1435 -0.0371
 3875W        W20009   3.921  16.100   1.817  0.0866 -0.1388 -0.1566
 3876W        W20010  15.268  17.009   0.894  0.3758  0.0458  0.1653
 3877W        W20011  12.593   6.971  13.679 -0.1172 -0.2285  0.4710
 3878W        W20012   8.311   5.590  12.448 -0.1061 -0.0394 -0.3880
 3879W        W20013  13.396  14.399  14.109  0.2754  0.2885  0.1123
 3880W        W20014   3.149   1.637   5.566 -0.4089 -0.1138 -0.1436
 3881W        W20015   2.338   1.701   6.188  0.0297 -0.2012 -0.0641
 3882W        W20016   0.145   6.677  15.085  0.2684 -0.0325 -0.0100
 3883W        W20017  13.291  16.577   6.388  0.2067 -0.0690 -0.2518
 3884W        W20018  15.218   1.013   2.444 -0.0597 -0.1792  0.0000
 3885W        W20019  12.512   7.336   2.299  0.0022  0.1745  0.0190
 3886W        W20020   6.127   1.236   5.266  0.1718 -0.0188  0.0245
 3887W        W20021   1.463   2.711  12.965  0.1466  0.2550 -0.0347
 3888W        W20022   9.267  11.614  13.330 -0.1117  0.0367 -0.1299
 3889W        W20023   6.356   9.761  15.141 -0.0969  0.1084  0.0882
 3890W        W20024  12.551  17.025  15.496 -0.0595 -0.0041  0.1067
 3891W        W20025   8.494   9.964  16.317  0.3408  0.0826  0.1392
 3892W        W20026  17.480   9.343  13.488 -0.0311  0.0105  0.3967
 3893W        W20027  12.283  10.390   1.703  0.1028 -0.0876 -0.1130
 3894W        W20028   5.339   7.585  15.599 -0.1316  0.1620 -0.5093
 3895W        W20029   3.936  16.032   3.738  0.0899 -0.0588 -0.2556
 3896W        W20030  15.484   4.880  12.787  0.0025 -0.1011 -0.1736
 3897W        W20031  10.440   2.453   5.789  0.1975  0.0934 -0.0024
 3898W        W20032   0.614   2.516  16.167  0.1299  0.0258  0.0124
 3899W        W20033   8.477   4.998  13.657 -0.0797 -0.0354 -0.2447
 3900W        W20034   4.526   2.939   5.789 -0.0504  0.1413 -0.4100
 3901W        W20035   4.663  12.400   0.065 -0.0820 -0.2851 -0.2087
 3902W        W20036  10.018  13.795  15.051 -0.1670  0.1603 -0.1632
 3903W        W20037   8.865   9.536   5.523  0.1485 -0.0882  0.1523
 3904W        W20038   3.760   6.285  13.002 -0.5409 -0.0838 -0.0194
 3905W        W20039  17.171   7.914  15.704 -0.0984 -0.4657  0.2434
 3906W        W20040   8.278   9.429   1.942  0.4911 -0.1857 -0.0128
 3907W        W20041   7.028  16.878   1.135  0.3076  0.1733  0.0855
 3908W        W20042  15.147  15.881   1.300  0.0339  0.2058  0.0466
 3909W        W20043  15.711  11.815  13.860  0.3307 -0.1128 -0.0444
 3910W        W20044  15.466   7.073   2.795 -0.1282  0.1963 -0.0030
 3911W        W20045  16.278  15.659  16.744 -0.2007 -0.0992 -0.0772
 3912W        W20046  15.868   8.240   4.549 -0.4267  0.1423 -0.1282
 3913W        W20047   0.515   0.457   3.843 -0.1302  0.0107  0.3689
 3914W        W20048  10.968  16.589   2.215 -0.0469  0.2915 -0.0970
 3915W        W20049  12.222   1.405   1.609 -0.1027 -0.3329  0.3632
 3916W        W20050  16.171   9.719  12.962 -0.0511  0.1368 -0.0534
 3917W        W20051   7.620  10.727   4.285  0.0455  0.1537 -0.0136
 3918W        W20052   6.605   6.477  13.660 -0.0171  0.0463 -0.0239
 3919W        W20053  13.946  13.932   2.246 -0.4195  0.1562 -0.1091
 3920W        W20054   4.500   9.488   5.505 -0.2458 -0.2456  0.4610
 3921W        W20055   7.543   7.896   4.123 -0.2044 -0.2491 -0.1832
 3922W        W20056   9.069  15.367  14.214  0.0331 -0.2421  0.0168
 3923W        W20057  12.274   6.414  12.928  0.1462 -0.0013 -0.1661
 3924W        W20058   3.866  14.886  13.615  0.1284 -0.0067  0.2140
 3925W        W20059  17.150  15.005   5.953 -0.2153  0.1304  0.1599
 3926W        W20060  11.992   4.730   4.454  0.2461  0.0422  0.3533
 3927W        W20061  16.868   9.596  14.143 -0.2403 -0.3134  0.1369
 3928W        W20062  17.659   9.364  11.998 -0.0775  0.0703 -0.0468
 3929W        W20063  15.295   1.732   0.104 -0.0558 -0.1248 -0.0933
 3930W        W20064  16.327   6.088  16.525  0.0373  0.1898  0.2244
 3931W        W20065  13.403   5.290  13.828 -0.1961  0.1744  0.0288
 3932W        W20066   8.533   1.715  12.185  0.0585  0.3847 -0.3495
 3933W        W20067   7.445  17.063   3.534 -0.1714  0.0368 -0.1401
 3934W        W20068  17.193   7.886   2.505  0.1267 -0.1492  0.2627
 3935W        W20069  13.662  11.119  12.689  0.1133  0.2058  0.2389
 3936W        W20070   0.150   4.311   3.829 -0.3123 -0.0711 -0.1732
 3937W        W20071  12.172  11.311   5.586  0.1305  0.0386  0.0021
 3938W        W20072   0.554  16.910  16.385 -0.0630  0.1609  0.0318
 3939W        W20073   9.564  10.728   5.578 -0.1582 -0.1485  0.0966
 3940W        W20074  17.027  10.252   4.860  0.0402 -0.0506 -0.1139
 3941W        W20075  13.012   9.952  15.982 -0.1282  0.0815 -0.2124
 3942W        W20076  16.519   0.862   2.980  0.1220  0.0449  0.0048
 3943W        W20077   5.301  16.738   5.641 -0.0582  0.0804 -0.1526
 3944W        W20078   9.582   5.085  15.684  0.1133  0.4252  0.2566
 3945W        W20079  13.919   0.007  16.602  0.1456  0.0854  0.0693
 3946W        W20080  12.152   4.768  11.398 -0.0368 -0.1337 -0.1820
 3947W        W20081   3.714  14.475  16.828 -0.1875  0.0653 -0.1038
 3948W        W20082   3.013   6.275   3.876 -0.2710  0.0605 -0.1862
 3949W        W20083   2.265  11.403   3.423 -0.1149  0.3012  0.0752
 3950W        W20084   2.344  16.581   0.893  0.1383 -0.0170 -0.1066
 3951W        W20085   2.729  12.738  13.847  0.1902  0.1055  0.0678
 3952W        W20086   9.480   8.179  14.443  0.1318  0.0141  0.0831
 3953W        W20087  12.122   8.424   2.988 -0.1805  0.2556  0.3106
 3954W        W20088   7.279   7.034   4.094 -0.0434 -0.0609  0.1377
 3955W        W20089  12.091   8.438  11.580  0.2210 -0.1725  0.0151
 3956W        W20090   2.918   4.387   1.224  0.0614 -0.0059  0.2585
 3957W        W20091   7.199   2.522   5.077 -0.0819 -0.3160  0.4216
 3958W        W20092  15.474   6.724  13.703  0.0973 -0.0051  0.2294
 3959W        W20093   8.571  15.914  12.067 -0.1818 -0.0609  0.1198
 3960W        W20094   4.595   0.555   3.355 -0.0013 -0.0224 -0.0604
 3961W        W20095   0.474   5.370  12.565  0.0793 -0.1229  0.1374
 3962W        W20096  13.910   6.055  13.425  0.0810 -0.4777 -0.0263
 3963W        W20097  16.499   9.843   1.961  0.0456  0.1050 -0.2865
 3964W        W20098   2.171   1.712   2.268 -0.1474  0.1589 -0.1361
 3965W        W20099   7.433   3.299   5.197  0.0907  0.1649  0.2859
 3966W        W20100  11.013   3.393  16.917 -0.0660  0.2741  0.1400
 3967W        W20101  13.373   2.003  13.389  0.1099  0.1390 -0.0399
 3968W        W20102  11.430   7.964  15.879 -0.1115 -0.0153 -0.1036
 3969W        W20103   7.844   7.339  16.397  0.2023  0.3588 -0.0940
 3970W        W20104   3.960   2.340  12.858 -0.1264 -0.0841  0.0836
 3971W        W20105  16.749  12.537   1.317  0.0755 -0.0838 -0.1466
 3972W        W20106  15.199   3.754   5.353  0.2147 -0.1858  0.0448
 3973W        W20107   5.692  12.690   0.751  0.0947  0.0806 -0.1900
 3974W        W20108  16.273   4.408   3.849  0.0114 -0.2627 -0.0610
 3975W        W20109   1.738   6.661   3.772  0.1065 -0.1250 -0.1486
 3976W        W20110  15.967   6.786  12.126 -0.4419 -0.1807  0.0407
 3977W        W20111   7.690   1.131   3.827 -0.2488 -0.0198 -0.0924
 3978W        W20112  14.309  12.117  17.073 -0.0166  0.1882  0.0063
 3979W        W20113   2.681   3.151  15.283  0.0646 -0.1249 -0.0319
 3980W        W20114  10.896   2.604   5.036 -0.3252  0.1421 -0.0448
 3981W        W20115  12.864   8.533  16.362 -0.2080  0.1132 -0.1211
 3982W        W20116   3.296  14.644  13.671 -0.2470  0.3881 -0.0757
 3983W        W20117   1.110  14.553   3.911  0.1124 -0.0208  0.2394
 3984W        W20118   0.025   4.103  11.817  0.2713  0.1003 -0.1859
 3985W        W20119  12.243  14.353  14.267  0.0301 -0.3847 -0.1713
 3986W        W20120   9.506   9.666  14.440  0.0304  0.0322 -0.1243
 3987W        W20121  14.865  11.280  17.178  0.0459  0.0192 -0.0333
 3988W        W20122   4.774   3.451   1.284 -0.1228 -0.2807 -0.1553
 3989W        W20123  17.207   0.627   1.116 -0.0911 -0.2142 -0.2751
 3990W        W20124   1.893  16.765  15.130 -0.2291 -0.0959  0.0974
 3991W        W20125   7.059   7.790  14.838 -0.1823 -0.2388  0.3267
 3992W        W20126  16.225  17.652  13.757  0.0100  0.0345  0.0819
 3993W        W20127   2.031  11.958  15.399 -0.0357 -0.3774 -0.2017
 3994W        W20128   6.641   8.365  16.478  0.4353 -0.1395 -0.0797
 3995W        W20129  11.742  10.766   2.897 -0.1790 -0.0764  0.2243
 3996W        W20130  14.466  13.391   5.373 -0.0226 -0.1544 -0.0016
 3997W        W20131   9.696  14.468   1.107  0.1765  0.0885 -0.2341
 3998W        W20132   0.109  15.362   5.082  0.0429  0.0048 -0.1372
 3999W        W20133   0.347  10.106  11.878 -0.1687  0.2761 -0.0527
 4000W        W20134   8.912   5.467  16.749  0.0029 -0.2179  0.0545
 4001W        W20135  16.526  11.748   5.474  0.0037  0.2504 -0.1939
 4002W        W20136   4.902  15.881  16.951 -0.0090  0.2408 -0.3079
 4003W        W20137   5.923   8.586   1.319 -0.1918 -0.2463  0.2292
 4004W        W20138  12.158   3.410   1.185  0.1517 -0.0583  0.1780
 4005W        W20139  17.537   5.965   3.974 -0.0414  0.0083  0.0366
 4006W        W20140   4.271   5.789  11.696  0.0932 -0.1430  0.1034
 4007W        W20141  11.724  14.210  16.598 -0.1959 -0.0599  0.0329
 4008W        W20142  14.345  17.199   0.305  0.1204 -0.0729  0.0621
 4009W        W20143   6.140  16.159   5.887  0.0691 -0.2389 -0.0620
 4010W        W20144  10.611   3.420   5.771  0.0711 -0.2659 -0.1629
 4011W        W20145  16.512   9.767   3.038 -0.0389  0.0930 -0.1324
 4012W        W20146  15.487   8.863   5.725  0.0952 -0.2181 -0.2874
 4013W        W20147  16.542   3.719   4.455 -0.0017 -0.0588  0.1252
 4014W        W20148   4.607   5.818   1.232  0.1630 -0.0488  0.3766
 4015W        W20149   2.542  17.667  13.186 -0.1280 -0.1662 -0.0476
 4016W        W20150   2.278  15.079   1.874 -0.1292 -0.3609  0.0307
 4017W        W20151  16.213  17.457   0.746 -0.1140  0.1242 -0.2522
 4018W        W20152  13.970  16.229   0.546  0.0636 -0.2466 -0.2528
 4019W        W20153   7.654   7.693   0.106  0.1451  0.0822  0.0182
 4020W        W20154  13.599  16.136   2.377 -0.2549 -0.0069  0.1093
 4021W        W20155  16.403   1.010  12.619  0.1404  0.1225 -0.2754
 4022W        W20156   1.516   3.248   2.288 -0.1392  0.4129 -0.1991
 4023W        W20157  14.411   1.853  15.040 -0.0615  0.4208  0.0804
 4024W        W20158   2.754   0.417  13.646  0.2014  0.1010  0.0755
 4025W        W20159   2.825  16.992  13.743 -0.2503 -0.0166  0.1390
 4026W        W20160   0.329   2.069  14.101  0.1722  0.1053 -0.0020
 4027W        W20161   5.849  12.666   2.766  0.0482 -0.0568 -0.2720
 4028W        W20162   0.995   5.571  13.329 -0.1536 -0.1627  0.0660
 4029W        W20163   3.650   3.204   5.518 -0.0044  0.0514  0.0448
 4030W        W20164   2.832  13.791  14.714 -0.0680 -0.0321  0.1524
 4031W        W20165   6.208   8.240  14.343 -0.1933  0.3073 -0.2905
 4032W        W20166   3.734  13.793  14.519  0.0330  0.0738 -0.0009
 4033W        W20167  14.900  12.359  12.627  0.2782 -0.1248  0.0450
 4034W        W20168   2.702  12.022   4.140  0.0018  0.1095  0.3086
 4035W        W20169   6.451  15.720   0.509 -0.2934  0.0926 -0.0088
 4036W        W20170   2.650  11.296   3.157  0.1944  0.1934  0.0792
 4037W        W20171   0.632   3.141   0.333  0.0056  0.0528 -0.0081
 4038W        W20172   9.902   3.264   4.336 -0.3734  0.4298  0.1094
 4039W        W20173   1.056   4.428   3.655  0.2562 -0.1356 -0.0753
 4040W        W20174  11.807   9.009  16.938  0.0298  0.1087  0.2902
 4041W        W20175   8.546  16.009   1.540 -0.1434  0.0484  0.0139
 4042W        W20176   1.987  12.899  15.949  0.1454 -0.2586  0.2117
 4043W        W20177   6.607   9.740  11.794 -0.0007  0.0078 -0.3874
 4044W        W20178   0.325   3.437   1.532 -0.2394 -0.1393 -0.2377
 4045W        W20179   1.550   1.553  12.832 -0.1455 -0.0032 -0.0488
 4046W        W20180   5.442   8.360   3.325  0.0891 -0.1731  0.1509
 4047W        W20181   4.972  17.515  12.639 -0.0444 -0.3354  0.2490
 4048W        W20182  13.385  17.138   4.088 -0.1804 -0.1370 -0.0889
 4049W        W20183   5.995   3.201   0.038 -0.1166  0.1037  0.0971
 4050W        W20184  16.891   3.783  11.978 -0.1257 -0.1117  0.0445
 4051W        W20185   3.507   0.166   6.550  0.0908  0.0924 -0.0888
 4052W        W20186  14.534  16.885  15.190 -0.0228 -0.2112 -0.0272
 4053W        W20187  10.892   2.828   0.673 -0.1810  0.0730  0.1990
 4054W        W20188  10.855   6.480  12.103 -0.0629 -0.0565  0.1089
 4055W        W20189   5.979   6.879  14.517  0.3697 -0.1974  0.0235
 4056W        W20190  10.515  10.249   2.649 -0.2570  0.4630 -0.1759
 4057W        W20191   9.105  17.224  14.049 -0.1125  0.1144 -0.2181
 4058W        W20192   1.037  15.029  15.666  0.0518  0.1349  0.1591
 4059W        W20193   0.773   9.135   0.329  0.1507  0.0179  0.0624
 4060W        W20194  15.345   3.369  13.766  0.0938  0.2639  0.0528
 4061W        W20195  11.562   9.591   2.240  0.2741  0.2022  0.0129
 4062W        W20196   1.858  14.244   2.893  0.1208 -0.0397  0.4110
 4063W        W20197   1.830   5.102  12.422  0.3729 -0.1765  0.1214
 4064W        W20198   0.002  16.355   1.791 -0.1279 -0.0820  0.0738
 4065W        W20199  13.341  12.581   1.649 -0.3276 -0.2091  0.2112
 4066W        W20200   6.290   7.265   4.080 -0.2196  0.2798  0.0837
 4067W        W20201   2.468  10.572   2.659  0.0293  0.2387  0.1041
 4068W        W20202   4.569   4.157  10.799  0.1634  0.0482  0.0115
 4069W        W20203  13.935   2.923  14.718  0.1010  0.1444 -0.1624
 4070W        W20204   5.369   6.918  15.755 -0.1136  0.1133 -0.0413
 4071W        W20205  10.792  13.042   1.226 -0.0669  0.0640 -0.2308
 4072W        W20206   5.915   2.247  14.973  0.2060 -0.1081  0.1042
 4073W        W20207  11.132   7.705  12.215  0.0577  0.0038  0.0237
 4074W        W20208   2.006   6.443  13.426  0.1739 -0.0381 -0.1176
 4075W        W20209   8.648  14.202   4.410 -0.1126 -0.1484 -0.0315
 4076W        W20210  12.859   2.292   5.028  0.1601 -0.0761  0.0957
 4077W        W20211  11.062  10.389   3.896 -0.0982  0.3348 -0.3542
 4078W        W20212  10.695   7.514   4.004  0.0284 -0.1160  0.0752
 4079W        W20213  10.306   7.906   3.100  0.2109  0.2657 -0.0497
 4080W        W20214   7.005   7.766   1.326  0.0639  0.1868  0.0131
 4081W        W20215   3.417  12.871   3.018 -0.2471  0.1951  0.0694
 4082W        W20216   8.452  11.220  13.039  0.1486 -0.1766  0.1140
 4083W        W20217  10.084   8.291   0.858 -0.0774 -0.1699  0.0337
 4084W        W20218   5.026  14.634   3.017 -0.2986  0.0019  0.2366
 4085W        W20219   2.957  13.715  16.976  0.0806  0.0393  0.0825
 4086W        W20220   7.854   2.663   0.350  0.0292 -0.1437 -0.1182
 4087W        W20221   8.720   1.034   3.587  0.0033  0.2483 -0.0547
 4088W        W20222   9.067   9.540  15.110 -0.0506 -0.0078 -0.0299
 4089W        W20223   8.325   8.608   5.825 -0.2635 -0.0437  0.1158
 4090W        W20224   2.656  12.853  12.116  0.0570  0.0775 -0.0371
 4091W        W20225   5.149  17.388  13.847 -0.0961  0.0464  0.0405
 4092W        W20226   8.185  11.373  13.774  0.0479 -0.0109 -0.1728
 4093W        W20227  17.471   2.758  14.648 -0.0631 -0.2175 -0.4857
 4094W        W20228  10.462   7.115   3.111  0.2651 -0.4503 -0.0657
 4095W        W20229   6.651   5.618   5.754 -0.0920  0.1869  0.0426
 4096W        W20230   8.106   6.535   5.307 -0.0407  0.3296 -0.1891
 4097W        W20231  13.377   8.477   4.466  0.0590  0.1677 -0.0546
 4098W        W20232   2.079   6.874  16.377 -0.2399 -0.1295 -0.1472
 4099W        W20233   4.544   4.843   4.083  0.0152  0.1598 -0.3088
 4100W        W20234   0.034  10.441   2.936  0.0290 -0.0054  0.0405
 4101W        W20235   5.499   1.370   4.369  0.5361 -0.0795 -0.0707
 4102W        W20236  16.719  17.468   3.198  0.0765 -0.0791  0.2315
 4103W        W20237  17.601   6.598  14.156  0.2882  0.1248 -0.2520
 4104W        W20238  10.688  13.164   4.615  0.1650 -0.3646 -0.1259
 4105W        W20239  11.431   9.610   3.866 -0.1416 -0.1369 -0.0547
 4106W        W20240  17.575  16.332   4.738 -0.2086  0.0921 -0.1809
 4107W        W20241   4.515   3.836   2.173 -0.0899 -0.2244 -0.0519
 4108W        W20242   0.925   8.127   5.392  0.0245 -0.2591 -0.1030
 4109W        W20243   6.425  13.029   5.838  0.1924 -0.0384 -0.0058
 4110W        W20244  14.822  14.858   0.051  0.1616  0.1187  0.2100
 4111W        W20245  14.749  11.156  15.891  0.1449  0.0164 -0.2793
 4112W        W20246   5.557   4.846  14.086 -0.0711  0.0561  0.1416
 4113W        W20247   1.523   6.002   4.937 -0.1886  0.0626  0.2403
 4114W        W20248  15.861  14.552  14.930  0.0665 -0.2316  0.1343
 4115W        W20249  13.635  10.108  14.004  0.1728  0.0862 -0.1214
 4116W        W20250   3.043   4.274   3.458  0.1717  0.0622 -0.0972
 4117W        W20251   5.985   3.550  14.561 -0.0251 -0.1162  0.1701
 4118W        W20252  15.088  15.177  16.912  0.0784 -0.0982 -0.0781
 4119W        W20253  17.351   5.648  12.779 -0.0971 -0.1228 -0.2200
 4120W        W20254   7.674  17.212   4.546 -0.1187 -0.2244 -0.1210
 4121W        W20255  15.802  16.926  17.114  0.1502  0.2544 -0.1897
 4122W        W20256   1.976  14.066  13.763 -0.2321 -0.1019 -0.0897
 4123W        W20257  10.429  13.105   0.904 -0.1521 -0.0638  0.0814
 4124W        W20258   9.849   0.137  14.110  0.0449 -0.1248 -0.1750
 4125W        W20259  16.083   0.637   4.903  0.1865 -0.1126 -0.4652
 4126W        W20260  17.256  14.604   5.041  0.0111  0.3188  0.3527
 4127W        W20261   0.016  16.327   6.148  0.1913  0.3060  0.0116
 4128W        W20262  12.971   1.951  15.044 -0.2995  0.2400  0.0568
 4129W        W20263   1.428  11.723  15.891 -0.0347  0.0011  0.2427
 4130W        W20264   7.593   6.666  11.385  0.0164  0.0671 -0.0574
 4131W        W20265  13.182  12.431  13.197 -0.1297 -0.0451 -0.0909
 4132W        W20266   1.338  14.919  14.244 -0.3867 -0.2572  0.1069
 4133W        W20267  10.954   5.465  13.611  0.0344 -0.1348  0.0073
 4134W        W20268  14.479   9.664  16.092  0.0853  0.0979 -0.2765
 4135W        W20269  12.689   9.709  12.268  0.0432 -0.1354  0.1538
 4136W        W20270   5.605   3.823   5.879 -0.1625 -0.1238 -0.0234
 4137W        W20271  16.461  14.682  13.237 -0.0645 -0.1348  0.0189
 4138W        W20272   2.321  15.739  13.639  0.1154 -0.3706  0.1840
 4139W        W20273  11.158  15.213  14.211  0.1941 -0.0881  0.2659
 4140W        W20274  15.128  16.812   5.572 -0.1858 -0.0904  0.1889
 4141W        W20275   2.665   6.342  15.678  0.2071  0.0478 -0.0166
 4142W        W20276   7.585   4.635   4.635  0.2388 -0.0480  0.0468
 4143W        W20277   5.318  11.663  15.476 -0.3377 -0.1066  0.0082
 4144W        W20278   1.868  12.515   1.583 -0.0042 -0.3266 -0.2932
 4145W        W20279   3.059  15.550  14.489  0.1811  0.2727  0.1446
 4146W        W20280  10.050  13.939  14.531  0.0149  0.0414 -0.2337
 4147W        W20281   4.603  12.771   4.189 -0.1220 -0.0717 -0.2464
 4148W        W20282  17.535  12.521   1.639  0.0103 -0.4496 -0.0513
 4149W        W20283   3.666   7.241  15.932  0.1694 -0.1289 -0.0923
 4150W        W20284  11.993   3.627  12.093  0.3413 -0.0841 -0.0831
 4151W        W20285  17.162   7.392  13.157  0.0617 -0.4783  0.0929
 4152W        W20286  12.608   9.426   0.029  0.0897 -0.0862 -0.0038
 4153W        W20287   4.129   1.280   0.991  0.4936  0.0963 -0.1242
 4154W        W20288  12.058   6.572   2.510 -0.1532 -0.1753 -0.1673
 4155W        W20289   5.987  14.452   3.214  0.1010  0.0325  0.4774
 4156W        W20290  13.534  11.811  14.200  0.3039 -0.2370 -0.1010
 4157W        W20291   8.988  11.728   0.659  0.1909  0.0093  0.3138
 4158W        W20292   6.401  16.527  16.684 -0.0546  0.0656 -0.3636
 4159W        W20293   4.343  13.584   3.844 -0.1828 -0.2537  0.3346
 4160W        W20294   5.664  11.751  11.756 -0.0714 -0.0045  0.0120
 4161W        W20295  15.672  17.263  16.760 -0.2607 -0.1313 -0.1760
 4162W        W20296   0.423   7.733   2.160  0.1393 -0.0430  0.3382
 4163W        W20297   6.917   6.966   5.607  0.0330  0.1767  0.2095
 4164W        W20298  13.113   4.976  16.407  0.0706  0.0554  0.1883
 4165W        W20299  17.089   4.215  16.213 -0.1688 -0.2644  0.0066
 4166W        W20300  14.353  13.730   3.306  0.1170  0.0979  0.0222
 4167W        W20301   8.747  17.428   3.181 -0.1113  0.0339  0.0461
 4168W        W20302  16.499  14.070  17.034 -0.0035 -0.1748 -0.1668
 4169W        W20303   2.597  16.565   4.903 -0.1132 -0.0300  0.0644
 4170W        W20304   4.684  13.693   0.262 -0.3163 -0.0271  0.2295
 4171W        W20305  12.834   3.322  15.287 -0.0908 -0.4142  0.0945
 4172W        W20306  15.347   2.477   2.288  0.1289 -0.3193  0.0687
 4173W        W20307   3.999  10.604   0.879  0.0164  0.0955  0.2028
 4174W        W20308   0.660   5.218  16.824 -0.2112 -0.0929  0.0056
 4175W        W20309  13.401   6.472  12.655  0.2429 -0.1537  0.1510
 4176W        W20310   8.451   9.456   5.172 -0.0046  0.2036 -0.1833
 4177W        W20311  14.536  14.510  12.500  0.1946 -0.2250 -0.0041
 4178W        W20312   0.579   6.024  15.705  0.1989 -0.1263  0.1497
 4179W        W20313   9.726   0.680  13.096 -0.2616  0.1448 -0.1898
 4180W        W20314  12.968  11.737   2.218 -0.0002  0.1507  0.1103
 4181W        W20315  17.656   5.197   1.574  0.1111 -0.3498 -0.0974
 4182W        W20316   4.034  16.085  15.914  0.2328  0.0612 -0.0717
 4183W        W20317   6.008  10.296  17.028  0.1165  0.1384  0.0544
 4184W        W20318   2.754   7.568   4.971  0.0145  0.1138  0.0086
 4185W        W20319   4.160   7.687   5.358  0.0370  0.0899 -0.2096
 4186W        W20320   6.026  10.958   4.712  0.3599  0.1771 -0.1017
 4187W        W20321   2.184  13.245   4.168  0.0197  0.1249 -0.1538
 4188W        W20322   1.491   7.357   1.377 -0.1289  0.3865 -0.2012
 4189W        W20323  16.857   4.424  13.279  0.1285 -0.0675  0.0301
 4190W        W20324   6.826   6.372   0.241  0.0559 -0.1995 -0.0392
 4191W        W20325   2.926   7.943   2.345 -0.0077 -0.0989 -0.1086
 4192W        W20326   0.031  13.683  12.281  0.1815  0.4418  0.1679
 4193W        W20327   6.098   6.011   4.976  0.1599  0.2596 -0.0849
 4194W        W20328  15.726   0.724   6.190  0.0354 -0.2325  0.3589
 4195W        W20329  11.626   5.086  15.357  0.2583  0.0227 -0.0077
 4196W        W20330   8.154  14.532  15.012 -0.0876 -0.0282 -0.0701
 4197W        W20331  16.714  10.225  16.225 -0.1745  0.0069  0.1151
 4198W        W20332   9.269   5.492   1.027 -0.0049 -0.3403  0.1354
 4199W        W20333   0.340  11.641  14.731 -0.1552 -0.0353  0.0126
 4200W        W20334   2.493  11.412  16.568 -0.3058 -0.0755  0.0943
 4201W        W20335   8.576  17.316   4.099  0.1135  0.0094 -0.0471
 4202W        W20336  17.561   8.248   1.811 -0.0729  0.1504 -0.1461
 4203W        W20337  15.290   7.781  13.951 -0.0504  0.1567  0.1116
 4204W        W20338   7.553   3.235   1.240  0.1154  0.2785 -0.1235
 4205W        W20339  12.051   6.554  16.023 -0.1673 -0.1720 -0.1641
 4206W        W20340  11.648   7.141  12.126 -0.1454  0.0782 -0.0223
 4207W        W20341  17.065   9.011  13.326  0.0923 -0.1604 -0.3925
 4208W        W20342   9.786  11.347  16.215  0.0784 -0.2419  0.2777
 4209W        W20343   9.052   9.579  14.210  0.0544 -0.2105 -0.2617
 4210W        W20344  16.822  11.887   1.859 -0.5275 -0.1047  0.1784
 4211W        W20345   2.350   9.399   1.027 -0.4471  0.0191 -0.0517
 4212W        W20346   6.141   8.101   6.231  0.2190 -0.2668 -0.1720
 4213W        W20347  10.326   5.727   5.825  0.0884 -0.2867 -0.0334
 4214W        W20348   7.205  14.948  14.105  0.1703 -0.0158 -0.1017
 4215W        W20349   5.933  17.164   4.542 -0.0773  0.1028  0.1305
 4216W        W20350  15.884   2.385  17.176 -0.2495 -0.0122  0.0680
 4217W        W20351   5.813  15.527  11.963  0.0981  0.1033  0.0139
 4218W        W20352  14.610   3.802   3.537 -0.2191  0.0073 -0.0835
 4219W        W20353  11.376   3.985   6.002 -0.2501 -0.0435 -0.0882
 4220W        W20354   8.219   0.649   1.096  0.1345 -0.0979  0.3467
 4221W        W20355  13.639  15.421   3.234  0.1262  0.0030 -0.0211
 4222W        W20356   0.292   7.658  17.161  0.0407  0.2226  0.3194
 4223W        W20357   9.946  11.263  12.999 -0.1211  0.1341 -0.1136
 4224W        W20358  10.510  14.020  11.833 -0.5601 -0.1884 -0.4272
 4225W        W20359   1.294  12.226  12.950  0.1854  0.0333 -0.3151
 4226W        W20360  11.421   3.500  15.030 -0.2122  0.3068 -0.2165
 4227W        W20361   8.327  15.877  15.664 -0.1102  0.1301 -0.1793
 4228W        W20362   9.841  14.742   1.679 -0.0264  0.1375 -0.4590
 4229W        W20363  14.006   1.345   2.145 -0.0114 -0.3289 -0.1799
 4230W        W20364   7.975  17.028   4.186  0.0050  0.0506  0.0842
 4231W        W20365  13.351   7.054  11.470  0.3576 -0.0021 -0.0138
 4232W        W20366   4.464  12.428  11.994 -0.1064  0.0423 -0.2058
 4233W        W20367  12.075   3.202   4.722  0.0519 -0.1614  0.0033
 4234W        W20368   2.652  13.130  15.354 -0.2195  0.1736 -0.0290
 4235W        W20369   4.050   1.346  14.952 -0.0902  0.1851 -0.1339
 4236W        W20370  10.318  16.907   2.659  0.2060  0.2916 -0.0476
 4237W        W20371   4.080  12.352  11.611  0.3027  0.0697  0.3052
 4238W        W20372  12.711  14.018  14.470  0.0864  0.1182  0.0612
 4239W        W20373   9.426   9.590  16.438  0.1504 -0.1532 -0.0233
 4240W        W20374  16.832   5.141  14.065  0.1739 -0.0051  0.1739
 4241W        W20375  15.891   9.646  14.424  0.3556  0.2405  0.0653
 4242W        W20376   4.758   4.723  16.411  0.2398 -0.2113 -0.1366
 4243W        W20377   9.390   4.737   3.500  0.0822 -0.0459  0.2297
 4244W        W20378   4.790   3.134   3.156  0.0211  0.0394  0.1279
 4245W        W20379   9.181   6.390  14.375 -0.0728 -0.0783 -0.2469
 4246W        W20380   2.950   3.398  16.004  0.1259  0.0105 -0.3571
 4247W        W20381   9.378  16.284  16.767  0.0218  0.4761  0.0506
 4248W        W20382   4.760   8.672  14.714 -0.4625  0.2029 -0.0333
 4249W        W20383  10.975   2.743  14.249  0.2029 -0.0713 -0.1198
 4250W        W20384   7.805  11.147   4.571  0.1734  0.3564 -0.1406
 4251W        W20385  10.548   3.715   1.703  0.1089 -0.1072  0.3930
 4252W        W20386   9.245   5.976   5.273  0.0518 -0.1671  0.1417
 4253W        W20387   8.468  13.481  12.051  0.0321  0.0908 -0.0434
 4254W        W20388   8.297   8.653   0.810  0.3496  0.2101  0.2624
 4255W        W20389  15.535  16.748   0.345 -0.0185  0.3374  0.1307
 4256W        W20390   9.418  17.208  15.186 -0.2065  0.2071 -0.2356
 4257W        W20391  14.398   0.095   0.153  0.1527 -0.0878 -0.0935
 4258W        W20392   2.615  17.430   0.942 -0.1792 -0.0892  0.1431
 4259W        W20393  11.790   6.638  16.978  0.1615  0.0673 -0.1540
 4260W        W20394  10.511   2.736   6.247  0.3194  0.0885 -0.0052
 4261W        W20395  11.078  12.270   3.315 -0.3796  0.1113 -0.0055
 4262W        W20396  13.576  11.910  12.135 -0.0805 -0.2583 -0.0609
 4263W        W20397   7.220   3.857   3.777  0.2947  0.2158 -0.1654
 4264W        W20398   2.988   2.437  14.621 -0.0326  0.0424 -0.2585
 4265W        W20399   2.373   5.936   4.837  0.0843 -0.3362 -0.0278
 4266W        W20400  13.506   8.976  16.614  0.0442  0.0234  0.2645
 4267W        W20401   8.342  14.443   2.561  0.2306 -0.1961 -0.1721
 4268W        W20402   6.030  15.059  13.907  0.2247  0.1163 -0.1246
 4269W        W20403   3.288  10.078   1.987  0.0666  0.1536 -0.1678
 4270W        W20404   0.846  12.227   0.305 -0.1237 -0.1375 -0.0670
 4271W        W20405   0.026   2.533  13.750  0.2459  0.3478 -0.1121
 4272W        W20406  17.043  15.418  13.168  0.0543 -0.1161 -0.0346
 4273W        W20407   3.406   8.836   5.608  0.4258 -0.1647  0.0137
 4274W        W20408  16.266   4.506  14.783  0.0107  0.1114 -0.1422
 4275W        W20409   9.060  16.297  11.574 -0.0884 -0.0715  0.2364
 4276W        W20410   1.968  11.654   1.260 -0.0232 -0.0778  0.2039
 4277W        W20411  10.565   3.501   2.145  0.2255 -0.0083  0.1663
 4278W        W20412  14.594  15.746  13.710  0.1956 -0.0290 -0.0451
 4279W        W20413  15.697   7.149   1.162 -0.3267  0.2851 -0.2290
 4280W        W20414  15.326  11.284  12.461  0.2957 -0.0413 -0.2137
 4281W        W20415  13.953   0.709   3.653  0.1271  0.1921 -0.0581
 4282W        W20416  17.022   6.361   4.570 -0.1940  0.1175 -0.0080
 4283W        W20417   2.521  16.874  16.045  0.0295 -0.2926  0.2952
 4284W        W20418   2.081   8.304  16.805 -0.0058  0.3559 -0.3162
 4285W        W20419   1.851  15.939   5.058  0.0648 -0.1166 -0.3063
 4286W        W20420  10.076  14.097   5.522  0.1149  0.1623 -0.3792
 4287W        W20421   2.445   0.298  14.103 -0.3330  0.2373 -0.1177
 4288W        W20422  15.274   4.032  16.806  0.0249  0.0370 -0.3356
 4289W        W20423   8.204   2.117   5.162  0.0619  0.4042 -0.0202
 4290W        W20424  13.430   9.242  14.379  0.0243  0.0931  0.0150
 4291W        W20425   1.124   3.849   1.189  0.0282 -0.0796 -0.1419
 4292W        W20426  13.957   3.406  17.028  0.0919 -0.0982  0.1382
 4293W        W20427  17.475   3.199  15.360  0.1833 -0.0534 -0.4043
 4294W        W20428   7.551   1.431   5.626 -0.1952 -0.0162  0.1614
 4295W        W20429  17.632  17.171  15.799  0.0159 -0.1020  0.0138
 4296W        W20430   1.454   5.294   3.415 -0.0968  0.0041  0.0957
 4297W        W20431   5.824  16.694  13.741  0.0955 -0.1728 -0.0117
 4298W        W20432  14.864  16.799   6.005  0.2320  0.0710  0.1004
 4299W        W20433  12.812  13.124   4.938 -0.0483 -0.1140  0.1774
 4300W        W20434  16.828   6.314   2.025 -0.1578 -0.0089  0.2778
 4301W        W20435  13.105   7.019  13.188  0.1592  0.1846  0.2398
 4302W        W20436  16.806  12.411  16.982 -0.2661 -0.1779  0.4333
 4303W        W20437   8.285   9.978   1.010 -0.0104  0.2089 -0.1055
 4304W        W20438  15.783  11.604  12.404 -0.0626 -0.4077  0.0823
 4305W        W20439   1.261   4.926   1.782 -0.4235  0.1978  0.1266
 4306W        W20440   9.133  11.633  16.452  0.2849  0.0739 -0.0633
 4307W        W20441   8.464   7.742   4.116  0.0073  0.2533 -0.0324
 4308W        W20442   7.011   3.552   5.073 -0.3943  0.2197  0.0722
 4309W        W20443   8.059  15.607  15.253  0.3157  0.2306  0.5701
 4310W        W20444   3.933   4.585   4.797  0.0274  0.0028  0.0779
 4311W        W20445  11.120   7.177  13.206 -0.0249  0.0954 -0.0053
 4312W        W20446  12.475  16.347  12.738 -0.1885  0.2413  0.1641
 4313W        W20447  14.114   4.630  13.464  0.0709 -0.0564 -0.2240
 4314W        W20448  15.901  16.635  11.049  0.2685  0.2358 -0.2850
 4315W        W20449   5.221  15.746  16.281 -0.1013  0.1477 -0.0083
 4316W        W20450   0.838  15.200   5.743 -0.1945 -0.0382  0.1361
 4317W        W20451   7.175  16.327   2.865 -0.1861 -0.0431  0.2868
 4318W        W20452   1.657  10.634  12.347 -0.1497  0.2344  0.1258
 4319W        W20453  15.867  10.470  15.466  0.3376 -0.0122 -0.3077
 4320W        W20454   7.953   5.692   1.097  0.0947  0.5261  0.1518
 4321W        W20455  16.036   7.255  14.675  0.0778  0.1475  0.0420
 4322W        W20456  10.537  10.506   3.471 -0.2905  0.0523  0.2374
 4323W        W20457  17.199   2.927   2.950 -0.3357  0.0803 -0.0524
 4324W        W20458  14.091   4.452   0.310 -0.1470  0.1122 -0.1307
 4325W        W20459  14.714   5.097  16.786  0.0682  0.2454 -0.1450
 4326W        W20460  13.373   4.416  14.431  0.2034  0.0416  0.2877
 4327W        W20461   4.648   0.865   4.219 -0.1650 -0.3417  0.2056
 4328W        W20462   3.564  14.318   0.974  0.0482 -0.1485 -0.3033
 4329W        W20463   3.895   2.015   4.904 -0.1104  0.0778  0.0849
 4330W        W20464  17.588  17.338  12.621 -0.0066  0.1091  0.0250
 4331W        W20465   9.294   2.339  16.116 -0.0366 -0.2685 -0.3366
 4332W        W20466   6.167   4.237  17.044 -0.1710  0.1317 -0.0023
 4333W        W20467   9.824  14.071   0.801 -0.3165  0.0833  0.1358
 4334W        W20468  17.163  13.940   1.198  0.1579  0.3254 -0.1455
 4335W        W20469   8.386   6.528  15.960 -0.0983 -0.1388 -0.0412
 4336W        W20470  15.748   0.974   4.750  0.0342 -0.0314  0.1943
 4337W        W20471  10.937  14.428  13.054 -0.0269  0.0110 -0.0764
 4338W        W20472   0.776  10.940  13.898 -0.0281 -0.0613  0.2199
 4339W        W20473   0.861  14.414  12.421  0.0000 -0.1087 -0.2047
 4340W        W20474  10.151   5.182   2.950 -0.0844 -0.0796 -0.3860
 4341W        W20475   2.728   6.486  12.637  0.3764  0.0990  0.2704
 4342W        W20476  15.423   6.971   2.261 -0.1212  0.0351  0.1160
 4343W        W20477   5.188  11.272   1.161  0.3070 -0.0916 -0.2210
 4344W        W20478   9.474  10.131  11.392 -0.2136  0.3618 -0.2728
 4345W        W20479   7.154  12.618  14.763  0.0229  0.3389 -0.2459
 4346W        W20480  16.719  10.706  13.967 -0.1433 -0.1479 -0.0712
 4347W        W20481   9.395  16.732   3.099 -0.2635 -0.0865 -0.1939
 4348W        W20482  15.327   4.141  16.319 -0.2409  0.0293 -0.3942
 4349W        W20483   0.143   1.097   4.795  0.3788  0.0606  0.0081
 4350W        W20484  17.459   2.213   0.990 -0.0158 -0.1309 -0.1599
 4351W        W20485   6.880   1.340  12.939  0.1286  0.0591  0.0848
 4352W        W20486  13.342  12.301   3.443 -0.2369  0.5667 -0.0004
 4353W        W20487  10.203   9.138   0.532 -0.2599 -0.0163  0.1075
 4354W        W20488   0.076   1.700  14.275 -0.1254 -0.2168 -0.3603
 4355W        W20489   5.538   4.162   4.109 -0.1291  0.1852 -0.1037
 4356W        W20490   6.444  17.452  16.162  0.1656 -0.1582  0.1718
 4357W        W20491  11.934  14.038   1.291 -0.1258 -0.1544  0.0817
 4358W        W20492  15.674   7.483   3.971 -0.5184  0.0737 -0.1498
 4359W        W20493  17.255   7.002   1.978 -0.0336  0.0769  0.0981
 4360W        W20494  15.692  12.707   4.230 -0.2137 -0.1329  0.0122
 4361W        W20495   4.900  14.999   3.391  0.0385  0.1061 -0.0482
 4362W        W20496   7.069  17.192   2.686 -0.0991 -0.2463  0.1002
 4363W        W20497  13.352  11.426   0.643  0.1606  0.0878  0.0160
 4364W        W20498   3.965   9.756  11.364  0.1184  0.4086  0.0544
 4365W        W20499   8.320  12.827   1.006 -0.0606 -0.0606  0.0433
 4366W        W20500  12.128   2.761  14.062 -0.1425  0.2432  0.1390
 4367W        W20501   2.947   7.796  16.372  0.1412  0.0262 -0.1443
 4368W        W20502  12.130  15.250  12.161 -0.0178  0.1998  0.1375
 4369W        W20503  15.841  12.147  16.927  0.1348  0.0630  0.0364
 4370W        W20504  13.560   9.124  14.877 -0.0690  0.1115  0.0812
 4371W        W20505  10.776   1.614   1.284 -0.0677 -0.0599  0.0277
 4372W        W20506  16.109   8.801   2.131  0.0388 -0.2427 -0.1818
 4373W        W20507  12.433  11.674   1.466 -0.5182  0.0207 -0.1819
 4374W        W20508  17.409   1.632  16.898  0.1173 -0.0890  0.1523
 4375W        W20509   1.527  10.873   0.567  0.3921  0.1449 -0.1365
 4376W        W20510  12.192   1.839  12.800 -0.0539 -0.0401  0.0901
 4377W        W20511   7.572   1.942  12.080  0.1333 -0.0055 -0.0151
 4378W        W20512  10.538   6.285   4.468 -0.1969  0.4174  0.1008
 4379W        W20513   6.389  14.841  13.550  0.0752  0.3109 -0.2064
 4380W        W20514  11.825  14.119  16.010 -0.0515  0.0222 -0.0506
 4381W        W20515  16.981  12.762  16.644 -0.0675 -0.1106  0.1641
 4382W        W20516   8.047  14.644   1.246 -0.0530  0.1296  0.0627
 4383W        W20517  15.102   4.651  12.469 -0.0060 -0.0972 -0.1110
 4384W        W20518   8.689   6.059   3.302 -0.2298 -0.0290  0.0378
 4385W        W20519   7.688   6.679   4.019  0.0022 -0.0886 -0.1837
 4386W        W20520   3.511   3.042  13.601 -0.1271  0.2246 -0.0297
 4387W        W20521  17.647   7.118   5.112 -0.0685 -0.3807 -0.2550
 4388W        W20522   7.067   8.766   2.065  0.1367 -0.2982  0.0544
 4389W        W20523  15.222   9.964   3.209  0.0089  0.0644 -0.3385
 4390W        W20524  17.224   8.309   5.948 -0.0158  0.3511 -0.1820
 4391W        W20525  16.815   1.508  14.360  0.1955  0.3359 -0.0251
 4392W        W20526   9.440  12.647   2.342 -0.1272  0.0166 -0.1189
 4393W        W20527  11.196   4.157   0.684 -0.0336  0.0963  0.0160
 4394W        W20528   2.634   2.302  12.885  0.0859 -0.2149  0.1977
 4395W        W20529   7.208   2.687   4.564 -0.2639 -0.0957 -0.0944
 4396W        W20530  12.892  11.288   4.996  0.0726  0.0696 -0.2001
 4397W        W20531  10.330   7.101  13.088 -0.0769 -0.1340 -0.1299
 4398W        W20532   5.111  17.539  16.097 -0.0748 -0.1145 -0.0797
 4399W        W20533  14.346   3.785   3.049  0.3065 -0.0871 -0.0276
 4400W        W20534  15.662   6.424  16.080 -0.0871 -0.0103 -0.2602
 4401W        W20535  14.293   5.609  16.178 -0.2246 -0.1319 -0.0613
 4402W        W20536  12.529  17.252   4.428 -0.2617 -0.1403 -0.0756
 4403W        W20537   4.446  10.648  11.507 -0.0230  0.0141  0.2048
 4404W        W20538   5.795   9.562  14.440 -0.0656 -0.0072  0.0562
 4405W        W20539  13.419   6.121   4.641 -0.1141  0.0717  0.1688
 4406W        W20540   0.191  14.397   2.441 -0.4777 -0.1984  0.4742
 4407W        W20541   3.340  10.771   1.582  0.2705 -0.1069  0.1080
 4408W        W20542   1.053  15.391  13.321  0.2268 -0.0766  0.1088
 4409W        W20543   7.618   0.025  14.355  0.3603  0.0113  0.0778
 4410W        W20544   8.648   4.397  13.616 -0.0820  0.1993  0.0505
 4411W        W20545   5.775   2.071   0.602  0.2983 -0.0351  0.0242
 4412W        W20546   1.853   5.010  12.937  0.0939  0.0096 -0.1253
 4413W        W20547   8.556   8.131   2.344  0.0735  0.1903  0.1227
 4414W        W20548  12.413  10.523   3.665  0.0026  0.0224 -0.1728
 4415W        W20549   6.823   0.019  13.999  0.1151 -0.1313 -0.1471
 4416W        W20550   0.435  11.399  12.066  0.0775  0.0568  0.0328
 4417W        W20551   7.748   0.778   6.508  0.0126 -0.1699 -0.0351
 4418W        W20552   1.532   7.700   2.530 -0.4177  0.1049  0.0881
 4419W        W20553   8.702  14.084   1.010 -0.2114 -0.1771 -0.1321
 4420W        W20554   2.314   7.804   3.630  0.0178  0.2671 -0.0395
 4421W        W20555  14.493   0.864  14.286 -0.1040 -0.0825 -0.0056
 4422W        W20556   7.272   9.907   4.104 -0.4436 -0.2585  0.0191
 4423W        W20557  15.498   5.890   3.687 -0.0822 -0.1580 -0.1548
 4424W        W20558  11.527  10.812  16.121 -0.0451  0.1710 -0.1362
 4425W        W20559   9.466   5.655   4.407  0.1334 -0.1065  0.0093
 4426W        W20560  17.244  14.222   0.144 -0.1161 -0.0374  0.0208
 4427W        W20561  15.392  14.665  12.149  0.1491 -0.3828 -0.1127
 4428W        W20562  16.841  16.280  16.310  0.1470 -0.0202  0.0705
 4429W        W20563  11.709  11.578  13.353 -0.2532 -0.0631  0.0977
 4430W        W20564   7.404  14.848  12.865 -0.1835  0.1700 -0.3417
 4431W        W20565  16.931  10.400   3.117 -0.1810 -0.0408 -0.0336
 4432W        W20566   9.305  17.652   0.948  0.1187  0.0995 -0.0085
 4433W        W20567  10.054  10.007   5.098  0.2100  0.1293 -0.0059
 4434W        W20568  17.320   9.839   2.448 -0.0884  0.3192 -0.0062
 4435W        W20569  11.954   8.142  16.584 -0.0099  0.0920  0.2998
 4436W        W20570  13.813   5.888  12.109 -0.1995  0.2321  0.3970
 4437W        W20571  11.607   9.905   0.732 -0.3053  0.3157  0.0347
 4438W        W20572   8.717   9.337  15.449  0.1846 -0.3865  0.1444
 4439W        W20573  13.723  11.347   5.415  0.0717 -0.1641  0.1089
 4440W        W20574   9.888  15.636  11.601  0.0688  0.0749  0.1052
 4441W        W20575   4.421  14.401   6.408 -0.2774 -0.4449  0.1642
 4442W        W20576   6.806   1.706  15.052  0.1681 -0.0744  0.0362
 4443W        W20577   3.424   6.770   1.528  0.3693  0.2799 -0.1155
 4444W        W20578   9.530  15.550  17.086  0.1614  0.1202  0.0190
 4445W        W20579   2.994   4.057  15.244  0.1896 -0.2593  0.1782
 4446W        W20580   2.020   2.820   4.469  0.4339 -0.0160  0.0616
 4447W        W20581   6.962   3.744   4.564  0.2533 -0.0501 -0.3637
 4448W        W20582   9.937   0.005  16.862  0.0073  0.0266  0.0955
 4449W        W20583   7.677  12.923   1.770  0.3131  0.1593 -0.1772
 4450W        W20584  16.912   5.410   5.657 -0.1907  0.0711 -0.2741
 4451W        W20585   2.160  15.636   1.627 -0.0632  0.1818 -0.3040
 4452W        W20586   5.966   3.237  16.034 -0.0469  0.1191 -0.0129
 4453W        W20587   5.376   9.595  16.145 -0.1318  0.2019  0.1244
 4454W        W20588   4.835   2.895   6.559 -0.0069  0.2592 -0.0643
 4455W        W20589  16.196   0.320  14.190 -0.0327  0.3068 -0.1413
 4456W        W20590  15.269  13.742   3.517  0.3436 -0.0257 -0.1800
 4457W        W20591   3.825   9.747   4.292 -0.0189 -0.3198 -0.0176
 4458W        W20592  17.469   1.738  14.851  0.1180  0.1275 -0.2417
 4459W        W20593   3.736   5.410   1.551  0.0276  0.1557 -0.0017
 4460W        W20594   7.007   4.104   1.354  0.5117 -0.2804  0.3045
 4461W        W20595  13.833   6.965  16.195  0.1626 -0.1902 -0.0179
 4462W        W20596   4.856   4.009   1.184  0.3189  0.1079 -0.0487
 4463W        W20597   0.537   7.721  16.735 -0.2826 -0.2003 -0.1451
 4464W        W20598  10.781   4.094  15.597 -0.0109 -0.2157  0.1427
 4465W        W20599   5.179   7.309  13.588  0.2507  0.1374 -0.1216
 4466W        W20600  10.048   3.411  17.087 -0.1734  0.2784  0.0798
 4467W        W20601  17.576   8.951  16.952 -0.0094  0.2180 -0.0895
 4468W        W20602   3.119  14.242   5.230 -0.0411  0.1580  0.0821
 4469W        W20603   0.748  15.337   2.621 -0.1306 -0.0511 -0.4701
 4470W        W20604   7.598  13.309  12.791 -0.0083 -0.1440 -0.1418
 4471W        W20605  14.531   6.906   3.682 -0.2653 -0.1938  0.0577
 4472W        W20606  10.600  14.901  16.328 -0.2415 -0.3256 -0.0175
 4473W        W20607   7.131  14.078   0.449  0.0336  0.1623  0.1140
 4474W        W20608   7.051   6.332   3.535  0.2641 -0.3204  0.0603
 4475W        W20609   8.866   8.030   3.839 -0.5587 -0.1781 -0.2970
 4476W        W20610   1.275   9.691   3.639 -0.1141 -0.0822 -0.0247
 4477W        W20611   2.418  13.321  12.134  0.5564  0.1144 -0.2143
 4478W        W20612  11.073  12.683  14.052 -0.3441  0.1533  0.0506
 4479W        W20613   0.156   1.957  13.600 -0.2697 -0.2539 -0.1019
 4480W        W20614   3.920  10.351  12.640 -0.2320  0.2099 -0.0264
 4481W        W20615   4.411  11.231   5.772  0.0387  0.2496 -0.2121
 4482W        W20616   9.296  13.378  14.987 -0.2931  0.1494  0.1281
 4483W        W20617   3.314   6.209  12.126 -0.2045  0.1881  0.2683
 4484W        W20618  12.776  13.293  12.499 -0.0548 -0.2041 -0.3669
 4485W        W20619   4.871   2.770   3.741  0.2079  0.0709  0.0878
 4486W        W20620   7.109   0.914   1.988 -0.1945 -0.0717  0.0171
 4487W        W20621   2.187   0.200  12.329 -0.2539  0.0915  0.3645
 4488W        W20622  13.344   8.902   1.693 -0.0319  0.0466 -0.0546
 4489W        W20623   9.909   1.401   1.424 -0.1651 -0.0368 -0.5752
 4490W        W20624   9.406  17.626  16.751 -0.0494 -0.3355 -0.0204
 4491W        W20625  12.944  14.441  16.885 -0.0586  0.0097 -0.2385
 4492W        W20626   7.916   6.794  15.510 -0.0881  0.0743  0.2548
 4493W        W20627  10.205  16.038  14.555  0.0016 -0.0045 -0.2849
 4494W        W20628   0.087   3.284   0.571  0.0218  0.1910  0.3298
 4495W        W20629  15.948   1.059   5.306  0.0696  0.1192 -0.1230
 4496W        W20630   5.587   5.947   0.630  0.2719  0.1568 -0.2753
 4497W        W20631  17.527  15.203  12.069  0.1684  0.2373  0.1310
 4498W        W20632  11.887  17.652   1.914  0.1232  0.2857  0.1616
 4499W        W20633   4.238   4.264  15.350  0.0153  0.2542  0.1397
 4500W        W20634  11.827   4.557   5.999  0.0540 -0.0869 -0.0217
 4501W        W20635  15.533   0.197  14.993  0.3130  0.1489  0.1845
 4502W        W20636   5.014   3.131   0.896 -0.0241 -0.1865  0.0165
 4503W        W20637  17.378   1.619  11.984  0.2062  0.2935  0.0073
 4504W        W20638   0.206   8.886   3.148  0.1511  0.0399  0.0762
 4505W        W20639   0.841   1.265   4.409  0.1949  0.5437 -0.2935
 4506W        W20640   7.337  17.487  15.164  0.0575  0.2225  0.1820
 4507W        W20641   9.256   1.029  15.850  0.0487 -0.0655 -0.1242
 4508W        W20642  14.670   0.274  13.093 -0.1836 -0.1828  0.4715
 4509W        W20643   3.842   9.394   3.969  0.0580  0.0797  0.4207
 4510W        W20644  10.051   7.266  15.118  0.0311 -0.1376 -0.0287
 4511W        W20645   2.000   5.671   2.802  0.0205  0.2043 -0.1309
 4512W        W20646   7.209  12.617   3.541 -0.0023 -0.1483  0.0185
 4513W        W20647   1.488   7.841  12.426 -0.0043  0.3136 -0.1320
 4514W        W20648  12.939  15.560   0.395  0.3763  0.1321  0.0832
 4515W        W20649   1.707   8.298   1.682 -0.0482 -0.0373 -0.0262
 4516W        W20650  11.110   5.024   5.832 -0.1581  0.1305  0.0116
 4517W        W20651  12.589   6.118  14.170  0.0880  0.2842 -0.1222
 4518W        W20652  12.777  15.767  16.548 -0.1507  0.1498  0.1020
 4519W        W20653   3.225   3.741  16.852  0.1393 -0.0281 -0.2023
 4520W        W20654   2.042  17.178   1.528 -0.0289 -0.0429 -0.0115
 4521W        W20655  13.509   9.198  11.883 -0.0312  0.1167  0.1100
 4522W        W20656   9.721   8.846  15.245 -0.0034 -0.2445  0.1451
 4523W        W20657   9.420  15.910   5.527  0.1323 -0.2222 -0.1897
 4524W        W20658   8.555  15.220  13.440  0.1629  0.1204  0.0637
 4525W        W20659   6.021  16.964   5.054  0.0701 -0.2286  0.0274
 4526W        W20660   8.804  16.843  16.972 -0.2525  0.3605  0.2730
 4527W        W20661   3.745  10.619  11.633 -0.0534  0.0167  0.1861
 4528W        W20662  14.870  13.218   4.193  0.2317  0.0873  0.2132
 4529W        W20663   5.760   1.526  11.727 -0.0182  0.0041  0.0357
 4530W        W20664   3.381   4.324  16.030 -0.1745 -0.3110 -0.0602
 4531W        W20665   7.477   4.613  17.144  0.2860  0.1142 -0.0613
 4532W        W20666  17.135   9.884  13.384 -0.2499  0.1269  0.1345
 4533W        W20667   8.191   6.701  10.365  0.0072  0.1813 -0.3490
 4534W        W20668  10.241  13.400  16.404 -0.0516 -0.0009 -0.0872
 4535W        W20669  13.176   3.420  14.453  0.2179 -0.0878  0.0390
 4536W        W20670  15.128  12.096   2.971 -0.0265  0.1747  0.1453
 4537W        W20671  12.191   1.205  14.007  0.0834 -0.0742  0.0151
 4538W        W20672   5.771   3.476   5.559 -0.0427 -0.1524 -0.1709
 4539W        W20673  11.325   8.529   2.947 -0.1383  0.1584 -0.1386
 4540W        W20674  13.398  14.072  16.951 -0.3814 -0.0585 -0.1850
 4541W        W20675  13.884   9.553   5.782 -0.0320 -0.0173  0.0451
 4542W        W20676   9.487   3.756  14.526  0.2949  0.0972 -0.4995
 4543W        W20677   5.136  17.409  14.775 -0.1329 -0.1417 -0.0484
 4544W        W20678   9.111   4.169  15.327  0.1472 -0.0056  0.0998
 4545W        W20679  10.304   4.141   2.755  0.1034  0.1293 -0.0771
 4546W        W20680  15.678   9.858   1.134 -0.1443 -0.3933 -0.2652
 4547W        W20681   2.847   7.769  15.029  0.2708  0.1642  0.2277
 4548W        W20682   6.132   6.173   3.598  0.1230 -0.2258 -0.0017
 4549W        W20683  16.350   2.598   1.915 -0.0065  0.1748 -0.1499
 4550W        W20684   1.686   4.852  13.457 -0.0043 -0.1126 -0.0997
 4551W        W20685   8.041  12.613   3.381 -0.0268  0.2267 -0.0139
 4552W        W20686   6.069   3.801   4.907 -0.0187 -0.0327  0.1857
 4553W        W20687  10.836  14.675   2.264  0.1285 -0.0042  0.0904
 4554W        W20688   8.808   2.301  16.204  0.1162  0.0409 -0.0761
 4555W        W20689  10.411   5.978   3.189  0.2143  0.0139 -0.0298
 4556W        W20690  11.584   2.261  11.864  0.1349 -0.5504  0.3272
 4557W        W20691  12.767  15.918   3.934 -0.0026  0.0087 -0.0868
 4558W        W20692   5.779   5.551  16.521 -0.0403 -0.0197  0.2452
 4559W        W20693  17.480  15.391  16.978  0.2770 -0.0675 -0.0683
 4560W        W20694  10.828   8.840   4.681  0.0383 -0.0498 -0.0874
 4561W        W20695  15.839   9.153  11.758 -0.0317 -0.0056 -0.2543
 4562W        W20696   1.574  16.380   5.311  0.1002 -0.0290  0.4023
 4563W        W20697  15.834   2.742   1.369 -0.1249  0.1267  0.3902
 4564W        W20698  15.973  13.540  14.749 -0.1052  0.3387  0.0785
 4565W        W20699   9.328   1.664   2.312 -0.0715  0.0076 -0.3400
 4566W        W20700  14.362  15.158  12.401  0.1759  0.0638 -0.1349
 4567W        W20701  10.545  15.372   4.715 -0.3557  0.0695 -0.1368
 4568W        W20702  15.826  12.268  13.542 -0.1091 -0.1209  0.0913
 4569W        W20703  12.166   3.167   0.146  0.3123 -0.1671 -0.0515
 4570W        W20704   6.538  10.103  13.197  0.1872  0.1221 -0.1247
 4571W        W20705  16.165   8.389   0.807 -0.1115  0.1236  0.2625
 4572W        W20706   5.117   7.040   3.617  0.1488 -0.0209  0.0343
 4573W        W20707  13.072   9.190   5.992  0.0483 -0.1510 -0.3074
 4574W        W20708  12.779   6.827  12.264  0.2089  0.0558 -0.0466
 4575W        W20709  14.676   2.767  15.046 -0.0650  0.0429 -0.0103
 4576W        W20710  12.177   1.287  14.540 -0.0167 -0.1391  0.1775
 4577W        W20711   7.531   7.420   3.798  0.0255  0.0436  0.4171
 4578W        W20712  17.518  14.153   4.932  0.1313  0.1929  0.2536
 4579W        W20713  11.031  12.676   1.477 -0.2013 -0.1538 -0.0585
 4580W        W20714  13.480  17.357  12.327  0.1991 -0.2308  0.0254
 4581W        W20715   4.579   4.313   0.201  0.0601 -0.2194  0.0814
 4582W        W20716   5.062  15.236   4.371 -0.0326  0.0327 -0.0206
 4583W        W20717   5.207   3.569   1.009  0.0674  0.1296 -0.0549
 4584W        W20718  13.794   6.357  16.068 -0.0502  0.1400  0.0972
 4585W        W20719   4.641   6.981   0.439 -0.1379 -0.1107 -0.2109
 4586W        W20720   5.433   6.447   0.717 -0.0867  0.0193 -0.2803
 4587W        W20721  14.787   3.196  16.698 -0.2308 -0.0883  0.0246
 4588W        W20722   8.996   4.054  13.332 -0.1222  0.0575 -0.1167
 4589W        W20723   6.930   4.999   5.171 -0.0091  0.1146  0.0592
 4590W        W20724  12.148  16.083  16.365 -0.1627  0.2716 -0.0734
 4591W        W20725   5.483   1.803  17.080  0.2260  0.1212 -0.3033
 4592W        W20726  14.498   3.184  11.718  0.1736  0.2711  0.2031
 4593W        W20727  15.163   8.162  16.382  0.2434 -0.1707  0.0386
 4594W        W20728  15.135   6.897  14.523  0.3362  0.3123  0.1272
 4595W        W20729   3.712   4.346   1.564 -0.1358  0.2052 -0.1348
 4596W        W20730  15.492  15.557  14.120  0.3366  0.1125 -0.0173
 4597W        W20731   0.528   9.673  14.188 -0.3650  0.0917  0.1351
 4598W        W20732  12.908   2.949   3.274 -0.1301 -0.1189  0.0620
 4599W        W20733   4.355  10.818  16.567  0.0023  0.1325  0.2725
 4600W        W20734   5.705   0.845   5.131 -0.1162 -0.1779  0.0734
 4601W        W20735   0.512  16.045  16.812 -0.1008  0.1759  0.0179
 4602W        W20736  16.410  14.574  14.863 -0.2077 -0.2594  0.0885
 4603W        W20737  12.298  13.578   0.441 -0.1582  0.1310  0.0846
 4604W        W20738   2.284  11.227   1.194 -0.1927 -0.1258  0.0230
 4605W        W20739   6.402  12.929   4.487 -0.0505 -0.1124  0.5561
 4606W        W20740  14.412  10.389   0.816  0.1754  0.3399 -0.0053
 4607W        W20741   1.348   5.502   5.117  0.1848  0.1970  0.2885
 4608W        W20742   6.307   0.024   3.692  0.2090  0.0219  0.1975
 4609W        W20743  14.680  17.560  14.447 -0.2051 -0.3336  0.1524
 4610W        W20744   0.340   1.447  16.096 -0.1370 -0.0515 -0.1028
 4611W        W20745  14.835  15.500   2.142  0.0223 -0.1515  0.4171
 4612W        W20746   7.400  15.493   3.757 -0.0002 -0.1109 -0.0137
 4613W        W20747  10.705   7.012  13.451  0.1198 -0.3701  0.2363
 4614W        W20748  17.295  15.690  12.867 -0.0603 -0.3004  0.1139
 4615W        W20749  11.785  15.171  13.041 -0.0220 -0.1299  0.0224
 4616W        W20750  12.757   1.319   0.129 -0.1642 -0.1820  0.0021
 4617W        W20751  17.185   8.106  12.556 -0.1337  0.2222  0.0118
 4618W        W20752   6.644   6.300  14.522 -0.1990 -0.1405  0.2596
 4619W        W20753   3.354   0.806   2.823 -0.0317  0.2357  0.1526
 4620W        W20754  10.225   3.847   0.113  0.1098 -0.0922 -0.0839
 4621W        W20755  12.234  16.169   1.069  0.0237 -0.3432  0.1177
 4622W        W20756  12.394   6.562  13.457 -0.4066  0.0086  0.0544
 4623W        W20757   2.645   8.753   0.340  0.0694  0.1781  0.3643
 4624W        W20758   8.599  12.886  16.563 -0.2073 -0.0465  0.0103
 4625W        W20759   8.633  13.681   4.111 -0.3031 -0.0521 -0.0572
 4626W        W20760   9.594   0.774   2.614 -0.1305 -0.1431 -0.1322
 4627W        W20761  12.003   9.573  15.195  0.0936 -0.3264 -0.2571
 4628W        W20762   8.279   5.562  14.837  0.0255  0.2293 -0.3328
 4629W        W20763   5.943   5.955   4.362  0.0005  0.0045 -0.0327
 4630W        W20764  11.432   6.358  15.286 -0.1330  0.0476 -0.1255
 4631W        W20765   2.242   8.545   1.419 -0.2208  0.0403 -0.1424
 4632W        W20766  11.424  15.666   3.615  0.1557  0.0230  0.0209
 4633W        W20767   6.008  15.648  13.790 -0.0274  0.0204  0.0972
 4634W        W20768  16.216  15.278  15.412  0.1964  0.0159 -0.2952
 4635W        W20769  17.486   9.248   0.197 -0.1458 -0.0243  0.0452
 4636W        W20770   7.607  16.757  16.476  0.1796 -0.3623  0.0398
 4637W        W20771   3.394   6.872   2.570  0.0862 -0.0659 -0.2433
 4638W        W20772   6.230  14.179   5.633 -0.2610  0.0516 -0.0647
 4639W        W20773  10.316  14.481   5.206  0.1624  0.0777 -0.0942
 4640W        W20774  12.828   7.217   4.747  0.2686 -0.4119  0.0353
 4641W        W20775  13.871   7.021   4.434  0.1676  0.2514  0.0485
 4642W        W20776   1.090  13.151  14.177 -0.0940  0.1710 -0.0154
 4643W        W20777   3.158   7.930   0.157 -0.0776 -0.2211 -0.1995
 4644W        W20778  12.421  15.782   3.445 -0.0280 -0.3617  0.1736
 4645W        W20779  15.909  11.172  14.289  0.1771  0.1261  0.0192
 4646W        W20780   4.213   2.151   3.526 -0.1955  0.2854  0.3158
 4647W        W20781  11.308   8.051  13.727 -0.0795  0.0831  0.1760
 4648W        W20782   1.988   9.684   5.163  0.0094 -0.1585  0.2913
 4649W        W20783  15.985  16.950  14.905 -0.2413  0.2601  0.1243
 4650W        W20784   7.481   4.590  13.149  0.2547  0.2602 -0.1961
 4651W        W20785   3.731  14.140   4.693  0.0627  0.1545 -0.0636
 4652W        W20786  13.129   0.420   2.740  0.3540 -0.0534 -0.0888
 4653W        W20787   0.620   1.533   5.628 -0.3511  0.0669 -0.0985
 4654W        W20788  11.605   1.950  16.844 -0.3107 -0.1433 -0.1838
 4655W        W20789  16.214   4.657   0.063  0.0409 -0.2371 -0.0164
 4656W        W20790  12.465   9.571  16.744  0.0252 -0.1863  0.0742
 4657W        W20791   9.946   7.269   2.970 -0.2372 -0.2651  0.0685
 4658W        W20792  12.440   0.702  13.866 -0.0239  0.0609  0.3546
 4659W        W20793   9.652  16.160  15.720  0.0343 -0.0567  0.0581
 4660W        W20794  12.627  15.052   3.249 -0.2760 -0.2851  0.1889
 4661W        W20795   5.555   4.825   1.427 -0.1016  0.2299  0.3463
 4662W        W20796  17.062  13.750   1.961  0.0192  0.4124  0.1177
 4663W        W20797   4.875  10.257  10.877  0.1881 -0.1298  0.1643
 4664W        W20798   9.238  10.876   4.407 -0.1500  0.1937  0.0790
 4665W        W20799  14.292  13.624  13.653  0.0449  0.1517  0.3624
 4666W        W20800  11.372   1.716   6.373 -0.0614 -0.2529  0.2161
 4667W        W20801   9.442   2.948  12.971 -0.1798 -0.2983 -0.1372
 4668W        W20802  13.060   9.224  14.876  0.2762 -0.0460  0.4964
 4669W        W20803   3.727  13.575  11.745 -0.2567  0.0362  0.0385
 4670W        W20804   8.264   5.151  16.482 -0.0993 -0.0103 -0.4553
 4671W        W20805  16.857   0.076  16.290 -0.1048  0.1645 -0.0590
 4672W        W20806   1.100  11.485  12.827  0.2310 -0.3346  0.2964
 4673W        W20807   6.538  13.196  12.521  0.2713 -0.1108 -0.0704
 4674W        W20808   6.060   0.781   4.629 -0.1129  0.1439 -0.0146
 4675W        W20809   5.518  11.874  17.154  0.1948 -0.0694  0.0125
 4676W        W20810  16.141   7.840   4.643  0.0295 -0.3089 -0.0503
 4677W        W20811   9.113  10.104   1.470 -0.2230  0.0583 -0.1128
 4678W        W20812   8.242   0.784  13.158 -0.1637 -0.0762  0.0265
 4679W        W20813   7.471   1.852   3.273 -0.1741 -0.1604 -0.1104
 4680W        W20814   5.522  14.148  13.127  0.1770 -0.1427  0.2492
 4681W        W20815  10.229  12.276  12.189  0.1164  0.5061  0.1518
 4682W        W20816   0.812  11.183   4.963  0.1679 -0.1037 -0.0418
 4683W        W20817  11.545   9.320   4.494 -0.1647 -0.2125  0.1148
 4684W        W20818  12.716  17.448   3.107  0.2606  0.0106 -0.2084
 4685W        W20819   6.415   4.302   3.831  0.0950 -0.1740  0.1480
 4686W        W20820   9.097   6.138   1.746  0.4270 -0.2462  0.0587
 4687W        W20821  14.728  13.820   0.699 -0.0531  0.1216  0.1503
 4688W        W20822   1.247  11.797  16.934  0.2558 -0.1177 -0.1878
 4689W        W20823   9.703   5.337  13.593 -0.3589 -0.1163  0.0933
 4690W        W20824   4.683   1.313   5.876 -0.1892  0.1497 -0.0671
 4691W        W20825   0.510   0.615   2.059  0.0755 -0.2785 -0.1494
 4692W        W20826   8.700   7.181  15.578  0.0475 -0.1546 -0.2632
 4693W        W20827   2.043   5.266   3.244 -0.0525  0.2947 -0.0277
 4694W        W20828  14.219  11.876  12.974  0.0587 -0.2894  0.1528
 4695W        W20829  12.897  10.649   3.856 -0.4382 -0.3814  0.2091
 4696W        W20830   4.082   1.592  14.133 -0.0350  0.0579  0.0668
 4697W        W20831   1.984  17.623  13.322  0.1714 -0.0385 -0.3003
 4698W        W20832  10.636   8.857  12.487  0.2195 -0.2603 -0.0336
 4699W        W20833   5.995  16.163  16.836  0.2269 -0.0672 -0.0939
 4700W        W20834  16.343   4.120  11.625  0.1990  0.0303 -0.0308
 4701W        W20835  15.272  13.048  13.212  0.1632 -0.1987 -0.2126
 4702W        W20836  12.537   1.808  15.206 -0.0059  0.2429  0.0803
 4703W        W20837   9.230   4.181  15.996  0.0231 -0.0352 -0.2271
 4704W        W20838   7.876  14.735   5.488  0.2773 -0.1905 -0.4075
 4705W        W20839   6.080  10.489  12.129 -0.1848  0.0725 -0.4181
 4706W        W20840  13.800  15.115  13.485 -0.0451 -0.0404 -0.0162
 4707W        W20841   5.909   8.546   4.307 -0.0848 -0.0888 -0.1519
 4708W        W20842  14.743  14.418  11.715  0.0142 -0.0014  0.3793
 4709W        W20843   1.368   6.755   2.391 -0.0675 -0.2282 -0.2158
 4710W        W20844  15.125   1.169  13.466 -0.0147 -0.3088 -0.0864
 4711W        W20845   7.142   8.502   1.590  0.0096  0.2531 -0.4499
 4712W        W20846  15.824   4.782  16.864 -0.2548  0.1240  0.0830
 4713W        W20847  12.349   3.720   5.923 -0.0757  0.1825  0.1313
 4714W        W20848   5.802   6.589   3.664  0.0116  0.1876 -0.1069
 4715W        W20849   7.799   4.592   0.518 -0.2406 -0.1708 -0.2874
 4716W        W20850   7.194   6.955   1.915 -0.4497  0.2978  0.0422
 4717W        W20851  15.831   1.479   2.996  0.2443 -0.2721  0.2634
 4718W        W20852  13.980  10.645   5.176 -0.1146 -0.3746  0.1306
 4719W        W20853  17.237   3.234  11.804 -0.0491  0.0233  0.0360
 4720W        W20854  14.881  16.575   2.453  0.1664  0.2102  0.2146
 4721W        W20855  16.686  16.745  14.217 -0.2454 -0.0237 -0.3280
 4722W        W20856  15.273   0.070   3.302  0.1774 -0.0656  0.1449
 4723W        W20857   3.749   2.639   0.394 -0.0013 -0.0091 -0.4017
 4724W        W20858  13.414  10.341   3.569 -0.1693  0.0208 -0.0881
 4725W        W20859   7.032   8.690   4.692  0.0348  0.2772  0.3277
 4726W        W20860   1.561  10.590  10.969 -0.1404 -0.1447  0.2908
 4727W        W20861  11.755   9.291  13.466  0.0037 -0.3402 -0.3131
 4728W        W20862  15.512  13.720  14.086 -0.1146  0.0654 -0.0646
 4729W        W20863  10.083  13.819   0.428 -0.0057 -0.3175 -0.1239
 4730W        W20864   8.555  14.663   1.173 -0.0786  0.2433 -0.0492
 4731W        W20865  10.063  13.254   6.010  0.0048  0.0580 -0.2922
 4732W        W20866   2.662   7.938  11.923  0.2277 -0.0180 -0.1056
 4733W        W20867   2.099  14.139   3.827  0.0492  0.1689 -0.1015
 4734W        W20868  16.024   1.171   1.614  0.2088 -0.1275 -0.1791
 4735W        W20869  10.401   9.490  14.908 -0.3711  0.0597 -0.4800
 4736W        W20870   3.944  16.569   5.140 -0.2214  0.0529  0.0863
 4737W        W20871  11.447   1.872   2.849 -0.2694  0.0166 -0.1571
 4738W        W20872  15.110  15.633  12.935  0.0269  0.2033 -0.2005
 4739W        W20873   8.247   8.265   2.718 -0.2206  0.1626  0.1086
 4740W        W20874   1.862   6.336   4.154  0.0498  0.0379  0.0571
 4741W        W20875  13.463  16.919   5.453 -0.1536  0.1682 -0.5036
 4742W        W20876  10.259   9.842  15.355  0.0736  0.0411  0.3002
 4743W        W20877   9.608   1.970   4.918 -0.2782  0.0869  0.1298
 4744W        W20878   9.830  15.978  16.876 -0.0232  0.0050  0.0425
 4745W        W20879   5.525   3.857  12.592  0.0427  0.4599 -0.1093
 4746W        W20880   2.467  10.419  12.889  0.4150  0.1472 -0.4939
 4747W        W20881  15.962   3.756   2.704 -0.0556  0.1185  0.0437
 4748W        W20882   5.871   4.767  13.290 -0.1707  0.1752 -0.0462
 4749W        W20883   9.243   4.815   4.067  0.2045  0.2823  0.0688
 4750W        W20884   4.094   8.211  15.813 -0.0145 -0.2421 -0.3378
 4751W        W20885  13.008   3.541  15.752 -0.2749  0.1065 -0.1237
 4752W        W20886   6.105  11.128   5.183 -0.1078 -0.0721  0.1418
 4753W        W20887  14.088   9.549  17.084 -0.1231  0.0403  0.0273
 4754W        W20888   4.323   7.241   5.309  0.1402  0.2060  0.1128
 4755W        W20889   7.909   5.091   1.810 -0.0149  0.0190  0.0399
 4756W        W20890  12.393  17.310   4.944  0.0501  0.0569 -0.2267
 4757W        W20891   0.348   6.417  16.234  0.0182 -0.0636  0.0220
 4758W        W20892  14.605   2.279  16.719  0.3773  0.0587 -0.0873
 4759W        W20893  15.384  15.148   6.050 -0.1297  0.1005 -0.0098
 4760W        W20894   7.710  15.655   2.983  0.2106  0.2817  0.1201
 4761W        W20895  17.027   8.505   1.868  0.1374  0.0553 -0.0776
 4762W        W20896  15.469  11.951   0.024  0.0160 -0.1703  0.1346
 4763W        W20897   5.339   1.918   3.399 -0.0712 -0.1299 -0.1249
 4764W        W20898  10.979   7.210   3.130 -0.2101  0.1107 -0.0095
 4765W        W20899   5.902  15.449   0.691  0.1231 -0.0782  0.1369
 4766W        W20900  11.838   3.671  12.612  0.1644  0.0209  0.1674
 4767W        W20901   5.806   7.656   4.558  0.0100 -0.2415 -0.1393
 4768W        W20902  10.726  12.638   3.429  0.2014  0.2816 -0.0473
 4769W        W20903  14.738  10.314  15.447  0.0106  0.2621  0.2010
 4770W        W20904  11.867  12.082   1.310 -0.1263 -0.2082 -0.0483
 4771W        W20905   1.532  17.007   2.617 -0.0702  0.1068  0.1493
 4772W        W20906  10.590   0.787  15.733  0.0636 -0.0643 -0.0492
 4773W        W20907   6.553   0.587   1.419 -0.2506 -0.1308  0.1960
 4774W        W20908   5.421  11.337   0.717 -0.1133 -0.0107  0.0234
 4775W        W20909   4.689  17.255   3.505 -0.2972 -0.0295 -0.3425
 4776W        W20910   1.324   1.286   0.577  0.0373  0.2324 -0.2042
 4777W        W20911  13.148   3.646  14.913  0.2224 -0.1966 -0.0299
 4778W        W20912   7.418   0.339   5.195 -0.0141 -0.0475 -0.2847
 4779W        W20913   1.069  11.830   0.399  0.1073 -0.2908  0.2234
 4780W        W20914  11.524   3.721  15.627 -0.2327  0.3317  0.0892
 4781W        W20915   7.237   6.072  16.347 -0.3219  0.0841  0.1912
 4782W        W20916  11.473  15.057   0.513  0.2065  0.1863  0.2897
 4783W        W20917  12.962  10.852   3.182 -0.0179 -0.0591  0.0513
 4784W        W20918   9.447   3.723  16.105  0.1044  0.0769  0.0098
 4785W        W20919   9.780  17.026  15.429 -0.1200  0.1781 -0.0601
 4786W        W20920  14.175  14.385   3.722 -0.0269  0.0299 -0.1644
 4787W        W20921  10.976  11.019   2.130  0.2111 -0.0016  0.2888
 4788W        W20922   4.161   8.165   5.229 -0.0561 -0.0944  0.2449
 4789W        W20923  15.314  13.007   3.065 -0.0456  0.0466 -0.2108
 4790W        W20924   4.476   6.712  14.014 -0.1595 -0.0197 -0.0304
 4791W        W20925  16.528  11.408  17.125  0.0148 -0.2185 -0.1740
 4792W        W20926  16.138   8.561   2.726 -0.0066 -0.1812  0.0470
 4793W        W20927  12.507  13.742   3.752  0.0434  0.0361  0.1058
 4794W        W20928   1.272  10.764  16.787 -0.1103 -0.2303  0.0675
 4795W        W20929  15.654   9.290  13.602  0.0028  0.1684  0.0498
 4796W        W20930  17.085   8.068   4.989 -0.1130  0.0672  0.0448
 4797W        W20931   7.275   5.008   3.939 -0.0179  0.0628  0.0005
 4798W        W20932  14.511  16.672   5.608 -0.0684  0.0344  0.3441
 4799W        W20933   4.899   3.857  16.903 -0.0638 -0.1275  0.1820
 4800W        W20934  16.034   9.933  15.333 -0.1974 -0.0411  0.0913
 4801W        W20935   3.373   8.239   2.271  0.0612  0.3276  0.1918
 4802W        W20936   3.499  14.722   5.537 -0.0645  0.0272  0.1290
 4803W        W20937  15.527   8.647  12.035 -0.2813 -0.0082  0.4581
 4804W        W20938  14.236   7.083  14.603 -0.3102  0.0196  0.1016
 4805W        W20939   1.103   6.485  15.933  0.1376 -0.1988  0.3633
 4806W        W20940   6.862   5.477   5.246  0.2555  0.0531  0.0384
 4807W        W20941   1.620  10.468  16.907 -0.0327 -0.0289  0.1968
 4808W        W20942  15.548   4.108   5.470  0.0187 -0.1348  0.0313
 4809W        W20943   2.892   9.111   2.152 -0.0060  0.0650  0.1147
 4810W        W20944  11.274   0.685   5.256  0.1037 -0.0807  0.0670
 4811W        W20945  10.544   9.198  11.637 -0.0507  0.0372  0.2527
 4812W        W20946  11.880   6.612   1.943 -0.1502 -0.2361  0.0177
 4813W        W20947   0.626  12.161  17.013  0.2695  0.0875  0.3167
 4814W        W20948  16.069  10.362  14.999 -0.3314 -0.3639  0.1097
 4815W        W20949   7.066   5.964  14.270 -0.2014  0.1235 -0.0305
 4816W        W20950  13.902   4.561   1.173  0.0542 -0.0329 -0.2211
 4817W        W20951  14.561  12.616   1.110 -0.2529 -0.0588  0.0351
 4818W        W20952  13.623  17.492  13.207 -0.1824  0.0624  0.0194
 4819W        W20953  12.557   1.411   3.894  0.1181 -0.0848  0.2576
 4820W        W20954   5.553  15.994  11.962 -0.3977 -0.0839  0.2448
 4821W        W20955  15.470  10.067   2.701 -0.2211 -0.0857  0.1505
 4822W        W20956  15.770   4.478  14.731  0.3689  0.0367  0.1972
 4823W        W20957   8.557   1.272   6.002  0.0306 -0.2121 -0.0842
 4824W        W20958  12.274   5.213  12.336 -0.1884  0.2494  0.0561
 4825W        W20959   4.920  12.580  11.758  0.1327 -0.0203  0.0649
 4826W        W20960   6.489  13.486   4.586  0.1166 -0.0529  0.2997
 4827W        W20961   9.833  15.584  12.142  0.3910  0.0915  0.2931
 4828W        W20962  11.260  17.459   5.609  0.1887 -0.0989  0.0565
 4829W        W20963  13.685  11.522   4.391 -0.0235  0.0642 -0.0767
 4830W        W20964   8.056   0.677  14.060 -0.0880 -0.2026 -0.3348
 4831W        W20965   4.571  12.781  14.175 -0.1224 -0.4110 -0.1009
 4832W        W20966  17.346  15.529   4.193  0.0073 -0.0657 -0.0426
 4833W        W20967   8.842   0.976  16.098 -0.0381  0.1720  0.3336
 4834W        W20968   5.629   1.220   0.349  0.0538 -0.0215  0.0037
 4835W        W20969  15.416  15.853  15.707  0.0579 -0.2244 -0.0474
 4836W        W20970   1.651   1.010   3.794 -0.0452  0.2657  0.0769
 4837W        W20971  10.286   7.539   2.719 -0.0298 -0.1640  0.1244
 4838W        W20972  13.173   0.956   2.718  0.2460 -0.0696 -0.1161
 4839W        W20973   9.138  10.740   5.411 -0.1032  0.1342 -0.0043
 4840W        W20974   8.336   7.292  14.768  0.4129 -0.1176 -0.0421
 4841W        W20975   5.785   8.410  12.741 -0.0595  0.1332  0.1309
 4842W        W20976  17.337  16.264   0.949  0.3525  0.3100  0.1020
 4843W        W20977  13.964   3.099   3.262 -0.0985 -0.1589  0.0434
 4844W        W20978  11.276  15.580   5.484  0.1960  0.1846  0.3340
 4845W        W20979   4.885   7.740   2.339  0.0795  0.1530 -0.1022
 4846W        W20980  14.738   7.511   4.557  0.1881 -0.2990 -0.0273
 4847W        W20981  11.122   3.852  16.979 -0.0183  0.0024 -0.1355
 4848W        W20982   9.274   9.605  12.038  0.1704 -0.3552  0.1959
 4849W        W20983   4.284   2.886  14.123  0.0645  0.1842  0.0725
 4850W        W20984  13.534   8.133   2.907 -0.1041  0.0704 -0.0399
 4851W        W20985   1.671   3.187   3.216  0.1591  0.1333 -0.1962
 4852W        W20986   7.019  16.707   1.784 -0.3706 -0.2088 -0.2928
 4853W        W20987  17.465   5.258  15.864  0.1685  0.0583  0.1077
 4854W        W20988  10.906  15.426   1.199  0.1649 -0.0063  0.0404
 4855W        W20989   8.038   3.395   4.551  0.0677 -0.2403  0.2888
 4856W        W20990   7.878  11.862  12.901 -0.0159 -0.2594  0.1785
 4857W        W20991   6.208   4.588   1.788  0.0502 -0.0144  0.0096
 4858W        W20992   7.061  14.706  16.460  0.2468 -0.1683  0.1460
 4859W        W20993   2.475   8.305  15.389 -0.0012 -0.1174 -0.1388
 4860W        W20994   2.205   7.119  16.809  0.3883 -0.1563  0.0861
 4861W        W20995  13.346   0.708  13.795  0.2041 -0.1804 -0.1896
 4862W        W20996   2.038  16.656   2.664  0.0231 -0.1269 -0.2257
 4863W        W20997   6.069   0.416   0.232  0.1480 -0.1396 -0.2721
 4864W        W20998  17.180  12.794   3.982  0.1270 -0.5154  0.1521
 4865W        W20999   7.599  16.304   5.735 -0.2365  0.0739 -0.2100
 4866W        W21000  12.987  13.191  16.236  0.0930 -0.0637 -0.1176
 4867W        W21001   2.421   9.246  11.602  0.1586  0.0389  0.0977
 4868W        W21002   6.619  10.362   3.424 -0.1880 -0.0519  0.0378
 4869W        W21003   9.072  11.494   3.092  0.0311 -0.0697 -0.0031
 4870W        W21004  14.805   0.712   4.916  0.2793 -0.0099 -0.0390
 4871W        W21005  15.400  10.782   4.789  0.1407 -0.1823  0.0796
 4872W        W21006   6.986   0.097  14.886  0.0013  0.1591 -0.1192
 4873W        W21007   8.381  15.399  12.085  0.1781 -0.0512 -0.2647
 4874W        W21008   7.536   4.187   0.542 -0.2815 -0.1908 -0.1336
 4875W        W21009   9.872   2.241   4.533 -0.2261 -0.1456 -0.1310
 4876W        W21010  16.502   4.788   3.581  0.0942  0.1252 -0.0442
 4877W        W21011   4.749   4.613  14.601 -0.1701 -0.1488 -0.2105
 4878W        W21012   9.255  14.891  15.691 -0.1046  0.1279 -0.1589
 4879W        W21013   9.981   4.018  15.326  0.0185  0.0392 -0.0582
 4880W        W21014  13.644   3.147   0.162  0.2113  0.1383  0.2558
 4881W        W21015   5.784   1.775   2.397 -0.0308 -0.2575  0.0359
 4882W        W21016   2.298  10.838  16.290  0.0259 -0.1071  0.1143
 4883W        W21017  11.167   5.437  14.965 -0.1929  0.0469 -0.1277
 4884W        W21018   8.493  13.405  16.634  0.1511 -0.2148 -0.2447
 4885W        W21019   1.722  13.704   1.255 -0.0429 -0.0283 -0.0945
 4886W        W21020  11.818  11.294  14.967 -0.1002 -0.2168 -0.1781
 4887W        W21021   0.863  11.744  13.246  0.4627  0.0851 -0.1456
 4888W        W21022   6.576   9.132  15.847 -0.2036 -0.2981  0.1767
 4889W        W21023   3.217  14.498  16.903  0.1222 -0.1278 -0.2880
 4890W        W21024  15.637   6.527  12.844  0.2330  0.0673 -0.1024
 4891W        W21025   7.543  12.980  14.773 -0.1244  0.0544 -0.2599
 4892W        W21026  13.668  12.653   0.272 -0.1456  0.0551  0.1694
 4893W        W21027   2.934  17.112   4.071 -0.3345  0.2508  0.0488
 4894W        W21028   7.366  17.177  13.609 -0.1831 -0.0218  0.0730
 4895W        W21029   7.928   8.450   4.600  0.4818  0.0540 -0.0826
 4896W        W21030   8.244  13.457  15.889  0.3349 -0.2805  0.0737
 4897W        W21031   3.801  11.730   2.456 -0.1284  0.1405 -0.1489
 4898W        W21032   4.646   2.685   4.178 -0.2559 -0.0600  0.1386
 4899W        W21033   6.167   3.788   2.996 -0.0303 -0.0945 -0.1381
 4900W        W21034  11.272   6.907   2.659  0.0375  0.0001  0.4241
 4901W        W21035   1.193   3.443   1.524 -0.1668  0.1648  0.0306
 4902W        W21036  10.533   3.279  13.132  0.3458  0.0564  0.0333
 4903W        W21037  14.683   5.890  12.525 -0.3077  0.0766 -0.2344
 4904W        W21038  15.633   8.068  15.275  0.0167 -0.0868  0.3010
 4905W        W21039   0.353   9.071   4.850  0.0331  0.0602 -0.0841
 4906W        W21040   7.780  14.044   3.312  0.1680  0.0132 -0.1444
 4907W        W21041   7.845   9.042  14.936  0.1920  0.1581 -0.2910
 4908W        W21042   4.619   5.886  12.983 -0.1280  0.1450  0.0619
 4909W        W21043  13.386   4.273  12.277  0.2339 -0.4484  0.0851
 4910W        W21044   8.458  10.645   4.084 -0.1196  0.2840 -0.0885
 4911W        W21045  11.956   2.474  13.704  0.0006  0.0100 -0.1790
 4912W        W21046  12.275  14.664   3.590  0.1219  0.0771  0.0784
 4913W        W21047   9.314  11.091   3.998  0.2617  0.0499  0.0500
 4914W        W21048   4.434   8.048   3.484 -0.0785 -0.3588  0.0324
 4915W        W21049  17.304  12.480  15.857 -0.1774 -0.0833 -0.1912
 4916W        W21050  13.842   2.842   4.325  0.0609  0.0812  0.0219
 4917W        W21051   9.888   0.380   0.759 -0.0751  0.0603 -0.0435
 4918W        W21052   3.554   1.606  17.142 -0.2197 -0.1409 -0.3976
 4919W        W21053   0.449   7.626  13.816  0.0450 -0.2886 -0.3125
 4920W        W21054  17.208   4.976   3.950  0.1927 -0.0118 -0.0937
 4921W        W21055  10.528  10.536   4.600 -0.2228  0.3775 -0.0211
 4922W        W21056  15.770   8.164   2.285  0.1385  0.1663 -0.2286
 4923W        W21057   5.461   9.788  12.739  0.2472 -0.1474 -0.0941
 4924W        W21058   8.660  10.190   1.616  0.0650  0.3622  0.0535
 4925W        W21059   0.368   0.070  14.156  0.1650  0.2484  0.0152
 4926W        W21060  13.372   0.980   0.833  0.0441  0.1520  0.1382
 4927W        W21061   4.646  14.215   3.081  0.1066 -0.0439 -0.0303
 4928W        W21062   9.962  10.321   5.584 -0.1811  0.0802  0.5678
 4929W        W21063   7.007   8.276   1.162  0.0171 -0.4045 -0.2074
 4930W        W21064  14.208   6.858  14.160  0.3502 -0.1701  0.3344
 4931W        W21065   0.224  14.304  11.866  0.0689  0.0360 -0.1368
 4932W        W21066   5.321   3.018  17.038  0.2212 -0.0866 -0.3101
 4933W        W21067   7.053  13.684   2.658  0.1211 -0.3238 -0.0351
 4934W        W21068   2.325  10.245   3.099  0.0640 -0.2100  0.0405
 4935W        W21069   5.296   9.009  12.064 -0.3999  0.0613  0.0275
 4936W        W21070   4.191  15.627  15.081  0.1797 -0.1408 -0.0719
 4937W        W21071   5.016   2.585   6.183  0.2961  0.2821 -0.2020
 4938W        W21072  16.996   7.946  12.991  0.0026  0.1895  0.0281
 4939W        W21073  16.460  15.527  12.793  0.3941  0.2266  0.1784
 4940W        W21074  10.666   0.573   1.279  0.1198  0.0690  0.2010
 4941W        W21075   4.474   1.004  14.224 -0.0059  0.1176  0.0804
 4942W        W21076   5.729  17.361  13.115 -0.0840 -0.0245 -0.1564
 4943W        W21077  15.016   7.592   5.371 -0.2356  0.1997  0.3014
 4944W        W21078   6.878  10.817   0.638  0.0750  0.0271 -0.1467
 4945W        W21079  12.880   8.733  15.896  0.3594 -0.1293 -0.0166
 4946W        W21080   9.756  12.489  14.784 -0.0088 -0.1987  0.4281
 4947W        W21081  16.549  16.824  14.710  0.3296  0.0004  0.3861
 4948W        W21082  14.393  15.569   0.059 -0.3981 -0.1065 -0.0627
 4949W        W21083   9.057  12.363  15.353 -0.2123  0.0159  0.1309
 4950W        W21084  16.352  11.060   0.480  0.1153  0.0687  0.0859
 4951W        W21085   7.803   0.576   4.295 -0.1775  0.2524 -0.1321
 4952W        W21086  14.265   4.217  16.466 -0.1322  0.0160  0.0427
 4953W        W21087  13.403   6.602  15.394 -0.1057 -0.1981 -0.0250
 4954W        W21088  13.459   9.100  15.398 -0.1300 -0.1612 -0.0598
 4955W        W21089  13.448  16.230   4.765 -0.0520 -0.1652  0.4613
 4956W        W21090   8.490  10.984   0.940  0.1457  0.0911 -0.1767
 4957W        W21091   4.925  11.475   0.693  0.1298 -0.0596 -0.0525
 4958W        W21092  10.346  14.172  16.802 -0.1218 -0.1614  0.0544
 4959W        W21093   4.456   2.526  12.740 -0.0816  0.1109 -0.1522
 4960W        W21094  15.707   5.943  14.299 -0.4198 -0.3552  0.1783
 4961W        W21095  14.557  16.359   0.506  0.1928 -0.2195 -0.0318
 4962W        W21096  12.727   7.987  12.215  0.0682 -0.0342  0.0099
 4963W        W21097  10.773   4.372  13.605  0.0709 -0.3623  0.2129
 4964W        W21098   8.515  11.489   1.298 -0.0624  0.0411 -0.0577
 4965W        W21099  11.468   3.487   0.551 -0.1637 -0.3342 -0.1574
 4966W        W21100   8.705   0.001   4.540 -0.2133 -0.0490 -0.0432
 4967W        W21101   8.252   6.088  14.175 -0.1872 -0.0524 -0.1822
 4968W        W21102  14.288  11.309  16.607 -0.2696 -0.0852 -0.1165
 4969W        W21103   1.257   9.917   0.610 -0.1432 -0.0247 -0.2468
 4970W        W21104   5.251  13.700   3.331 -0.0999 -0.4566 -0.2661
 4971W        W21105   3.207   1.840  15.500 -0.0720 -0.4539  0.0768
 4972W        W21106   8.217  12.822   5.836  0.0840 -0.1192  0.2071
 4973W        W21107   6.649  12.237   3.225  0.3104  0.0440  0.0305
 4974W        W21108  17.513  11.413   4.460  0.1879 -0.2479  0.1278
 4975W        W21109   9.274   5.710  12.630 -0.1145  0.3099 -0.0424
 4976W        W21110   1.864  10.073   2.946 -0.4058 -0.3262 -0.1533
 4977W        W21111  14.074  15.099  13.934 -0.3811 -0.3015 -0.0213
 4978W        W21112   8.853   2.807   2.426  0.3909  0.0271  0.1005
 4979W        W21113  15.953  16.862  13.526  0.0214 -0.1178 -0.1647
 4980W        W21114   5.096  13.596  14.456 -0.1570 -0.1754 -0.2456
 4981W        W21115   1.386  17.536   2.455 -0.0943 -0.0257 -0.1425
 4982W        W21116   8.141   7.987  14.123  0.0434  0.1226  0.3763
 4983W        W21117   3.080   2.231  15.894  0.3504  0.2687  0.3259
 4984W        W21118   1.600  11.505  14.041 -0.0251  0.0571 -0.0754
 4985W        W21119   7.498  16.189  14.628  0.1917  0.0445 -0.0117
 4986W        W21120   8.830   5.939  16.853 -0.0558 -0.1107  0.4346
 4987W        W21121  11.995  11.198   6.076  0.0397 -0.0357 -0.0413
 4988W        W21122   2.479   4.797  14.528 -0.0702 -0.1197  0.1386
 4989W        W21123   0.119  12.093  12.147  0.0936  0.4323 -0.2439
 4990W        W21124   4.919  13.290   0.897  0.0368 -0.0647  0.0056
 4991W        W21125   1.609   3.125  16.434  0.2852 -0.0205  0.1141
 4992W        W21126  14.533  15.192  11.910 -0.1253 -0.1734  0.1663
 4993W        W21127  16.162   7.116  11.771  0.0854  0.2220 -0.2855
 4994W        W21128   0.311  12.590   0.734  0.3808  0.1017 -0.0949
 4995W        W21129   0.978   5.732   4.207 -0.2519 -0.2043 -0.1370
 4996W        W21130   1.028  12.641  16.526  0.3763 -0.1267  0.0359
 4997W        W21131  12.466  10.822   3.243  0.0478  0.1731 -0.1637
 4998W        W21132   5.915  12.439   3.862 -0.1262  0.0843 -0.1356
 4999W        W21133   7.611   8.831   6.043 -0.0895 -0.2359 -0.2346
 5000W        W21134  17.558   4.214   5.254  0.1993 -0.3218  0.0610
 5001W        W21135   0.403   3.961  16.079 -0.1358  0.0659 -0.1147
 5002W        W21136  16.667   0.155  12.953  0.2144  0.2925  0.1680
 5003W        W21137  15.127   1.529   2.313  0.2131 -0.0796 -0.0363
 5004W        W21138   8.324   0.774   0.629 -0.0724  0.0148  0.2718
 5005W        W21139   1.606   1.922  16.726 -0.2438  0.3577  0.0191
 5006W        W21140  11.307  16.985   2.074  0.0206  0.0193  0.0155
 5007W        W21141  16.277   3.810  13.425 -0.0864 -0.2634  0.0959
 5008W        W21142  11.102   6.186  16.180  0.1376 -0.0009 -0.1021
 5009W        W21143  17.085  16.024   2.479 -0.0741  0.0691 -0.2270
 5010W        W21144  14.804   7.536  15.151 -0.1472  0.1653  0.0300
 5011W        W21145   4.810  12.145  14.728  0.2886 -0.1438 -0.3628
 5012W        W21146   5.371   0.627  12.950 -0.1744 -0.0016  0.0985
 5013W        W21147   0.533  15.467  15.013 -0.3091  0.1959 -0.0307
 5014W        W21148   2.837  15.192   4.193 -0.1809  0.1516  0.0009
 5015W        W21149   5.405  14.967   3.004 -0.1381  0.1076 -0.2365
 5016W        W21150  11.764   0.551   0.733 -0.2406 -0.2342  0.2727
 5017W        W21151   1.146   7.868  11.286 -0.1357 -0.0662  0.0243
 5018W        W21152  12.045   3.966   1.331 -0.2291  0.1046  0.0700
 5019W        W21153  17.383   0.814  12.989 -0.0092  0.1035  0.1262
 5020W        W21154   4.833  12.745  15.493  0.0315  0.0344  0.0433
 5021W        W21155   5.032  11.965   0.990 -0.0790  0.1381  0.1869
 5022W        W21156  17.227   5.534  11.392  0.2925  0.0645 -0.0758
 5023W        W21157  16.464  12.824   3.714  0.0711 -0.1193 -0.1094
 5024W        W21158   1.086   9.410   0.655 -0.2052 -0.1651 -0.1255
 5025W        W21159   3.981  15.724   5.731 -0.3265 -0.0523  0.1088
 5026W        W21160  15.681   1.026   3.240  0.2089 -0.0032 -0.2756
 5027W        W21161   2.386  15.435   4.209  0.0394 -0.0676 -0.0637
 5028W        W21162  13.959  10.620  11.869  0.0574 -0.2664 -0.0774
 5029W        W21163  17.456  15.016   0.181 -0.1303  0.0606  0.0651
 5030W        W21164  14.924   3.114   3.147 -0.0207  0.0145 -0.0251
 5031W        W21165  12.833  16.634   6.127  0.1312 -0.1643 -0.0471
 5032W        W21166  14.253  10.821  16.772 -0.2242 -0.0212  0.1377
 5033W        W21167  16.915   4.790   1.949  0.2752  0.1209  0.1520
 5034W        W21168   3.944   6.463   4.983  0.3283  0.0261  0.1162
 5035W        W21169  12.053  15.200  14.034  0.0407 -0.3448 -0.1078
 5036W        W21170  17.587  13.022   4.800 -0.1254  0.1740 -0.0411
 5037W        W21171  12.989   9.597   5.028 -0.0235  0.0317 -0.2592
 5038W        W21172   2.232   4.195   4.057 -0.0819  0.2535  0.1599
 5039W        W21173  10.500  12.600  16.182 -0.3663  0.0792 -0.1099
 5040W        W21174  17.119   4.315   1.684  0.1032  0.0973 -0.0239
 5041W        W21175   2.023   4.031  11.858  0.1748  0.1497 -0.1807
 5042W        W21176  10.624   1.613  15.839  0.3739 -0.0319 -0.1842
 5043W        W21177  17.650  10.230  11.511 -0.2414 -0.3656  0.1837
 5044W        W21178   5.275  16.001   4.394 -0.1376 -0.0394  0.2591
 5045W        W21179  11.553  10.005   3.585  0.2074 -0.2980 -0.0189
 5046W        W21180   0.012  11.896   2.489  0.0747 -0.1165  0.1580
 5047W        W21181  14.827  16.678   3.008 -0.2974  0.2522  0.1011
 5048W        W21182  14.944  16.011  13.432  0.0694 -0.2558 -0.4100
 5049W        W21183  13.926   8.258   1.452 -0.2849  0.2111 -0.3589
 5050W        W21184   7.749   2.323   3.608 -0.2066 -0.0928 -0.0296
 5051W        W21185   1.964   2.939  12.701 -0.1840  0.0237  0.0357
 5052W        W21186   7.681  10.645  15.452 -0.1183  0.1030 -0.1053
 5053W        W21187   4.474  14.886  12.172  0.1263 -0.2413  0.0438
 5054W        W21188   3.413  10.557   3.895 -0.2151 -0.1969  0.3486
 5055W        W21189   9.435   7.833   5.591  0.0950 -0.3538 -0.2545
 5056W        W21190   8.853   6.523  12.941 -0.0996  0.0500  0.1566
 5057W        W21191  16.638   1.611   0.277 -0.0029 -0.1337  0.0138
 5058W        W21192   1.556   6.181  15.939  0.0516 -0.1960  0.1805
 5059W        W21193   8.058  17.058  16.213 -0.2760  0.1103 -0.0714
 5060W        W21194  11.224  16.109   0.682 -0.0750  0.3458  0.2442
 5061W        W21195   3.055  16.321   2.709 -0.1631 -0.2016  0.1231
 5062W        W21196  15.577   2.063  14.347  0.1712 -0.1946 -0.0397
 5063W        W21197  17.507  14.285  15.460 -0.4445  0.0036  0.1005
 5064W        W21198  14.211   3.122   0.312 -0.0148 -0.0359 -0.0527
 5065W        W21199  16.314   0.553  14.635  0.1117  0.1625  0.1042
 5066W        W21200   9.386   6.602  12.479 -0.1144 -0.0115  0.1174
 5067W        W21201   1.903  13.163  14.904  0.0749 -0.0824 -0.1006
 5068W        W21202  13.051   3.855  14.105  0.2153  0.2810  0.0285
 5069W        W21203  13.331   4.742  13.193 -0.0534  0.1180 -0.1733
 5070W        W21204  10.354  16.640  16.390 -0.0981 -0.0986 -0.0445
 5071W        W21205  13.555   4.792   4.551 -0.4480  0.0037 -0.2481
 5072W        W21206  13.306   8.900   4.771 -0.2308  0.3108  0.0732
 5073W        W21207   6.074  16.679   1.322 -0.1887 -0.0822  0.0516
 5074W        W21208   9.822   9.055   0.177 -0.2485 -0.1242  0.1666
 5075W        W21209   4.884  11.435  12.945  0.0487  0.2328 -0.3620
 5076W        W21210   4.939  12.689   5.611 -0.1665 -0.0123  0.2646
 5077W        W21211   1.990   9.392  11.400  0.3677 -0.0512  0.2673
 5078W        W21212   7.842  15.483  14.145 -0.3342 -0.2718 -0.2001
 5079W        W21213  14.818  16.554  14.157  0.1774  0.2566 -0.0226
 5080W        W21214  10.727   2.026  15.592  0.0394  0.0382 -0.4063
 5081W        W21215  10.117  11.312  15.215 -0.3989  0.0432 -0.1223
 5082W        W21216  14.492  11.355  14.338  0.1011  0.1032  0.1341
 5083W        W21217   7.612   1.585  13.978  0.1405  0.3477 -0.0593
 5084W        W21218   7.873   4.559  15.294  0.2452 -0.1419 -0.1379
 5085W        W21219   9.508   2.416   5.067 -0.1359  0.2768  0.1579
 5086W        W21220  11.493  12.884  12.396  0.0393 -0.2630 -0.1665
 5087W        W21221   5.134   9.515   2.747 -0.0250 -0.1832 -0.0280
 5088W        W21222  13.212  11.226  11.708  0.1001 -0.0674  0.5448
 5089W        W21223  17.049   3.932   4.272 -0.2008 -0.1835 -0.1988
 5090W        W21224  12.635   6.124   1.325  0.0680 -0.4808 -0.0552
 5091W        W21225   5.513   0.128  14.647 -0.0120 -0.1131 -0.0758
 5092W        W21226  10.305  14.440   2.741 -0.1178 -0.2257 -0.1480
 5093W        W21227   6.135  13.602  12.467 -0.0554 -0.1464  0.0889
 5094W        W21228   2.787  13.530   5.237  0.0806 -0.1227 -0.0804
 5095W        W21229  10.411   2.935   5.807 -0.1399 -0.2107 -0.0493
 5096W        W21230  13.031  17.586  16.959  0.0348 -0.0472  0.0348
 5097W        W21231  14.688  15.175  15.622  0.1474 -0.5205 -0.2806
 5098W        W21232  14.014  12.395  12.713 -0.0089 -0.0516  0.2498
 5099W        W21233   3.717   9.662  15.994 -0.0875 -0.0638 -0.1528
 5100W        W21234  14.352   0.405  15.738  0.0349  0.2154 -0.3433
 5101W        W21235   9.728   7.136  13.152 -0.1351  0.2939 -0.0783
 5102W        W21236   2.927  13.254  16.677  0.0088 -0.2317  0.2280
 5103W        W21237   6.165  11.622  15.351  0.0027  0.1088 -0.2816
 5104W        W21238   6.392   0.203  16.398  0.1142 -0.0333  0.2023
 5105W        W21239   5.742  17.203   1.965  0.1060 -0.3202 -0.2724
 5106W        W21240   8.348  11.936  12.433 -0.0544 -0.1008 -0.0439
 5107W        W21241   5.442   5.250   1.673  0.0447 -0.1043  0.2165
 5108W        W21242   3.189   9.549   4.733 -0.1777 -0.0426 -0.1647
 5109W        W21243   4.201   7.354   3.598 -0.2366  0.1894 -0.0379
 5110W        W21244  12.497   3.678   4.304 -0.2510 -0.1047  0.1252
 5111W        W21245   4.979  11.701  15.940  0.0646 -0.3868  0.1114
 5112W        W21246  15.185  14.059   0.458 -0.0480 -0.2663 -0.3087
 5113W        W21247  10.416   6.616  12.834 -0.0591 -0.1508 -0.3729
 5114W        W21248   6.094   2.526  12.667 -0.3768  0.1131 -0.0225
 5115W        W21249  12.573   5.001  14.247 -0.1070 -0.1163 -0.3085
 5116W        W21250  11.288   1.411   0.535 -0.1226 -0.2792 -0.0998
 5117W        W21251   7.876   1.964   2.104  0.3164  0.1700 -0.2491
 5118W        W21252   3.479   6.669   5.193  0.2904  0.2060 -0.3427
 5119W        W21253  14.060   7.273  12.233 -0.1811  0.2484 -0.4164
 5120W        W21254  12.599   7.610   5.011  0.2768 -0.2343  0.0646
 5121W        W21255  11.593   4.691   2.986  0.0928 -0.1245 -0.0288
 5122W        W21256   6.679  10.920  16.848 -0.1702  0.2310 -0.1098
 5123W        W21257   6.536   6.948   1.858 -0.4822  0.2538 -0.1779
 5124W        W21258   5.463   8.898   0.067  0.0740 -0.0537 -0.2535
 5125W        W21259   0.075   1.247   0.029 -0.0323  0.3563 -0.0550
 5126W        W21260   1.031   1.711   1.573  0.0083 -0.1635 -0.1041
 5127W        W21261  15.091   8.844  11.396  0.0021  0.0167  0.0884
 5128W        W21262   0.068  10.714  11.398 -0.0038  0.0737 -0.1436
 5129W        W21263   6.685  14.999  14.621 -0.0277  0.5685  0.1599
 5130W        W21264  16.801  10.338   0.770 -0.2113 -0.0994 -0.0281
 5131W        W21265  12.296   9.580   0.451  0.3463  0.2087  0.0701
 5132W        W21266  10.162  11.632  13.684 -0.2850 -0.2804 -0.0231
 5133W        W21267  11.534   5.524   1.270 -0.1789  0.4416  0.1045
 5134W        W21268   2.461  13.999   3.115  0.1167  0.0954 -0.0648
 5135W        W21269   0.782   8.099   2.941 -0.0104  0.2655  0.0520
 5136W        W21270   5.405  14.480   2.090 -0.1859  0.0100 -0.0193
 5137W        W21271   3.279  13.270   1.873  0.0656 -0.1296 -0.1377
 5138W        W21272  12.857  16.721  15.073 -0.1393 -0.1654  0.1139
 5139W        W21273  14.940  11.702   6.462  0.1946 -0.1407  0.0262
 5140W        W21274   2.943   8.585  16.640 -0.1091 -0.2184  0.1473
 5141W        W21275  13.574  13.388   1.646  0.0609 -0.2982 -0.1021
 5142W        W21276   3.426   3.604  12.180 -0.2976 -0.0024  0.1630
 5143W        W21277  11.233   4.338  15.591  0.3641  0.1368 -0.1825
 5144W        W21278   1.852  14.860  15.876 -0.0913  0.3236  0.2754
 5145W        W21279   8.596  14.681  10.926  0.1374 -0.1728  0.0567
 5146W        W21280  15.599   4.450  15.220 -0.0831 -0.1631  0.0864
 5147W        W21281   4.701   5.022  13.384 -0.0881 -0.4168 -0.2679
 5148W        W21282  15.081  13.585  14.314  0.0942 -0.0856 -0.1321
 5149W        W21283   4.683  11.312  13.429 -0.0047 -0.5686 -0.3664
 5150W        W21284  10.177  12.815  15.042 -0.0201 -0.0761 -0.1874
 5151W        W21285  13.326  17.032   1.639 -0.1649 -0.2508  0.1576
 5152W        W21286   3.456   3.368  14.900 -0.0860  0.2060  0.1372
 5153W        W21287  11.116   7.809   0.702  0.1239 -0.0229 -0.1671
 5154W        W21288  12.099  13.277   2.476  0.3519  0.1502 -0.0708
 5155W        W21289   2.979   0.846  13.552  0.0277 -0.1342  0.0690
 5156W        W21290  14.692  12.475  14.334  0.0932  0.2692 -0.0749
 5157W        W21291  15.059  12.780  16.983 -0.4142  0.3293 -0.2877
 5158W        W21292   6.025  13.137   2.663  0.1952 -0.0012 -0.1458
 5159W        W21293   9.759   0.872   3.870  0.1099 -0.3064 -0.0547
 5160W        W21294   5.549   3.256  15.775  0.1612 -0.2813 -0.0997
 5161W        W21295   6.449   6.525  15.842 -0.3816  0.0346 -0.1249
 5162W        W21296   3.213   9.467   3.112  0.0151 -0.3448 -0.1599
 5163W        W21297  10.354  15.727   3.491 -0.1538  0.0122 -0.1223
 5164W        W21298   6.071  10.631  13.677  0.1672 -0.3378  0.2249
 5165W        W21299   4.003   8.181  10.279 -0.0071 -0.1879 -0.3318
 5166W        W21300   5.071   7.363   5.774 -0.1088  0.3276  0.0101
 5167W        W21301   6.327   9.525   1.807  0.0595 -0.0815  0.0344
 5168W        W21302   9.281  14.915   0.920 -0.2452 -0.0460 -0.1680
 5169W        W21303  10.421   9.755  16.183  0.1808 -0.0919  0.0993
 5170W        W21304   2.916   7.325  15.298 -0.1841 -0.0878  0.1301
 5171W        W21305  15.215   2.962   4.078 -0.2461  0.5188  0.0104
 5172W        W21306   9.905   4.020  14.453 -0.0170  0.1028 -0.1475
 5173W        W21307  11.955  12.351   4.939  0.1786  0.0855  0.0263
 5174W        W21308   2.057   7.511  13.182  0.0065 -0.1109 -0.2520
 5175W        W21309   8.617  12.482   5.745 -0.1247  0.1404 -0.1318
 5176W        W21310   4.203  16.487  14.891 -0.0918  0.2983  0.2245
 5177W        W21311   9.962  17.597  11.843  0.2322  0.1644  0.3165
 5178W        W21312  14.250   6.037  12.249 -0.1468 -0.2616  0.0521
 5179W        W21313   8.642   9.935  14.363 -0.1281  0.0609 -0.0899
 5180W        W21314  12.299   2.044  13.574  0.4086  0.0073  0.1243
 5181W        W21315   0.544   9.322   2.170 -0.0049 -0.1776  0.0041
 5182W        W21316  10.368  16.212   3.893  0.0187  0.1603  0.0104
 5183W        W21317   9.132   5.417   4.689  0.3724  0.2333 -0.2576
 5184W        W21318  14.917   6.091  15.111  0.0693 -0.1197 -0.0024
 5185W        W21319   8.999   2.054   4.487  0.1691  0.2944 -0.2101
 5186W        W21320  10.233  10.832  13.670 -0.0642  0.2006  0.1508
 5187W        W21321  17.197   3.137   5.016 -0.0776  0.2833  0.2045
 5188W        W21322   1.031   9.934  13.811 -0.0489  0.0693  0.0514
 5189W        W21323  12.490   9.046  12.919 -0.3825  0.0731  0.1425
 5190W        W21324  16.628  14.529   2.552 -0.0253 -0.0944 -0.0155
 5191W        W21325   3.533   2.529   4.917 -0.0157 -0.3973 -0.0197
 5192W        W21326  14.104   0.391   3.050  0.2459  0.2826  0.1599
 5193W        W21327  17.066  11.943   0.560  0.0691 -0.4513 -0.1029
 5194W        W21328  10.630  15.532   0.799 -0.0717 -0.2119  0.1582
 5195W        W21329   5.620  11.623  14.416 -0.1274 -0.1833 -0.0793
 5196W        W21330  10.808   1.441  14.280 -0.0821 -0.2667  0.1819
 5197W        W21331   2.228   9.037  12.221 -0.0635 -0.0641  0.1971
 5198W        W21332   6.418  11.085   1.663  0.0403  0.1739 -0.0256
 5199W        W21333   1.651  15.571   0.058  0.4219  0.1752  0.1399
 5200W        W21334  15.940   8.945  12.297  0.2565 -0.0570 -0.2561
 5201W        W21335   5.700   7.236  13.589  0.0057  0.2603 -0.0929
 5202W        W21336  11.498   4.431   0.363 -0.0370 -0.2089  0.0402
 5203W        W21337  12.562   7.681   5.539 -0.1711 -0.1481  0.0232
 5204W        W21338   1.892  15.573   2.623 -0.1401 -0.1244  0.0862
 5205W        W21339   0.511  15.077   3.918  0.0004 -0.0242 -0.1846
 5206W        W21340   6.027   1.370   0.543  0.1229  0.1170  0.1091
 5207W        W21341   4.791  15.656  14.723 -0.3431 -0.0761 -0.1009
 5208W        W21342  11.308  11.351   2.171 -0.1242 -0.2807  0.2190
 5209W        W21343   3.771  11.170  11.894 -0.0770 -0.0866  0.0209
 5210W        W21344   1.870  10.649   4.282  0.0321  0.2428  0.1283
 5211W        W21345   9.032  14.643  14.699 -0.0374  0.0062 -0.1739
 5212W        W21346  13.417  11.783  17.000  0.0526 -0.0940 -0.0400
 5213W        W21347  16.348   1.538  16.235 -0.1127  0.3609 -0.0253
 5214W        W21348   6.352   8.978  16.978  0.2562  0.0627 -0.1024
 5215W        W21349  12.698  14.175   0.595  0.1721 -0.0403 -0.1402
 5216W        W21350   5.276  14.410   1.230 -0.1780  0.2032 -0.1403
 5217W        W21351   8.225   4.154  14.035  0.0683  0.0374  0.0137
 5218W        W21352   5.014  12.420  15.144  0.1049 -0.0247  0.0980
 5219W        W21353   8.222   4.841   2.664 -0.1849  0.0780  0.0575
 5220W        W21354  10.156  16.372   3.345  0.1018 -0.3339  0.1767
 5221W        W21355   8.031  11.206  14.230  0.1653 -0.1832 -0.3665
 5222W        W21356  17.113   6.865  10.352  0.0577 -0.0613 -0.0202
 5223W        W21357   5.395   0.323   5.331 -0.2101 -0.4886  0.1044
 5224W        W21358  14.726   3.073   0.435  0.0453  0.1565  0.0605
 5225W        W21359   1.791   4.753  16.126 -0.1448  0.1971 -0.1131
 5226W        W21360   5.346   8.518  16.937 -0.4878 -0.1793  0.1687
 5227W        W21361   6.526   7.328   4.638 -0.0774  0.0539 -0.0035
 5228W        W21362   3.942   3.498  15.672 -0.0075 -0.2188  0.4805
 5229W        W21363   5.050   6.615   3.248 -0.0827  0.0367  0.1719
 5230W        W21364  16.296   3.255   4.778 -0.1410  0.2840  0.0809
 5231W        W21365   4.238   2.130   1.523  0.4361 -0.0433 -0.3862
 5232W        W21366   9.931   7.286  12.751 -0.0485 -0.2571 -0.2642
 5233W        W21367  16.111  13.043   1.316  0.3024  0.0398 -0.1744
 5234W        W21368   0.327   7.826  12.928  0.3223  0.0712 -0.0266
 5235W        W21369  15.639   5.904  12.875 -0.1106 -0.1098 -0.0402
 5236W        W21370  13.153  15.813  12.759  0.0304  0.3199  0.0708
 5237W        W21371   7.507   3.867  12.545  0.4033  0.0063 -0.0476
 5238W        W21372   3.317   7.547  16.640 -0.0194  0.1788  0.1986
 5239W        W21373   4.586  16.768   2.226 -0.2561  0.1479 -0.3365
 5240W        W21374   2.003  15.283   1.310 -0.0220 -0.2458 -0.0393
 5241W        W21375   9.154   8.342  13.263 -0.1121  0.1190 -0.2752
 5242W        W21376  15.045  15.145   1.775  0.2768 -0.1430  0.2232
 5243W        W21377   8.951  15.895  15.151  0.0103  0.2104  0.2565
 5244W        W21378  10.561  12.705   1.652  0.0813  0.0287  0.0652
 5245W        W21379   3.730  11.054  13.711  0.0953  0.0768  0.0702
 5246W        W21380   7.986  15.109   2.020  0.1242  0.1070 -0.0359
 5247W        W21381  11.487   3.728   5.561  0.1764  0.0701 -0.0225
 5248W        W21382  16.882   4.616  16.008  0.0079  0.1382 -0.1588
 5249W        W21383  16.675   9.258  12.176  0.0933  0.0015  0.0461
 5250W        W21384  10.918  11.849   1.050 -0.1262  0.5159  0.1122
 5251W        W21385  10.840   8.322  13.775 -0.2203 -0.1038  0.1246
 5252W        W21386  15.261  16.014  11.522  0.2973  0.1559 -0.1737
 5253W        W21387   2.977   6.025   2.105  0.0184  0.0929 -0.0902
 5254W        W21388  11.084   4.520   4.960 -0.1705 -0.0422 -0.1453
 5255W        W21389  15.079   9.321  11.420 -0.0248  0.0324 -0.0819
 5256W        W21390  11.773  10.443   0.623  0.2145 -0.2413  0.2451
 5257W        W21391  16.892  13.696  16.153 -0.2136 -0.1952 -0.0412
 5258W        W21392   4.217   0.037  13.457 -0.1943 -0.0725 -0.2972
 5259W        W21393  14.931   2.055  15.928  0.0370 -0.0457 -0.5062
 5260W        W21394   7.853   2.308  12.615 -0.1126 -0.0773  0.0889
 5261W        W21395   4.869  12.803   1.964  0.3006  0.0110  0.0427
 5262W        W21396   8.379   3.897   0.428 -0.2456 -0.2488  0.1025
 5263W        W21397  16.541  10.082  15.424  0.0128 -0.2268 -0.1142
 5264W        W21398   7.744   9.964  13.686 -0.2117 -0.1621 -0.3206
 5265W        W21399   5.222  11.777   0.402 -0.1724  0.3501 -0.0930
 5266W        W21400   5.158  10.559  14.668  0.0734 -0.2030 -0.1338
 5267W        W21401  17.019  12.616   5.424  0.1764  0.1344 -0.2020
 5268W        W21402   0.660   9.327  17.069 -0.1737 -0.0412 -0.0792
 5269W        W21403  16.025   1.179  15.540  0.0276  0.0502  0.3041
 5270W        W21404  12.342   8.827  12.451 -0.0221  0.0609  0.1370
 5271W        W21405   7.999  14.751  11.760 -0.1203  0.1336 -0.1683
 5272W        W21406   6.136  12.831  14.534 -0.0499 -0.0756  0.0096
 5273W        W21407  11.994  17.442  12.299 -0.3990  0.0082  0.0018
 5274W        W21408  12.060   2.212  14.144  0.0588 -0.0564  0.1804
 5275W        W21409   4.372  17.216  16.362  0.2360  0.1310 -0.1242
 5276W        W21410   7.752  15.217  15.451 -0.0532  0.4018  0.1853
 5277W        W21411  17.365  17.528   6.917 -0.1351  0.0389 -0.3208
 5278W        W21412  17.261   1.490   2.143  0.2378 -0.1286 -0.1806
 5279W        W21413   1.130   7.944   4.399  0.0214  0.0603  0.1186
 5280W        W21414   3.870  16.933   1.765 -0.0944 -0.3199 -0.2211
 5281W        W21415  16.642  14.434  14.378 -0.0341 -0.0016 -0.0210
 5282W        W21416   6.859  17.130  17.108 -0.0142  0.2384  0.1308
 5283W        W21417   4.283   8.665  11.275 -0.0053 -0.2489 -0.0316
 5284W        W21418   8.435  13.795   3.671 -0.0782 -0.0693 -0.1693
 5285W        W21419  11.352   7.368  12.445 -0.3373 -0.2712  0.0657
 5286W        W21420   4.373   0.008   3.949 -0.0730 -0.0028 -0.0391
 5287W        W21421  10.778  15.202   1.670 -0.3482  0.0633  0.3307
 5288W        W21422  17.658   7.100   2.700  0.1921  0.1637 -0.2355
 5289W        W21423  12.592   2.976  13.932  0.0256  0.1275  0.0117
 5290W        W21424  13.278   6.183  15.790 -0.0733 -0.0756  0.0358
 5291W        W21425  10.007   7.054   4.491  0.0232 -0.1279  0.1159
 5292W        W21426   5.037  15.497  13.728  0.1469 -0.0402 -0.0531
 5293W        W21427   9.462  13.761   1.735 -0.1957  0.0997  0.0952
 5294W        W21428  13.597  12.333  14.324 -0.0229  0.0676  0.2201
 5295W        W21429  12.323   0.984  12.391 -0.2734 -0.1492 -0.1179
 5296W        W21430  10.206   3.768   4.373 -0.3286  0.0925  0.3115
 5297W        W21431  12.782  13.334   4.055  0.0370  0.1351  0.1418
 5298W        W21432   3.796   6.548   3.368 -0.4588 -0.0314  0.1269
 5299W        W21433   1.112   3.970   3.804  0.0304  0.0156  0.1836
 5300W        W21434  11.125  15.543   4.527 -0.1754 -0.1880 -0.0959
 5301W        W21435   1.001  16.894   0.965 -0.2291  0.0106  0.1154
 5302W        W21436  16.453   9.224  14.173 -0.1471  0.0609  0.0620
 5303W        W21437   5.789   2.548   2.967  0.2352 -0.0051 -0.1851
 5304W        W21438  11.407  16.446   0.293 -0.2020  0.2319  0.1226
 5305W        W21439   6.873   5.604  13.948  0.0378 -0.1126 -0.2057
 5306W        W21440   0.986   8.023   3.359  0.1414 -0.0863 -0.0503
 5307W        W21441   7.055  14.021   3.984 -0.1031 -0.2115  0.1539
 5308W        W21442   4.349  15.649  11.786  0.1374 -0.1468  0.3050
 5309W        W21443  17.258   1.157   4.738  0.0285  0.1457 -0.1299
 5310W        W21444  17.126   6.079  13.732  0.0633  0.0859 -0.2075
 5311W        W21445  11.357   1.519   5.328  0.2680  0.0048  0.2870
 5312W        W21446   9.356  12.081  16.382  0.1290  0.1789 -0.0857
 5313W        W21447  12.998  10.572   5.375 -0.0054 -0.1485 -0.3262
 5314W        W21448  15.748  14.085   3.588 -0.0871  0.0474 -0.0260
 5315W        W21449   7.177   1.312   2.282 -0.0484 -0.1040  0.4389
 5316W        W21450   6.971   7.602  11.922 -0.1851  0.2578 -0.0093
 5317W        W21451  16.306   5.208   2.800 -0.1056  0.2726  0.1375
 5318W        W21452   0.747   9.550   3.441 -0.2058 -0.0789  0.3850
 5319W        W21453   5.738   5.328   1.255  0.0951  0.1197 -0.2130
 5320W        W21454   7.866  13.401  13.267 -0.1962 -0.2213 -0.0189
 5321W        W21455   3.857  15.764  15.583  0.2873 -0.1244  0.3199
 5322W        W21456  11.975   9.605   0.849  0.0722 -0.2490  0.0122
 5323W        W21457  11.825   3.383   5.235  0.0854  0.0106  0.2811
 5324W        W21458  11.339   7.580   1.629 -0.0223  0.0499  0.0228
 5325W        W21459   0.203   3.840   4.054  0.0864 -0.1241 -0.1331
 5326W        W21460  11.405   5.591   3.712  0.0910 -0.0055 -0.3121
 5327W        W21461   8.860  11.395  12.191  0.2387  0.2235 -0.1509
 5328W        W21462   3.444   6.306   4.853 -0.4913 -0.2223  0.0735
 5329W        W21463   3.805   9.307   1.506  0.1331 -0.3384  0.0877
 5330W        W21464  13.888   2.036   1.364 -0.2423  0.1447  0.2303
 5331W        W21465  11.082  13.112  15.380 -0.0020  0.0228 -0.0136
 5332W        W21466  16.813  12.985   4.946 -0.0791 -0.1389 -0.2463
 5333W        W21467   1.557  13.543  15.254 -0.1901  0.1094 -0.1543
 5334W        W21468   9.900   7.766   1.209 -0.0922  0.1089  0.1780
 5335W        W21469   4.388   7.079   4.487 -0.0060  0.1070  0.3508
 5336W        W21470   1.438   7.046   0.987  0.1576 -0.1200  0.0946
 5337W        W21471   6.303  16.904  13.838 -0.3875  0.1834  0.1063
 5338W        W21472  12.580   9.570  14.521 -0.1149 -0.0518  0.0590
 5339W        W21473  13.953   9.748   0.413  0.0578 -0.1213  0.0385
 5340W        W21474   9.473   6.732  13.337  0.1018  0.0753 -0.0512
 5341W        W21475  16.496  12.079   4.180  0.0418  0.5780  0.3311
 5342W        W21476   9.343   6.410  15.746 -0.1250 -0.2415 -0.1662
 5343W        W21477  17.082   6.821   0.580  0.0015 -0.0846 -0.1012
 5344W        W21478   9.060   8.493   0.517  0.1887 -0.1687  0.2246
 5345W        W21479   7.829  16.694  15.904  0.0801 -0.0327 -0.2748
 5346W        W21480  11.641   4.618  13.662  0.0668 -0.1924 -0.0693
 5347W        W21481  14.092   0.180   1.476  0.2253  0.0502  0.0016
 5348W        W21482  11.808   2.481   4.043 -0.1542 -0.2960  0.4155
 5349W        W21483  10.609   8.584  15.168  0.0609  0.1304 -0.0405
 5350W        W21484   5.414  17.547  15.122 -0.0746  0.2200  0.1852
 5351W        W21485   5.349   8.143  13.878 -0.0001 -0.1367  0.1416
 5352W        W21486  17.409  11.647  12.635 -0.1977 -0.4406  0.3335
 5353W        W21487   7.712   3.433  12.912 -0.0101  0.2581 -0.0165
 5354W        W21488   0.464   7.970  16.144  0.0399  0.4076  0.0258
 5355W        W21489   0.645  16.025   4.226 -0.1683  0.0817 -0.2816
 5356W        W21490  12.641   8.577   1.379 -0.1750 -0.0063 -0.0490
 5357W        W21491  13.743  11.808  13.715  0.0961  0.1450  0.2021
 5358W        W21492   1.909   1.233   6.127  0.0214  0.1663  0.0229
 5359W        W21493  14.244   0.823  15.358 -0.3523  0.0581 -0.0618
 5360W        W21494  10.387   3.857   4.811  0.3826 -0.0233  0.0134
 5361W        W21495  15.892  14.605   4.036 -0.3906  0.0298  0.3127
 5362W        W21496  16.289   1.891   5.209  0.0008 -0.1034  0.2648
 5363W        W21497   7.077   0.664  14.626 -0.1469 -0.2159  0.1641
 5364W        W21498   5.787   8.461   2.073 -0.4709 -0.2354  0.1306
 5365W        W21499   6.428  11.434  16.966 -0.1640 -0.3148 -0.1288
 5366W        W21500   2.707   0.063  15.485  0.0549 -0.1820 -0.3569
 5367W        W21501   4.812   9.610   5.966  0.1671 -0.1009 -0.0245
 5368W        W21502  15.245  15.567  16.109  0.0428  0.5560  0.1787
 5369W        W21503   4.715  11.350   6.187 -0.0557  0.0026 -0.1783
 5370W        W21504  13.045   2.818  12.318 -0.0313  0.0848 -0.1201
 5371W        W21505   8.851   3.015  14.449  0.2935  0.1085  0.1167
 5372W        W21506   4.460  16.243   3.467 -0.0449 -0.2416  0.0075
 5373W        W21507  16.222  12.242   1.054 -0.1279  0.1082 -0.0822
 5374W        W21508  14.083  15.634  11.848 -0.1913  0.2311  0.0687
 5375W        W21509   0.265  17.068  15.424 -0.0429 -0.0815  0.2453
 5376W        W21510   9.904  11.712   0.948  0.0368 -0.1210 -0.1164
 5377W        W21511   9.934  12.508   2.051 -0.0600  0.0957  0.2931
 5378W        W21512   6.125   4.300   2.216 -0.0500  0.0494 -0.1371
 5379W        W21513   3.222   8.636  13.200  0.1621 -0.0864  0.0117
 5380W        W21514   3.096  15.616   4.245 -0.2685 -0.2768  0.1804
 5381W        W21515  12.727  16.566   0.305 -0.0822 -0.0201 -0.0326
 5382W        W21516  16.779   1.560   3.036  0.0289  0.0840 -0.0298
 5383W        W21517  11.974  11.557   2.970  0.0455 -0.0909 -0.3461
 5384W        W21518   1.545   0.729  15.744  0.1226  0.2518  0.1140
 5385W        W21519   7.958  12.560  15.405  0.0080  0.0141  0.0862
 5386W        W21520   0.245   7.309  11.467 -0.3497 -0.0353  0.1520
 5387W        W21521  14.112   1.726  12.153  0.1696 -0.1783  0.2973
 5388W        W21522   5.997  15.114  16.468 -0.2994  0.1352  0.1158
 5389W        W21523  11.421   4.052  15.267 -0.1706  0.1271 -0.0773
 5390W        W21524   3.079   7.477   2.669 -0.2036 -0.2510 -0.1354
 5391W        W21525  12.672  14.744   0.738 -0.0086  0.0707 -0.0081
 5392W        W21526  11.748  16.456   5.343 -0.0127 -0.0405 -0.1446
 5393W        W21527   3.323   6.383  14.453  0.0435 -0.4214 -0.0003
 5394W        W21528  15.700   8.619   2.384  0.4464 -0.3602  0.3583
 5395W        W21529  16.740   3.359   2.291 -0.0125 -0.3562  0.1797
 5396W        W21530  14.587  11.435   4.993 -0.5476  0.0941 -0.1132
 5397W        W21531   0.420  13.963   5.177  0.3716 -0.0660  0.1883
 5398W        W21532   3.226   6.355   4.337 -0.1031 -0.3617 -0.1195
 5399W        W21533   5.916   2.717   4.729 -0.2674  0.1711 -0.0140
 5400W        W21534  13.483   5.730  13.181 -0.0355  0.2612  0.3275
 5401W        W21535   4.987   1.359  14.508 -0.1202 -0.0714  0.0255
 5402W        W21536  10.263  15.746   4.501  0.1342  0.0444 -0.1262
 5403W        W21537  15.267   6.661   1.843 -0.0018 -0.3340  0.0207
 5404W        W21538   0.459  15.236  13.127  0.2220  0.3269 -0.0315
 5405W        W21539   3.205  17.052  17.105  0.2552 -0.2221  0.2164
 5406W        W21540   9.171   8.552  14.578  0.0272 -0.0572  0.1253
 5407W        W21541   3.894  16.143   4.842 -0.0392  0.1399 -0.0962
 5408W        W21542   1.421   0.721  16.215  0.2586  0.3242  0.2194
 5409W        W21543   8.358   1.607  14.219  0.0182 -0.2299  0.0690
 5410W        W21544  13.730  11.265  11.562 -0.3985 -0.1763  0.0567
 5411W        W21545   0.264   5.208   5.348  0.1791 -0.0248 -0.3003
 5412W        W21546  12.107   1.299   3.172 -0.0652 -0.2731  0.2546
 5413W        W21547  15.483  10.333   0.844 -0.0965 -0.1457  0.1709
 5414W        W21548  12.521  15.954   0.381  0.0186 -0.4695  0.0187
 5415W        W21549  12.833  11.641   4.075 -0.2074 -0.2087  0.0147
 5416W        W21550  10.214   9.209   5.129 -0.0582 -0.0034  0.1614
 5417W        W21551   0.449  14.982  16.598  0.0603 -0.0219  0.0183
 5418W        W21552   5.143  15.563   5.524 -0.1086  0.0561 -0.4074
 5419W        W21553  12.361   3.692   3.694 -0.2043  0.2345  0.0917
 5420W        W21554   8.055  16.263   3.755 -0.3666 -0.2178  0.0545
 5421W        W21555   1.668   7.792   3.203  0.0254 -0.2005 -0.1959
 5422W        W21556   0.129  14.388  13.098 -0.1908  0.0924 -0.1068
 5423W        W21557   3.877  13.198  13.804  0.0981 -0.0210 -0.4284
 5424W        W21558  16.324   8.316  15.740 -0.1615  0.1115  0.1990
 5425W        W21559   6.234   7.057  11.800  0.3228 -0.0584  0.0910
 5426W        W21560   6.114   0.539   5.962 -0.0512 -0.0498 -0.1286
 5427W        W21561  14.645  14.409   5.121 -0.5052 -0.0021  0.0946
 5428W        W21562  15.526  16.890  11.806  0.0681  0.1886 -0.1842
 5429W        W21563   8.546   5.585  17.139 -0.1126 -0.0225  0.0022
 5430W        W21564  13.481  11.381  12.081 -0.3428 -0.1220  0.0767
 5431W        W21565  12.812   0.300  13.671 -0.0483  0.0827  0.0644
 5432W        W21566  10.479  14.691  15.079 -0.0948 -0.1343 -0.3182
 5433W        W21567  10.265  17.371  13.787 -0.0594  0.1462  0.0442
 5434W        W21568  10.772  13.111   3.621 -0.0623 -0.3183 -0.1129
 5435W        W21569   7.852   8.533   1.019  0.1756 -0.1085 -0.1228
 5436W        W21570  10.278  15.010  16.676  0.3316 -0.3368 -0.1196
 5437W        W21571   3.421  12.265   3.570 -0.1274  0.1657  0.1600
 5438W        W21572   0.670   8.229   4.135 -0.1119 -0.0216 -0.3003
 5439W        W21573   8.275  11.198   0.449  0.0293 -0.1392 -0.2935
 5440W        W21574  10.820  12.429  12.016 -0.2348 -0.0752 -0.0725
 5441W        W21575  16.039  10.964   2.984 -0.0083  0.0465 -0.1742
 5442W        W21576   2.623   1.914   2.321 -0.0694 -0.0564  0.1056
 5443W        W21577   3.612   9.261   2.284 -0.1012  0.2358 -0.4581
 5444W        W21578   9.915   8.056   6.052 -0.1798  0.3688 -0.3288
 5445W        W21579  16.486  16.690   5.411 -0.1219  0.1251 -0.0595
 5446W        W21580  16.098   7.973  13.449 -0.1716 -0.0634  0.2062
 5447W        W21581   5.030   0.724   3.057 -0.0454  0.0480 -0.1564
 5448W        W21582   9.944   5.160  12.258 -0.0614  0.0519 -0.2767
 5449W        W21583   0.918  16.364   4.040 -0.0640 -0.1305  0.1771
 5450W        W21584   7.537  16.970  14.944 -0.0017 -0.1736  0.0468
 5451W        W21585   5.366   6.940  14.379  0.1667 -0.0762 -0.1475
 5452W        W21586  15.007  15.137  13.039 -0.0722 -0.1533 -0.0360
 5453W        W21587  15.249  10.297  15.615  0.2658  0.0979 -0.2479
 5454W        W21588   5.456   4.549  16.696 -0.2991  0.0847 -0.1379
 5455W        W21589   6.094  11.898  15.807  0.2335 -0.1653  0.0218
 5456W        W21590  12.359   0.667  15.489 -0.1583 -0.1818  0.3251
 5457W        W21591   9.943  15.882   3.245 -0.2386 -0.1562  0.0023
 5458W        W21592   2.351  12.050  15.798 -0.1114 -0.0058 -0.1236
 5459W        W21593  11.118   3.908   4.168 -0.2001  0.0399 -0.0079
 5460W        W21594  17.398   0.138   0.841 -0.1767 -0.1661  0.3268
 5461W        W21595   2.707  15.869  12.783 -0.4287 -0.0303  0.0790
 5462W        W21596   4.634  14.062  15.042 -0.0344  0.1623  0.5948
 5463W        W21597  15.819   5.180   2.541  0.2709  0.0146  0.0461
 5464W        W21598   5.423  14.500  13.542  0.0704 -0.2869  0.0670
 5465W        W21599  12.986   6.495   1.331 -0.1074  0.0287 -0.2093
 5466W        W21600   9.056   9.399   4.573  0.3379 -0.0892 -0.3337
 5467W        W21601  15.803   1.337  12.360 -0.4079 -0.2416  0.0352
 5468W        W21602   4.082  13.537  16.858  0.0558 -0.0911 -0.0126
 5469W        W21603   2.094  16.141   1.652  0.1085  0.0161 -0.0175
 5470W        W21604   8.007  10.262  15.732 -0.1926  0.0701  0.1145
 5471W        W21605   5.601   6.965   0.829 -0.0382  0.1796 -0.2094
 5472W        W21606   6.573  14.450  15.843 -0.2704 -0.1376 -0.1177
 5473W        W21607   6.542  14.791   1.612  0.2162  0.1970  0.1609
 5474W        W21608   9.462  10.316  14.554  0.0217  0.0520  0.1108
 5475W        W21609   4.469  16.056  15.021  0.2574 -0.2002  0.0574
 5476W        W21610  12.286   8.751   0.972  0.3091  0.2373 -0.5897
 5477W        W21611   0.137   3.421   4.403 -0.3287  0.0473  0.0656
 5478W        W21612  14.821   8.975   4.046  0.4691 -0.0464  0.0301
 5479W        W21613   4.517   7.284  14.803 -0.1057  0.0151  0.3456
 5480W        W21614   7.243  13.325  16.171  0.3700 -0.0937  0.2331
 5481W        W21615   3.212   2.492   5.777 -0.2029 -0.1012 -0.2134
 5482W        W21616  17.127  11.959  12.966  0.1925  0.1011 -0.2404
 5483W        W21617   1.285  14.027  13.206  0.2282  0.0425  0.0235
 5484W        W21618  10.269  11.271   0.996 -0.3775 -0.4612 -0.0819
 5485W        W21619  10.089  11.329   2.076 -0.3506  0.0163  0.2440
 5486W        W21620   9.401  12.046  12.137 -0.1494  0.2064 -0.0431
 5487W        W21621   2.900   2.508  13.230 -0.1350 -0.0453  0.0423
 5488W        W21622   1.251   3.138   5.047 -0.0796 -0.0881 -0.0685
 5489W        W21623   3.688  14.356   2.857  0.2939  0.0957 -0.1517
 5490W        W21624   3.620  12.897   4.513 -0.0886 -0.0014 -0.0218
 5491W        W21625   5.363   4.101  15.634  0.2267  0.0305 -0.3039
 5492W        W21626  15.944  11.713   3.081 -0.1467  0.1560 -0.0818
 5493W        W21627  12.212   9.071  14.991 -0.0734  0.0529  0.1274
 5494W        W21628  14.594   2.297   1.782 -0.0150 -0.0915  0.0714
 5495W        W21629   3.817   3.007   3.331  0.1323  0.1503  0.2563
 5496W        W21630   9.631  16.598   0.281 -0.3299 -0.0433 -0.0393
 5497W        W21631   2.039   6.377  13.948 -0.0703  0.2557  0.1385
 5498W        W21632  17.382   0.703   6.293 -0.0886  0.0373  0.0227
 5499W        W21633  14.149  17.027  13.806 -0.0240 -0.2066 -0.0771
 5500W        W21634   1.559  14.629   1.319 -0.0847 -0.0892  0.1306
 5501W        W21635   1.457   2.077  13.862 -0.1283  0.1187 -0.0388
 5502W        W21636   9.046   6.287  17.101  0.1942 -0.1940 -0.0786
 5503W        W21637   4.473   0.446  16.504 -0.1732 -0.2192 -0.0104
 5504W        W21638   8.023  15.041   4.115 -0.2150 -0.1752 -0.0972
 5505W        W21639  14.750  15.725   3.193 -0.4449  0.1728 -0.1029
 5506W        W21640   0.232  12.274  11.542  0.1111 -0.1520  0.3828
 5507W        W21641   4.850   1.387  12.383 -0.1009 -0.2883  0.5123
 5508W        W21642  12.467  15.190  13.756  0.0059  0.0190 -0.1744
 5509W        W21643   6.739   9.257   5.268 -0.1072  0.0137  0.1132
 5510W        W21644   8.301  12.453   4.439  0.0770  0.3916  0.3121
 5511W        W21645   7.443   5.869  12.656  0.1512 -0.0654  0.2537
 5512W        W21646   4.290  15.812  12.688 -0.2198  0.1469  0.2808
 5513W        W21647   7.955   3.823  12.665 -0.0096 -0.2058 -0.3705
 5514W        W21648  11.967   9.123   0.321 -0.0200 -0.1812  0.0600
 5515W        W21649  12.935   0.745  14.994 -0.0604 -0.0420 -0.0592
 5516W        W21650  14.703  14.335   3.909 -0.1224  0.0164  0.0839
 5517W        W21651  17.235   9.260   2.233  0.0984  0.0010  0.1086
 5518W        W21652  16.936  10.551  15.410  0.0473 -0.0154  0.1262
 5519W        W21653   4.923  13.947   5.680  0.0548 -0.2029 -0.1912
 5520W        W21654   4.683   4.462  15.155 -0.0137 -0.0483  0.0870
 5521W        W21655  13.380   4.717   5.414 -0.0060 -0.2761 -0.0974
 5522W        W21656  10.037   3.174  13.196  0.3926 -0.2561 -0.0017
 5523W        W21657   0.848  12.556  12.607 -0.1546 -0.2992 -0.2221
 5524W        W21658   7.773   0.197   3.796  0.1382  0.1020  0.1214
 5525W        W21659  14.330   8.362   0.478  0.0655 -0.0632 -0.0049
 5526W        W21660  13.717   6.414   1.091 -0.1030  0.0633  0.3093
 5527W        W21661   6.013   8.913   2.410 -0.0017  0.0301 -0.2559
 5528W        W21662  11.705  16.538  15.826 -0.1638  0.1877  0.1695
 5529W        W21663   3.642   4.714   4.312  0.2011 -0.0369 -0.4156
 5530W        W21664  12.598   1.872   4.868 -0.1827 -0.1626  0.0397
 5531W        W21665  14.260  11.040  15.873  0.0468  0.0366 -0.1451
 5532W        W21666   1.562  15.211  13.325  0.2178  0.0497 -0.0735
 5533W        W21667   4.868   4.495  15.950 -0.0258  0.2313 -0.0185
 5534W        W21668  12.837  17.327  14.757  0.0088 -0.1250 -0.3280
 5535W        W21669   4.502   6.553   4.670 -0.0206 -0.1286  0.3012
 5536W        W21670   4.627   2.387   5.374  0.2739  0.1462 -0.2867
 5537W        W21671  12.641  14.681  12.897  0.1484  0.0335  0.2457
 5538W        W21672   4.338   7.786  14.859  0.2730 -0.0297 -0.1112
 5539W        W21673   1.398   6.031  15.181  0.2225  0.0017 -0.0503
 5540W        W21674  16.586   6.340   1.559  0.0911  0.0465 -0.1295
 5541W        W21675  13.050  15.249  15.599 -0.1190  0.3656 -0.1696
 5542W        W21676  12.117  14.486  15.710 -0.1433 -0.2980  0.0264
 5543W        W21677   1.794   2.581   3.602  0.0495  0.0085 -0.3467
 5544W        W21678   1.922   9.754  15.594 -0.2844 -0.1833  0.0304
 5545W        W21679   2.968   4.668  14.658  0.1073 -0.0334  0.0839
 5546W        W21680   8.214   5.920   0.237 -0.0231 -0.3326  0.0197
 5547W        W21681  17.136   7.400  14.216 -0.0014  0.0127  0.1815
 5548W        W21682  12.035  14.555   2.055  0.2220  0.0431 -0.3573
 5549W        W21683   4.764   2.746   0.709  0.0659  0.3411  0.0151
 5550W        W21684   6.653   7.345  13.671  0.1785  0.1570 -0.0247
 5551W        W21685  13.471  10.906  12.234  0.0965  0.0430  0.0696
 5552W        W21686   3.932  17.384  12.590 -0.1341 -0.1074  0.1145
 5553W        W21687   0.366  12.087   3.245  0.1568  0.0212  0.1821
 5554W        W21688   8.740   6.555  16.359 -0.1127  0.0104  0.2740
 5555W        W21689   4.599   6.503   3.516  0.0425 -0.0626 -0.0440
 5556W        W21690   8.331   4.858   1.826 -0.0329 -0.3628  0.3273
 5557W        W21691  14.422   6.926   4.276  0.0072  0.4394 -0.0315
 5558W        W21692   2.763   2.932   2.555  0.2079  0.1026 -0.2335
 5559W        W21693   9.036   0.628  15.622 -0.1754 -0.0696  0.0885
 5560W        W21694  14.464   6.709   5.219  0.2429 -0.1522  0.1565
 5561W        W21695   1.457  11.936  14.591  0.1997 -0.1788 -0.2693
 5562W        W21696   8.371  14.614   4.325  0.0196 -0.0163 -0.2430
 5563W        W21697   6.871   5.771   0.697 -0.1410  0.0925 -0.0866
 5564W        W21698  17.589   3.448   4.898  0.0740  0.1114  0.2048
 5565W        W21699  13.821   9.417  15.199  0.1633  0.0306  0.1647
 5566W        W21700  15.594  10.737   3.069 -0.3552 -0.1556  0.1925
 5567W        W21701   3.969   5.859   3.055 -0.0863 -0.0458 -0.1362
 5568W        W21702   6.930   5.200  16.213 -0.1045  0.3898  0.1480
 5569W        W21703  14.294   1.836   4.268  0.1643  0.2378  0.2962
 5570W        W21704   0.078  16.012  15.420  0.4459 -0.0163 -0.3342
 5571W        W21705  12.636   4.026  13.811  0.3251  0.1484  0.0717
 5572W        W21706   7.045   5.144   2.250 -0.0508  0.1288  0.0736
 5573W        W21707   6.627  11.333  15.387 -0.2825 -0.2168 -0.0739
 5574W        W21708   9.163  16.861  14.804  0.0326  0.0561  0.0851
 5575W        W21709   8.537  15.269  14.129 -0.2514 -0.0609  0.0050
 5576W        W21710  12.340  11.208  14.978  0.0997 -0.1090  0.1277
 5577W        W21711   0.864  11.533   3.976 -0.0951  0.1579 -0.2347
 5578W        W21712  15.655  16.085  12.403  0.0155  0.2169 -0.1385
 5579W        W21713   6.021   4.445  15.075 -0.4258  0.0997 -0.0532
 5580W        W21714   9.820   0.932   5.298 -0.1518  0.2100  0.3376
 5581W        W21715   8.762   4.937  15.038 -0.0315  0.2643 -0.2012
 5582W        W21716  16.062  16.462   5.578 -0.4045  0.1474  0.1181
 5583W        W21717  10.512   9.064  15.460 -0.4298  0.1185 -0.4305
 5584W        W21718  17.385   0.201  16.483 -0.1455 -0.0867 -0.0933
 5585W        W21719  16.170   3.174  16.761 -0.0465 -0.0744  0.2282
 5586W        W21720  14.037   7.784  14.214 -0.0867  0.1442  0.0811
 5587W        W21721   0.557   7.833  11.230  0.0361  0.1285  0.4618
 5588W        W21722  16.084  10.927   0.018  0.1250 -0.1195 -0.1647
 5589W        W21723  12.299  12.771  11.928  0.2862 -0.3553  0.1109
 5590W        W21724   9.499   3.888   3.018 -0.0264 -0.1443 -0.0403
 5591W        W21725  17.201   6.541  11.310 -0.2220 -0.2522  0.1833
 5592W        W21726  11.027   4.415  14.838 -0.0216 -0.0486  0.0301
 5593W        W21727   0.674  12.892  16.090 -0.0939 -0.2640 -0.0680
 5594W        W21728  13.185  11.780   3.058 -0.1095 -0.0669 -0.0514
 5595W        W21729  12.993   1.272   0.587  0.1176 -0.1103  0.0795
 5596W        W21730   6.623  15.928   3.848  0.0042  0.1207 -0.2501
 5597W        W21731  16.650   9.646   0.689  0.1462 -0.1708 -0.0229
 5598W        W21732   7.619   7.163  14.209  0.0124 -0.0612  0.1563
 5599W        W21733  12.370  17.329   0.240 -0.0737 -0.3048  0.1892
 5600W        W21734  12.735   4.287  14.873 -0.1755  0.1075  0.2187
 5601W        W21735   3.924  11.011   5.751 -0.2617  0.1276 -0.2650
 5602W        W21736   8.941  13.614   5.458 -0.0113 -0.3214 -0.0439
 5603W        W21737   8.752   4.862   2.627  0.1426 -0.0870  0.0436
 5604W        W21738  11.618   5.591  15.585 -0.3044 -0.3928  0.1562
 5605W        W21739  15.349   2.012   2.460 -0.2543 -0.0505 -0.1409
 5606W        W21740   7.837   6.530  14.054  0.3563  0.1499  0.2860
 5607W        W21741   6.416   5.395  11.236 -0.1360 -0.0177  0.2058
 5608W        W21742   0.574   4.199  15.204  0.1347 -0.2115  0.1523
 5609W        W21743   0.793   0.219   4.658  0.1471 -0.1195 -0.3715
 5610W        W21744   2.205   4.269  13.543 -0.0936  0.1196  0.0721
 5611W        W21745   3.726   4.045  12.923  0.2271 -0.1336 -0.1148
 5612W        W21746   0.420  14.983   0.331  0.1283  0.0421  0.3874
 5613W        W21747  10.642   1.512  13.786  0.0509 -0.0930 -0.1759
 5614W        W21748   5.273   4.678  12.479  0.2101 -0.0999 -0.0010
 5615W        W21749   7.542  13.621   3.902  0.1252 -0.1141  0.3151
 5616W        W21750   1.302   2.686   4.432  0.0101  0.0743 -0.1202
 5617W        W21751  10.604  17.123   4.373 -0.1789 -0.0021 -0.0458
 5618W        W21752   5.374  17.059   0.506 -0.0437 -0.0095  0.0423
 5619W        W21753   1.285  12.263  14.139 -0.3554 -0.0571 -0.1473
 5620W        W21754   5.595   9.301  15.293  0.0514 -0.0549 -0.0198
 5621W        W21755   0.418  16.421   5.734  0.2091  0.0951 -0.2232
 5622W        W21756  16.559   5.372  16.224  0.0790  0.0052 -0.1094
 5623W        W21757  16.584   6.843   1.459 -0.3693  0.2489  0.2017
 5624W        W21758   7.441  10.752  14.640 -0.1601 -0.1570  0.4880
 5625W        W21759   1.822   8.547  13.802 -0.2855  0.1384 -0.2966
 5626W        W21760  17.062   1.873   0.316  0.1004 -0.2295 -0.3400
 5627W        W21761   4.309   7.783   6.161 -0.0833  0.0681  0.2765
 5628W        W21762   9.035   3.751   3.367 -0.1673  0.0640 -0.2499
 5629W        W21763   6.774   8.574   2.491 -0.0269  0.3944  0.2696
 5630W        W21764   0.407  16.769  15.808 -0.2627  0.0400 -0.0715
 5631W        W21765   7.368   5.638  14.555 -0.0124 -0.0377 -0.2620
 5632W        W21766  13.439  13.362  15.130 -0.2930 -0.1205  0.1456
 5633W        W21767  16.199   3.351  15.452  0.1730  0.1021 -0.0143
 5634W        W21768   6.327   6.293   4.606  0.1639  0.0748  0.0067
 5635W        W21769   1.419  10.315  13.798 -0.0902 -0.2521 -0.3157
 5636W        W21770   0.700  14.606   1.064 -0.2237 -0.1732  0.0595
 5637W        W21771  17.294  15.126  13.504  0.2775 -0.0687  0.1190
 5638W        W21772  14.023   4.628  16.241  0.0136 -0.1433 -0.2358
 5639W        W21773   3.489  16.212  14.827  0.0647 -0.0383 -0.0180
 5640W        W21774   1.694   8.689   4.158 -0.0708 -0.1899 -0.3024
 5641W        W21775   6.824  10.504   4.966  0.0738 -0.1388  0.1030
 5642W        W21776  13.367   3.622  11.774 -0.0957  0.2366  0.1369
 5643W        W21777   5.243  13.662   0.983 -0.0509  0.1718  0.2731
 5644W        W21778   1.201   5.904   2.767 -0.0469 -0.1881  0.2845
 5645W        W21779   4.003  10.916   2.797 -0.2647  0.0387  0.2144
 5646W        W21780   9.948  15.503   0.202 -0.0042 -0.1033 -0.0550
 5647W        W21781   4.356   1.320  16.650 -0.1750 -0.2702  0.1192
 5648W        W21782  11.786   1.166   1.833  0.2460  0.0942  0.0156
 5649W        W21783  10.507  15.190  15.840 -0.0972  0.1669 -0.0893
 5650W        W21784  10.674  10.124  13.212 -0.2884 -0.2784 -0.1803
 5651W        W21785  13.547   6.871  16.587  0.1245  0.0562 -0.0943
 5652W        W21786   2.204  15.854   4.497 -0.1237 -0.0153  0.0114
 5653W        W21787   3.790   2.809   2.772 -0.0142 -0.0907 -0.0026
 5654W        W21788   3.701  13.044  14.588  0.0472  0.1917  0.0122
 5655W        W21789   6.856   2.965  16.503 -0.0869  0.1278  0.0026
 5656W        W21790   0.981   5.216  16.077  0.2032  0.0292  0.3285
 5657W        W21791   5.538  12.384  17.062 -0.1159  0.0402  0.0717
 5658W        W21792  11.050   4.655  13.917 -0.1542 -0.0598 -0.0025
 5659W        W21793  10.785   3.428  11.328 -0.0660  0.0663  0.0483
 5660W        W21794   9.691   7.006   1.674 -0.2253  0.2204 -0.2078
 5661W        W21795   3.858  15.004  13.078  0.2842 -0.1105 -0.0570
 5662W        W21796  16.347  11.829  15.281  0.0391 -0.0884 -0.0936
 5663W        W21797   2.132   0.238   4.554 -0.0418  0.3435  0.3349
 5664W        W21798  10.920   5.741  16.286  0.1513  0.3873 -0.2143
 5665W        W21799   8.156   2.056  12.331 -0.0761 -0.1830 -0.3203
 5666W        W21800  16.708   5.430   4.752  0.1406  0.3716 -0.1657
 5667W        W21801  15.751  15.461   0.734  0.1205 -0.2031  0.0662
 5668W        W21802   7.386   2.387   1.601  0.0344  0.4216  0.5328
 5669W        W21803  12.117   2.052   2.069 -0.0604 -0.0742 -0.3035
 5670W        W21804  11.595  17.089  16.833  0.1721 -0.1038  0.3418
 5671W        W21805  15.590   7.736  12.584  0.1270 -0.0578 -0.0634
 5672W        W21806  11.429   0.585   2.887 -0.1542 -0.3159  0.0746
 5673W        W21807  12.283   0.064   1.585 -0.1961  0.1587 -0.0769
 5674W        W21808  12.933   7.520  12.441  0.1711  0.0212 -0.2926
 5675W        W21809   1.684  13.917  12.854 -0.1999  0.3803  0.1735
 5676W        W21810  11.638   9.349  14.326  0.0150 -0.2418  0.0407
 5677W        W21811   5.128   8.306   2.381  0.1439 -0.0562  0.3628
 5678W        W21812   6.914   6.588   0.695 -0.2083  0.0272  0.0709
 5679W        W21813  11.040   2.382   0.906  0.0103 -0.3304 -0.2610
 5680W        W21814  17.193  15.938   6.262  0.3947  0.0897  0.1116
 5681W        W21815   1.890   7.634   2.169  0.2478  0.0407 -0.1573
 5682W        W21816  10.059   8.921  15.662 -0.0299 -0.0296  0.3644
 5683W        W21817   9.584  16.460   2.673  0.1296  0.2227 -0.0291
 5684W        W21818   1.327  16.698   5.682  0.0685  0.2422 -0.4136
 5685W        W21819   5.154  12.189  11.886 -0.1205  0.0050 -0.0426
 5686W        W21820   6.685  11.927   0.511  0.3311  0.0106 -0.1941
 5687W        W21821   3.457   3.469  16.430  0.3671 -0.0146  0.0558
 5688W        W21822  12.758   0.995   5.181  0.1624 -0.0772 -0.0504
 5689W        W21823  10.032   7.471   4.880  0.0732  0.0697 -0.0555
 5690W        W21824  12.421   4.041   1.645  0.0884 -0.5016  0.1147
 5691W        W21825   1.393  15.564   4.361 -0.1193  0.0900 -0.2614
 5692W        W21826   9.960   0.959   2.858  0.2153 -0.0056 -0.1130
 5693W        W21827   6.928  11.169  16.530 -0.0963  0.0862  0.1548
 5694W        W21828  15.378  15.358  13.264 -0.4912 -0.0914  0.0243
 5695W        W21829   1.150   1.226   5.765 -0.1026  0.0153  0.2150
 5696W        W21830   8.138  17.502  13.727 -0.1685 -0.3448 -0.1776
 5697W        W21831  14.580  10.389  16.443  0.3779  0.2668 -0.2286
 5698W        W21832  11.044   1.357   6.392  0.0340 -0.0180 -0.1291
 5699W        W21833   8.842  16.994  14.377 -0.0005 -0.1131  0.0793
 5700W        W21834  12.528   0.694   3.873  0.1853 -0.1025  0.1518
 5701W        W21835  16.297   5.872   4.460 -0.1761  0.1064  0.1324
 5702W        W21836  12.026   8.252  16.029 -0.0889 -0.1515  0.0267
 5703W        W21837   1.894   1.854  13.865 -0.1661  0.0388 -0.1439
 5704W        W21838  14.841   1.239   0.956  0.1210 -0.0618  0.0307
 5705W        W21839   0.383   6.328  13.956  0.2683 -0.1296  0.1809
 5706W        W21840   4.305   3.132   4.862  0.0452  0.0659 -0.1598
 5707W        W21841   4.104  17.400   4.328 -0.0296  0.1414 -0.0369
 5708W        W21842  13.551   7.776  14.866 -0.1227 -0.1712  0.3049
 5709W        W21843  15.760  11.266   2.101 -0.2600  0.0320  0.1057
 5710W        W21844   6.181   7.433  11.397 -0.1334  0.3102  0.2907
 5711W        W21845  15.406   4.928  10.693  0.0981  0.3919 -0.1415
 5712W        W21846  12.441   4.550   4.520 -0.1137 -0.0292  0.0283
 5713W        W21847  16.710   4.736  13.768 -0.1100 -0.1741 -0.4662
 5714W        W21848  12.003   7.555   2.676  0.0114  0.1977  0.0967
 5715W        W21849  12.492  16.481  13.213 -0.0079 -0.0412 -0.1656
 5716W        W21850   6.914   9.999   5.869  0.0473 -0.0272 -0.2702
 5717W        W21851  16.831   2.084   2.524  0.2034 -0.0894  0.0490
 5718W        W21852   6.508  12.863   3.541  0.0787 -0.0194  0.1482
 5719W        W21853   1.414   9.420   4.777  0.2259  0.1424 -0.0018
 5720W        W21854   6.984   4.755  14.926  0.0135  0.0876  0.1636
 5721W        W21855   5.225   7.901  11.853 -0.2696  0.0438 -0.0431
 5722W        W21856   2.500   1.148   5.633  0.0874  0.1421  0.2191
 5723W        W21857  13.056  15.297   2.830  0.1146 -0.1623  0.0980
 5724W        W21858  16.414   1.205   3.974  0.0914  0.2781 -0.0957
 5725W        W21859   6.989  10.541  12.118  0.1247  0.2418  0.1311
 5726W        W21860  14.439  16.504  12.542 -0.0055  0.1381  0.2216
 5727W        W21861  17.052  16.809   3.044  0.2479  0.2837 -0.0454
 5728W        W21862  13.892  13.695   0.357 -0.0513 -0.0137  0.1365
 5729W        W21863  15.649   3.547   3.606  0.0749 -0.0797 -0.2100
 5730W        W21864   7.800  15.334  13.652  0.0011 -0.1263 -0.1412
 5731W        W21865  14.756  10.139  11.628  0.3775  0.0949  0.1114
 5732W        W21866   0.268  15.358   6.519  0.1099 -0.1607 -0.0345
 5733W        W21867   8.950  15.518  14.823 -0.2305  0.2525  0.2122
 5734W        W21868  10.283  16.631  13.116  0.4027  0.1883  0.3549
 5735W        W21869  13.988  12.269  12.092 -0.2756  0.1062 -0.0717
 5736W        W21870   6.295   0.325  12.900  0.0980  0.0706  0.1014
 5737W        W21871   6.247   3.093   6.031 -0.3832  0.2101  0.0536
 5738W        W21872  10.191  16.719  11.646 -0.0479 -0.1693  0.1669
 5739W        W21873  16.839   2.596   5.050 -0.2649 -0.1333  0.2360
 5740W        W21874   2.198   8.863  12.687  0.2055  0.1458 -0.0674
 5741W        W21875   9.401  13.206   3.053 -0.2475 -0.4689  0.1988
 5742W        W21876   4.711  14.943   3.888  0.2104  0.1819  0.2702
 5743W        W21877  14.522   6.464  12.204  0.1690  0.1073 -0.1776
 5744W        W21878  12.621   4.191   1.258 -0.3129 -0.0205  0.1355
 5745W        W21879   1.619  13.526   4.094  0.0262 -0.0021 -0.1898
 5746W        W21880  11.652   8.583  13.165 -0.1523  0.0754  0.1628
 5747W        W21881   2.321  14.461  15.146 -0.1747 -0.2334 -0.0541
 5748W        W21882  15.573   6.134  13.303 -0.0531 -0.0638  0.0449
 5749W        W21883  16.440   7.518  16.255 -0.2099 -0.0954  0.1525
 5750W        W21884  15.206   2.699  14.950 -0.2595 -0.0469 -0.2265
 5751W        W21885  15.973   1.720  14.457  0.2006  0.1012 -0.0288
 5752W        W21886   2.799   6.544   2.243 -0.0843  0.0685  0.0417
 5753W        W21887   7.780   4.465   3.677  0.0762  0.2860  0.0216
 5754W        W21888  13.627   9.555   4.012 -0.0892 -0.1669 -0.1575
 5755W        W21889   5.560  14.012   4.077  0.1219 -0.3858  0.0488
 5756W        W21890  17.649   8.534  10.827  0.1093 -0.0083 -0.1264
 5757W        W21891   0.188   0.437  16.337 -0.0091  0.1462 -0.0252
 5758W        W21892   9.731  10.484   2.972 -0.0913  0.1126  0.2127
 5759W        W21893   7.946   6.963   3.580 -0.0397 -0.2655 -0.2676
 5760W        W21894   9.965   5.721   2.933 -0.0112  0.2484  0.0383
 5761W        W21895  16.864   4.678  14.774  0.3804  0.2656 -0.2786
 5762W        W21896  12.829   5.652  12.040  0.1022 -0.0072  0.0301
 5763W        W21897   7.420   0.473   3.491 -0.2431  0.1693 -0.0213
 5764W        W21898  15.321  10.991   1.992  0.1866  0.1969 -0.1392
 5765W        W21899  14.727   3.145   5.661 -0.0017  0.0294  0.1253
 5766W        W21900   3.779   4.976   2.406 -0.1386  0.0995  0.0483
 5767W        W21901  10.659  13.220   5.166  0.2677 -0.1691  0.0199
 5768W        W21902   3.268   8.208  16.257 -0.4180 -0.1650 -0.4766
 5769W        W21903  14.700   4.333  16.236  0.0218  0.0942  0.1797
 5770W        W21904   7.446   8.011  15.637 -0.0102  0.0183  0.1155
 5771W        W21905  15.792   4.468  13.617 -0.0970  0.1268  0.0598
 5772W        W21906  16.271  13.635   4.541 -0.4446  0.1696 -0.1774
 5773W        W21907   3.218   5.387   4.890 -0.0757  0.1493  0.0648
 5774W        W21908  15.498   2.131   4.459 -0.0341 -0.1777 -0.3141
 5775W        W21909   3.692  14.834  14.136  0.1350  0.0835 -0.0974
 5776W        W21910  10.579  12.388  12.511 -0.0191  0.0493 -0.0119
 5777W        W21911   6.818   8.739   5.232 -0.1606 -0.0619 -0.0134
 5778W        W21912   3.429   5.216   3.362  0.0606  0.4260 -0.1774
 5779W        W21913   3.583  10.066  15.230  0.0386 -0.1923  0.1700
 5780W        W21914   4.368  14.655  15.441  0.0994 -0.0711 -0.1247
 5781W        W21915   2.784   9.502  12.873  0.2002  0.2006  0.1825
 5782W        W21916   6.190  15.753  12.209 -0.0816 -0.0420  0.0024
 5783W        W21917   8.156  14.612   2.068  0.1511 -0.3303  0.2435
 5784W        W21918   3.393  16.148   1.667  0.0163  0.1641  0.1095
 5785W        W21919  15.587   2.982   0.441  0.2983  0.3425 -0.0118
 5786W        W21920   6.202  11.887   4.860 -0.1065 -0.0819 -0.1938
 5787W        W21921  14.410   8.555  17.087  0.2971 -0.2845  0.2528
 5788W        W21922  10.137  13.642  14.068 -0.1183 -0.0108 -0.0844
 5789W        W21923   9.751   5.260   3.275  0.1243 -0.1035  0.0227
 5790W        W21924   4.252   2.667   2.137  0.1680 -0.3933 -0.0327
 5791W        W21925   3.005   6.645  12.194  0.1790  0.4483  0.0140
 5792W        W21926   9.055  11.696  12.537 -0.1144 -0.1937 -0.0108
 5793W        W21927   2.846  10.836  12.186 -0.0828  0.0450  0.0451
 5794W        W21928   4.688  14.312   4.020 -0.0130 -0.1520  0.0482
 5795W        W21929  12.947  15.477  14.786  0.1018 -0.1290  0.1565
 5796W        W21930  15.897  14.661  11.935  0.0398 -0.0797  0.0819
 5797W        W21931   2.558   1.723  13.146 -0.1869 -0.2685  0.0515
 5798W        W21932  11.666   1.557  12.355  0.2354 -0.1708 -0.0556
 5799W        W21933   2.273  15.773   0.669  0.0160 -0.3723 -0.2110
 5800W        W21934   0.780   4.165   5.788  0.0796 -0.0454  0.3081
 5801W        W21935  15.810  10.461  17.002  0.1026 -0.0676 -0.0344
 5802W        W21936   8.471   3.391  14.485 -0.0433  0.1019 -0.2882
 5803W        W21937   2.057  17.524  14.211 -0.1542  0.3262 -0.3531
 5804W        W21938  11.932   3.072  14.396 -0.0240 -0.2128 -0.2580
 5805W        W21939  15.482  16.585   1.958 -0.0991 -0.0014  0.0492
 5806W        W21940   9.599  12.111  14.311 -0.0604  0.0620  0.2647
 5807W        W21941   3.023  10.538   2.882 -0.0915  0.1092 -0.0098
 5808W        W21942  14.640   2.393   5.365  0.0204  0.1438 -0.0804
 5809W        W21943   7.604   8.604  16.855 -0.0764 -0.1551  0.1692
 5810W        W21944  15.958   1.627  15.689  0.2645  0.0400 -0.3026
 5811W        W21945  15.939  10.067  16.745 -0.0843  0.4597 -0.0403
 5812W        W21946  12.089  13.617  16.024 -0.0216  0.0975 -0.0322
 5813W        W21947  15.910  16.887  16.497  0.2966 -0.1253  0.3250
 5814W        W21948  17.060  14.358  15.622 -0.3851 -0.0653  0.2514
 5815W        W21949  17.042  10.944   1.773 -0.0781  0.0650 -0.1521
 5816W        W21950   2.583  11.206   3.997 -0.2363  0.2620  0.0130
 5817W        W21951   7.305   5.947   2.180 -0.1377 -0.1709 -0.0140
 5818W        W21952  15.840   0.215   4.803  0.1812  0.1060  0.0653
 5819W        W21953  15.060   0.097   5.226  0.0157  0.0635  0.1182
 5820W        W21954  15.133  14.099  14.894  0.3603 -0.0295 -0.0916
 5821W        W21955  10.119  10.873  14.925 -0.0230  0.0005 -0.0922
 5822W        W21956  12.757   4.192   1.982 -0.0020 -0.3567  0.0927
 5823W        W21957   7.630   3.492   4.192 -0.3120  0.0101  0.1171
 5824W        W21958  16.451  16.890  15.271  0.1507 -0.3379 -0.1442
 5825W        W21959   8.528  11.698  12.880  0.2100  0.1508  0.0460
 5826W        W21960   1.580   7.085   4.083 -0.1429 -0.0241 -0.0066
 5827W        W21961   1.280   4.233   0.217 -0.0924 -0.1727 -0.0489
 5828W        W21962  11.737   9.911  14.390 -0.1207  0.2304  0.1244
 5829W        W21963   5.579  12.858  15.928 -0.1360 -0.0230  0.1521
 5830W        W21964  11.857   8.951  12.360 -0.2228  0.4424  0.2510
 5831W        W21965   8.368  16.656  12.256  0.1496  0.1946  0.0341
 5832W        W21966  17.522   2.077   2.573  0.1002 -0.0306 -0.0770
 5833W        W21967   6.037  17.364   4.057 -0.1035  0.1504 -0.1054
 5834W        W21968  12.841  16.115  12.492 -0.1254  0.0098  0.0969
 5835W        W21969   1.238   0.781  13.901 -0.2345  0.0627 -0.0528
 5836W        W21970   9.709   6.306  13.211  0.0183  0.0510 -0.0099
 5837W        W21971   4.892  16.341  16.262  0.1493  0.0735  0.0183
 5838W        W21972  12.109  17.332  16.939  0.2104 -0.0489  0.1120
 5839W        W21973  17.606   3.209  12.659  0.3144  0.2184  0.1109
 5840W        W21974  10.286   4.677   1.216 -0.0295  0.2896  0.2302
 5841W        W21975   2.175   4.621   2.962 -0.1805 -0.2681  0.0166
 5842W        W21976  12.148  10.312  15.207 -0.0175 -0.1648 -0.1636
 5843W        W21977  15.051  10.805   6.096 -0.0994  0.2199  0.0087
 5844W        W21978  14.412   7.910   4.478  0.1978 -0.1325  0.0454
 5845W        W21979   9.845  12.975   2.231 -0.0264  0.0131 -0.1666
 5846W        W21980  14.545   5.000   1.549 -0.1216 -0.1078 -0.2725
 5847W        W21981   4.329   1.048  17.053 -0.2174  0.1439  0.2917
 5848W        W21982   1.271  12.074   4.440  0.0588  0.0540  0.0127
 5849W        W21983  17.082   0.423   4.424 -0.1448  0.0735  0.2988
 5850W        W21984  12.547   8.573   2.678 -0.1388  0.0006 -0.0978
 5851W        W21985   8.044   3.498   3.158 -0.1748 -0.1171  0.0255
 5852W        W21986   4.326   2.142   3.006 -0.0499 -0.4081  0.3021
 5853W        W21987   5.412   5.177  12.774 -0.0946  0.0824  0.0721
 5854W        W21988  10.873  11.483  14.381 -0.0881  0.1173 -0.1726
 5855W        W21989   3.000  11.203  15.750  0.0799  0.0801 -0.4008
 5856W        W21990   9.617   7.964   1.544  0.1163 -0.0491  0.2921
 5857W        W21991   9.680  15.436  15.318 -0.1503 -0.3054  0.2155
 5858W        W21992  17.020  13.861  17.073 -0.2419 -0.1417 -0.3259
 5859W        W21993   0.514  13.144   1.311 -0.1041 -0.1262  0.3695
 5860W        W21994   4.716   2.256   3.807  0.1373  0.0261 -0.0136
 5861W        W21995   4.083  16.625  12.281 -0.3721 -0.2753  0.0688
 5862W        W21996   9.440   0.507   0.287 -0.0717  0.2409  0.2089
 5863W        W21997   9.905  16.919   0.577 -0.0045 -0.2456 -0.1947
 5864W        W21998  10.008  11.846   1.413 -0.0866 -0.3237 -0.3275
 5865W        W21999   0.506   9.154  12.944 -0.2000 -0.2100  0.1114
 5866W        W22000  10.296   9.406   2.132  0.0165  0.0280 -0.0704
 5867W        W22001  12.947   7.490   0.710 -0.0792  0.1116 -0.0681
 5868W        W22002   0.735  16.801   1.467 -0.0938  0.1607  0.1449
 5869W        W22003  14.695  12.109  16.660  0.0554 -0.0172 -0.1447
 5870W        W22004   6.023   0.416  13.507 -0.2992 -0.1690  0.1163
 5871W        W22005   2.264   3.972  16.778 -0.1497 -0.3634  0.0321
 5872W        W22006   3.842  12.356  16.336 -0.0074 -0.2274 -0.1610
 5873W        W22007  12.823   5.667   1.446 -0.0231  0.0325  0.1483
 5874W        W22008  16.654   7.883  12.586  0.1613 -0.1392  0.0265
 5875W        W22009   2.976  17.129   5.461 -0.0646 -0.0185 -0.3970
 5876W        W22010  14.570  12.865  13.288 -0.3851 -0.1943  0.0639
 5877W        W22011  10.402  15.824   2.990  0.0658 -0.0516  0.0497
 5878W        W22012   0.771   5.611   1.569 -0.0620  0.0124 -0.2885
 5879W        W22013  15.843   2.143  14.826  0.4189 -0.1545 -0.3158
 5880W        W22014   1.697  10.689  15.941  0.0748 -0.0205 -0.0500
 5881W        W22015   6.183  16.721   0.265 -0.1166  0.0030 -0.2350
 5882W        W22016  15.441  11.546  13.559  0.1374 -0.0185 -0.1449
 5883W        W22017   2.017   5.248  15.221  0.0285  0.0807 -0.1629
 5884W        W22018   1.682  10.467   0.239 -0.1735  0.0581  0.1805
 5885W        W22019   8.746  14.314  13.337 -0.1005 -0.1133  0.2506
 5886W        W22020   8.902   9.350  13.400  0.1747  0.0180  0.0342
 5887W        W22021   8.773   8.851  15.335  0.2324  0.0876  0.4491
 5888W        W22022   9.777   7.203  11.577 -0.1292  0.2577 -0.2659
 5889W        W22023  10.830   6.939   0.909  0.1153 -0.2282  0.1860
 5890W        W22024  17.028  10.680  15.882  0.0780 -0.1009 -0.1694
 5891W        W22025   5.221  10.701   0.225 -0.2233  0.0239  0.0681
 5892W        W22026   9.832   3.013  12.674  0.1365  0.2601 -0.0768
 5893W        W22027  13.911   5.257   2.674  0.1225 -0.0654 -0.1568
 5894W        W22028  12.728   4.140  16.612 -0.1483  0.0928 -0.1909
 5895W        W22029   3.005  12.848   0.247 -0.2357  0.1121 -0.1392
 5896W        W22030  10.803   9.441   4.093  0.2109 -0.1624 -0.1910
 5897W        W22031   1.447   9.267  14.956  0.0499  0.0140 -0.1489
 5898W        W22032  11.707   4.163   1.027 -0.1205  0.1557 -0.1186
 5899W        W22033  12.860  12.546  11.947  0.1402 -0.1085  0.2701
 5900W        W22034  11.767  16.650  17.153 -0.0186 -0.2379 -0.1849
 5901W        W22035   6.018   1.633   2.889 -0.1038 -0.0107 -0.0891
 5902W        W22036   1.947   6.284  14.456 -0.0326  0.1791  0.0313
 5903W        W22037   8.029   6.651   5.754  0.0174 -0.0136 -0.2495
 5904W        W22038  13.379   9.668  12.794  0.0166 -0.0020  0.1661
 5905W        W22039   4.787  11.569   1.207  0.1624  0.2504  0.0020
 5906W        W22040  14.351  13.210  12.827 -0.1286 -0.1627  0.1286
 5907W        W22041   8.730   6.244  14.135  0.0771 -0.2501  0.0826
 5908W        W22042   2.967   1.492  12.997 -0.0416 -0.2034 -0.1452
 5909W        W22043   7.174  15.748  14.823 -0.2041  0.0026  0.3270
 5910W        W22044   1.126   3.818  15.745  0.1355  0.2993 -0.0993
 5911W        W22045   8.418   2.175  16.442  0.1430  0.2286 -0.1177
 5912W        W22046   9.698  15.121   2.499 -0.0206  0.1324 -0.0286
 5913W        W22047  16.368   2.767   4.950  0.1194 -0.1003 -0.0547
 5914W        W22048  14.448  13.518  11.497  0.0143 -0.0091  0.0217
 5915W        W22049   7.705   1.858  12.571 -0.2500 -0.1291 -0.1991
 5916W        W22050   0.370   4.183   5.474  0.0615 -0.0108 -0.1843
 5917W        W22051   4.851  12.190   0.512 -0.1794  0.0429  0.1143
 5918W        W22052  12.791  12.222  14.419 -0.0270  0.4058  0.2398
 5919W        W22053  13.547   3.160  14.352  0.0581  0.1431  0.1925
 5920W        W22054   3.029   6.624  15.943  0.1960 -0.0786  0.2156
 5921W        W22055   5.535  14.929   1.214  0.0202 -0.0809 -0.4493
 5922W        W22056   2.731   3.381  13.568 -0.0790  0.0918  0.0878
 5923W        W22057  16.704   6.137  14.170 -0.4242  0.2168 -0.3151
 5924W        W22058  16.494  10.407   3.390  0.1481  0.1144  0.1961
 5925W        W22059   0.648   6.896  16.768  0.1155 -0.1137 -0.0760
 5926W        W22060  15.532  13.158  13.838  0.0620  0.2430  0.0546
 5927W        W22061   4.441   3.371   2.218  0.0810 -0.0055 -0.1500
 5928W        W22062  16.859  12.392  13.163  0.2094 -0.0636  0.1409
 5929W        W22063   2.380  11.127   0.689  0.1195  0.0526  0.0941
 5930W        W22064   9.799   3.710  15.705  0.0365  0.2093 -0.1059
 5931W        W22065  16.986   9.091  14.089 -0.2453  0.0164  0.0605
 5932W        W22066   7.830   6.103   5.378  0.1338  0.0022 -0.1735
 5933W        W22067   7.246   2.973   5.869  0.1454 -0.0400 -0.0015
 5934W        W22068   2.839  11.077   0.436  0.1376 -0.1905 -0.1593
 5935W        W22069  14.568  16.400   4.793  0.1381  0.2620  0.0297
 5936W        W22070   6.515  10.802   2.418  0.0281  0.0301  0.0672
 5937W        W22071  12.028   5.774   0.427  0.2476 -0.1947 -0.0431
 5938W        W22072   1.097   7.514  15.801 -0.2522  0.0512  0.0072
 5939W        W22073  11.718   2.498  15.025  0.0976 -0.0493 -0.0210
 5940W        W22074  14.190   0.589  13.211  0.2447 -0.2453 -0.0821
 5941W        W22075   6.064  14.464  13.602 -0.0065  0.3368 -0.0153
 5942W        W22076  10.727  15.735  11.977 -0.0665  0.0026  0.1411
 5943W        W22077  12.116   6.846   4.734 -0.1597  0.2616 -0.0351
 5944W        W22078  13.948   9.567  12.686  0.0896  0.0642 -0.0174
 5945W        W22079   8.093   8.117   4.217 -0.1835  0.0767 -0.1611
 5946W        W22080  16.382   4.718  15.450 -0.0320  0.0129  0.2594
 5947W        W22081  17.621  14.711  16.499 -0.1449 -0.0679  0.1540
 5948W        W22082  14.076  17.017   1.600 -0.1276  0.2806  0.1478
 5949W        W22083  17.485   9.420  14.909 -0.2339 -0.1121 -0.0494
 5950W        W22084  14.332  12.328  13.318  0.0687  0.1809 -0.0512
 5951W        W22085  17.370   7.374  11.461  0.0699 -0.1063 -0.3495
 5952W        W22086  10.477   5.875  13.425 -0.0418 -0.2662 -0.0994
 5953W        W22087   1.156   0.158   5.059  0.0776  0.1034  0.0484
 5954W        W22088   0.674  15.836   0.567  0.0735  0.1942  0.0829
 5955W        W22089   9.475  11.159   2.291 -0.0483  0.2207 -0.0646
 5956W        W22090   0.604  17.262   4.059 -0.0538  0.0465 -0.3060
 5957W        W22091   3.494   2.501   1.531 -0.0700  0.0938  0.0642
 5958W        W22092  15.609   7.477   2.536 -0.0929 -0.0888 -0.0852
 5959W        W22093   0.571  17.486  13.181 -0.0480 -0.1004 -0.3179
 5960W        W22094   8.233  15.996   4.202 -0.0628 -0.4471  0.0008
 5961W        W22095   8.604  15.734  14.500 -0.0797  0.1589 -0.0259
 5962W        W22096   7.226  11.261  14.590 -0.0288 -0.1787 -0.0749
 5963W        W22097   2.322   1.327  12.321  0.3211 -0.4540 -0.0549
 5964W        W22098  15.737  17.578   0.614  0.0419  0.1320  0.1479
 5965W        W22099  10.799  11.899   5.792 -0.0708  0.1072 -0.1019
 5966W        W22100   6.765   0.215  16.791  0.1362 -0.1749  0.2527
 5967W        W22101  16.950   0.204   5.533 -0.0568  0.2250  0.2036
 5968W        W22102  11.872   8.062  11.308 -0.0186 -0.1163  0.1964
 5969W        W22103   5.297   1.888  15.760  0.2520 -0.1362  0.0202
 5970W        W22104  12.060   2.743   2.693  0.0716 -0.1774 -0.1885
 5971W        W22105   5.379   8.903  13.517  0.1482  0.0228  0.0807
 5972W        W22106  11.954  13.361   0.733 -0.3977 -0.0520 -0.0983
 5973W        W22107  10.463   5.405   3.840  0.0296  0.4078 -0.3726
 5974W        W22108   0.642   2.394   5.051  0.0681 -0.0127 -0.0975
 5975W        W22109   9.277   7.230   1.799  0.0471 -0.2694 -0.2000
 5976W        W22110   0.769   3.759  12.715 -0.0302 -0.1739 -0.2350
 5977W        W22111  14.280  14.780  16.845 -0.1251  0.3155  0.0557
 5978W        W22112  14.818   3.380  16.272  0.0829  0.0996  0.1079
 5979W        W22113   9.792   6.780   0.654 -0.1213  0.0777  0.0685
 5980W        W22114   7.849   7.482  12.717  0.0673 -0.0278 -0.3267
 5981W        W22115  12.968   3.422   0.432 -0.1988  0.0304  0.0197
 5982W        W22116   4.992   2.653  16.927  0.0133 -0.0311 -0.0687
 5983W        W22117  16.353   8.367  14.056 -0.0150 -0.2460 -0.0464
 5984W        W22118   7.047  15.766  12.649  0.0850  0.0703  0.0180
 5985W        W22119   9.122   3.797  14.084  0.0693 -0.2879  0.0240
 5986W        W22120   8.817   9.830  15.598  0.1128  0.2813  0.1913
 5987W        W22121   8.525   2.081   3.487 -0.0987  0.1570  0.4495
 5988W        W22122   1.936  13.855   1.978  0.0159 -0.0506 -0.2646
 5989W        W22123   9.149  15.360  15.249  0.3687 -0.1274 -0.0178
 5990W        W22124  15.483   1.690  12.148 -0.3093  0.1122 -0.2253
 5991W        W22125   2.622   9.237  15.201  0.0346 -0.3179 -0.0197
 5992W        W22126   2.054   6.079   0.339 -0.0482  0.1298 -0.2317
 5993W        W22127  13.210   3.893   3.246  0.0958  0.0572  0.0012
 5994W        W22128  12.746  16.859  14.619 -0.1542 -0.0094  0.3189
 5995W        W22129  14.652  14.964  13.288  0.3616 -0.0126 -0.0910
 5996W        W22130   8.023  13.742   1.762  0.3366 -0.3922 -0.4256
 5997W        W22131  11.826  14.555  14.601 -0.1111  0.3576 -0.1717
 5998W        W22132  15.260  15.616   5.113  0.1345 -0.0515 -0.0546
 5999W        W22133  10.905  10.247   0.230 -0.3089 -0.0859 -0.0379
 6000W        W22134  11.451  14.997  16.359 -0.2506  0.2287  0.2817
 6001W        W22135   5.002  17.181   5.666  0.1495 -0.3042 -0.3860
 6002W        W22136  15.195   6.164   0.918  0.0668 -0.0855  0.0339
 6003W        W22137  13.597   2.612   3.546 -0.2326  0.1954  0.2225
 6004W        W22138  15.058   2.303  16.431 -0.0855 -0.1046  0.0700
 6005W        W22139   1.937   5.894  13.513  0.0431 -0.0759  0.0723
 6006W        W22140   8.968  15.921  13.087 -0.0343  0.3370 -0.4027
 6007W        W22141  14.445   9.939   2.137 -0.0057 -0.0442 -0.1611
 6008W        W22142   0.492  11.359  16.022 -0.1737  0.1014 -0.1678
 6009W        W22143   7.801  14.776  15.308  0.2085  0.2586 -0.2197
 6010W        W22144   3.105   2.528   5.178  0.0228  0.0271  0.1031
 6011W        W22145   0.691  16.785  12.287  0.0850  0.0746  0.1244
 6012W        W22146  16.943  15.375  14.329  0.1205  0.0522 -0.0208
 6013W        W22147   1.769   7.274   2.473  0.2968  0.1772  0.0349
 6014W        W22148  16.372   8.985   2.543  0.0330 -0.2086  0.0224
 6015W        W22149   0.979   2.728   5.233 -0.0831 -0.4167 -0.0485
 6016W        W22150   7.236   7.873  11.597 -0.0341 -0.0140 -0.1100
 6017W        W22151   5.780   3.935   2.173  0.1549  0.0163 -0.0249
 6018W        W22152   0.672   2.865  15.099  0.0464 -0.1889  0.0805
 6019W        W22153   9.132   3.963  16.862  0.3588  0.0362 -0.3372
 6020W        W22154  10.919  17.046   0.169  0.0173  0.1314  0.0120
 6021W        W22155  16.368   1.655  14.755  0.1240 -0.1194 -0.0675
 6022W        W22156   4.244   9.760   3.192  0.1953 -0.0317  0.0248
 6023W        W22157   5.056   7.933   3.553 -0.2138  0.0872  0.2598
 6024W        W22158   2.680  13.085  17.081 -0.3194 -0.0550  0.0173
 6025W        W22159  17.058  16.748   2.310 -0.1532 -0.1553 -0.0942
 6026W        W22160   8.476   8.775   3.234 -0.3101 -0.0931  0.0147
 6027W        W22161  11.483   3.122   4.477  0.2639 -0.0217  0.2757
 6028W        W22162   3.413  13.667   3.512  0.0345 -0.3597  0.1699
 6029W        W22163  11.871   2.179  16.503 -0.0990  0.1536 -0.2168
 6030W        W22164  12.518  15.389  16.825 -0.1041 -0.1173 -0.1622
 6031W        W22165   9.887   6.980   5.005 -0.0675 -0.2128 -0.1126
 6032W        W22166   9.615   8.926  15.881 -0.0590 -0.0738  0.2319
 6033W        W22167  10.434  12.680  12.980 -0.0276  0.0107 -0.0594
 6034W        W22168  17.131  10.192  17.151 -0.0874  0.2147 -0.0445
 6035W        W22169  16.886   6.810   4.656 -0.1185  0.0617 -0.1396
 6036W        W22170   6.110   5.670  12.193  0.0525  0.0272  0.1799
 6037W        W22171   4.631   2.127   2.397  0.0499 -0.0855 -0.0328
 6038W        W22172  17.526  10.837   1.625  0.0104  0.2205  0.0977
 6039W        W22173   5.542  10.343  14.929 -0.1600  0.0086  0.2079
 6040W        W22174  13.671   0.388   4.760 -0.1946  0.0487  0.0101
 6041W        W22175   3.830   7.904  12.681  0.2896 -0.2500  0.1306
 6042W        W22176  10.914   0.983   2.744 -0.0107  0.2659 -0.0282
 6043W        W22177  12.889  12.471   5.562  0.0277 -0.0126 -0.0749
 6044W        W22178   1.787   2.112  16.325 -0.2232  0.0540  0.1920
 6045W        W22179   3.164  12.196  14.219  0.0478  0.1392  0.0952
 6046W        W22180  11.202   6.771   4.464  0.1233  0.2551 -0.1456
 6047W        W22181   9.316   4.037   4.524 -0.0266  0.3121  0.0874
 6048W        W22182  13.653   1.310   1.802  0.0743  0.0232  0.1814
 6049W        W22183   4.602  15.673  13.588 -0.0049  0.3091 -0.2520
 6050W        W22184  13.960  15.788  17.037  0.0555  0.1675  0.0738
 6051W        W22185   5.861   5.217  11.991  0.0832  0.3998  0.0373
 6052W        W22186   6.219   2.310  12.197 -0.0616 -0.0595  0.3684
 6053W        W22187  14.691  13.774  15.269 -0.3723  0.2789  0.1628
 6054W        W22188  13.169  12.887  13.083 -0.1070 -0.2885  0.2463
 6055W        W22189   2.064   4.645  13.174  0.1428 -0.2269 -0.2408
 6056W        W22190   4.484   9.105  16.069 -0.0571 -0.2996 -0.1904
 6057W        W22191   0.661  16.816  15.297  0.1545  0.0676 -0.0466
 6058W        W22192   1.797   8.586   2.499 -0.0711  0.2129  0.2950
 6059W        W22193   4.608  14.959   1.627 -0.0190  0.0742 -0.0620
 6060W        W22194   1.861   3.656  13.033  0.2318 -0.0061  0.0882
 6061W        W22195   8.332  16.644   5.028  0.0194 -0.0580  0.2328
 6062W        W22196   4.754   6.109   4.690  0.0640  0.2685 -0.1478
 6063W        W22197   2.225   4.386   0.486  0.1110  0.1331 -0.0683
 6064W        W22198  13.466   1.430  15.538  0.3909 -0.0820  0.0269
 6065W        W22199  15.130  14.204   5.193  0.0466 -0.2486  0.0355
 6066W        W22200   3.940  17.442  14.371 -0.0620  0.0317  0.1058
 6067W        W22201  14.840   6.678  15.381 -0.1721 -0.1922  0.1435
 6068W        W22202   9.210   1.735   4.823  0.3500 -0.1362  0.0193
 6069W        W22203  16.380  14.786   3.466  0.1551  0.0554  0.2129
 6070W        W22204  14.215   7.591  13.086  0.0134 -0.2722 -0.0320
 6071W        W22205  17.088   7.556   4.053  0.0403  0.0862  0.0830
 6072W        W22206  16.430   8.546  16.695 -0.2783 -0.2351  0.0885
 6073W        W22207  16.982  11.582  16.258  0.3129  0.0147  0.0734
 6074W        W22208  13.287   9.958  16.910 -0.2399 -0.3196 -0.0438
 6075W        W22209   0.383  11.905   1.530  0.1072 -0.1620  0.0367
 6076W        W22210   2.468   3.002   4.660  0.0525  0.0408 -0.4542
 6077W        W22211   6.227   6.675   2.225  0.0750 -0.2953 -0.1618
 6078W        W22212   1.378   7.960   5.288 -0.1157  0.0795  0.0479
 6079W        W22213  13.676  10.814   5.614 -0.1344  0.1863 -0.0392
 6080W        W22214   9.622  10.929   0.295 -0.1921 -0.1078  0.1145
 6081W        W22215   4.947   1.067   1.695  0.0470  0.1875  0.0414
 6082W        W22216   7.099   8.754   3.817  0.0307  0.3123  0.0088
 6083W        W22217   1.701  12.120  13.952  0.0300  0.1071  0.0512
 6084W        W22218  10.717   2.132   4.170  0.2394 -0.2587 -0.0405
 6085W        W22219   1.132  11.516   1.939  0.1957 -0.2312 -0.0978
 6086W        W22220   9.626  10.176   3.919  0.2686 -0.2485 -0.1751
 6087W        W22221   0.353   6.861   0.050  0.1932 -0.0480 -0.0686
 6088W        W22222  14.575   4.764   4.621  0.2173 -0.0713 -0.0034
 6089W        W22223  10.263   4.489  14.478  0.0255  0.1426  0.1474
 6090W        W22224  11.619  17.440   5.187  0.1871  0.3126  0.0110
 6091W        W22225   7.690   8.842  11.950 -0.1339 -0.2276  0.2688
 6092W        W22226   3.637   0.030  16.584  0.0716 -0.2149  0.1591
 6093W        W22227   6.268   6.320   1.888 -0.1563 -0.2783 -0.0280
 6094W        W22228   3.737   1.739  13.664  0.1469 -0.1619 -0.2639
 6095W        W22229   5.365  14.924   0.423  0.1206  0.2111 -0.1848
 6096W        W22230   0.063   8.953  16.058  0.2088  0.0144  0.2357
 6097W        W22231   6.213   9.583  12.115  0.1736 -0.2254  0.1126
 6098W        W22232   8.269   9.418  11.653  0.1751 -0.2223  0.1495
 6099W        W22233  14.210   9.916  12.896 -0.0125 -0.1639  0.0213
 6100W        W22234   8.481   0.299   1.341  0.1559  0.1472 -0.0018
 6101W        W22235   9.793   9.644   0.920  0.0360 -0.1895  0.0886
 6102W        W22236  13.023   4.778  14.363  0.1822  0.3280  0.1233
 6103W        W22237  13.688   4.983  16.438  0.1032 -0.0127 -0.0149
 6104W        W22238  11.883   9.804   3.879  0.0892 -0.2734  0.0678
 6105W        W22239   6.072   3.790  16.180  0.0032 -0.3393 -0.1394
 6106W        W22240   5.061   6.022   0.710  0.0204  0.0812  0.1535
 6107W        W22241   0.632  11.332   5.428 -0.0606 -0.0209 -0.1269
 6108W        W22242   2.744   4.181   5.581  0.1101  0.0955  0.0835
 6109W        W22243  15.492  13.805  12.829  0.0959  0.0451 -0.1430
 6110W        W22244   1.175  13.773   1.187 -0.0123  0.1810 -0.0061
 6111W        W22245   4.006  14.106   5.163  0.0244 -0.0355  0.2043
 6112W        W22246  17.064  17.596   4.536  0.0414  0.0479 -0.0239
 6113W        W22247   2.174   7.728  14.146  0.2493  0.2141 -0.2387
 6114W        W22248  17.108   1.197   6.141 -0.2760  0.1491  0.0773
 6115W        W22249  11.031  16.320  14.971  0.2160  0.1753  0.3262
 6116W        W22250  10.569   8.552   3.506 -0.1691  0.3600 -0.0168
 6117W        W22251  17.614   8.247   1.289 -0.1796 -0.0712 -0.0538
 6118W        W22252   4.373  13.596  16.450  0.1248  0.0162 -0.0047
 6119W        W22253  12.973  12.588  13.800 -0.2480  0.0243 -0.0459
 6120W        W22254   3.691   2.619  16.129 -0.5106 -0.1776 -0.1589
 6121W        W22255  12.501  17.071  15.018  0.1227 -0.0166  0.2049
 6122W        W22256   2.752  10.293   3.319 -0.1941 -0.1870  0.3337
 6123W        W22257   6.389   6.913  13.657  0.0691 -0.1639  0.2137
 6124W        W22258  13.837  14.538   3.206  0.0624  0.1217 -0.0043
 6125W        W22259   8.003  13.619  14.371  0.1446 -0.1182 -0.2429
 6126W        W22260   8.263   3.126   0.468  0.3709  0.1357  0.0400
 6127W        W22261   7.479  12.736  16.991 -0.2032 -0.2622 -0.0632
 6128W        W22262   2.882  10.723   1.439 -0.0981 -0.1402 -0.2066
 6129W        W22263  15.791  13.931  14.546  0.1262  0.0549 -0.1687
 6130W        W22264   0.798   5.568   3.778  0.0273  0.0003 -0.0640
 6131W        W22265  10.053   2.431   5.445  0.1510 -0.2160  0.0582
 6132W        W22266  13.345   7.212  12.329  0.2185 -0.4359 -0.0081
 6133W        W22267   3.224   7.108   3.029 -0.0579  0.0177 -0.0415
 6134W        W22268  11.368  16.733   2.610  0.1893 -0.2104  0.1641
 6135W        W22269   2.424   6.591  13.023  0.3080  0.0194  0.0805
 6136W        W22270  16.750   2.341   2.089 -0.0213 -0.0288 -0.3253
 6137W        W22271   3.922   8.969   1.976  0.0116 -0.1366  0.0048
 6138W        W22272   0.503  16.996   2.598 -0.0233  0.2768 -0.1399
 6139W        W22273   1.391   3.080   2.754  0.1253 -0.1340  0.0177
 6140W        W22274  10.970   6.783  11.676  0.2483  0.3285 -0.0464
 6141W        W22275  15.466  17.214   0.482 -0.2656  0.1074 -0.2908
 6142W        W22276   9.148  15.913  17.080 -0.0419 -0.1844 -0.1013
 6143W        W22277   1.414   3.515   0.476  0.1118 -0.0838  0.2288
 6144W        W22278  16.015   0.636  12.445  0.1372 -0.0208  0.0337
 6145W        W22279   6.312  12.631  13.544 -0.0534 -0.3085  0.1537
 6146W        W22280   8.160   8.638   3.584 -0.1815 -0.0146  0.1853
 6147W        W22281  13.246  15.954  12.248 -0.2025  0.3024 -0.1716
 6148W        W22282   3.359   1.416   0.517 -0.1449 -0.1885 -0.2483
 6149W        W22283   6.761  14.914  13.826 -0.3274 -0.2641 -0.0996
 6150W        W22284  17.141   3.025  15.696 -0.1274 -0.0373  0.0706
 6151W        W22285  11.069   0.350   2.020  0.1640  0.1510  0.0401
 6152W        W22286  16.657  16.423  16.767  0.0389 -0.2046  0.1579
 6153W        W22287   6.024   6.421   4.096  0.1742  0.0102  0.0233
 6154W        W22288  14.662   8.651   4.598  0.0729  0.3252 -0.1300
 6155W        W22289   5.494   4.525  15.298 -0.2022 -0.0769 -0.2494
 6156W        W22290   0.367  10.760  12.374 -0.0752  0.0300 -0.1789
 6157W        W22291  13.864  15.292   5.273  0.1051  0.1081  0.1016
 6158W        W22292   7.354   4.350   3.931 -0.1530 -0.0521 -0.0888
 6159W        W22293   4.190   9.750   5.232 -0.2081 -0.3023  0.2451
 6160W        W22294   0.787   2.778   4.249 -0.1084 -0.2753  0.1538
 6161W        W22295   0.173  17.001  16.785  0.2048  0.0990  0.1194
 6162W        W22296  10.699   6.279  13.081 -0.0448 -0.2442  0.2410
 6163W        W22297   8.274  17.505   3.195 -0.1166 -0.0305 -0.3152
 6164W        W22298   3.561   4.603   0.792 -0.3070  0.0590 -0.0565
 6165W        W22299  16.722  16.894   2.668 -0.1098 -0.0026 -0.0543
 6166W        W22300  12.467  11.367   0.992  0.0656  0.0987 -0.1934
 6167W        W22301  11.060  17.534  15.642  0.0541 -0.0622  0.0580
 6168W        W22302   6.876   7.821   1.851  0.2829 -0.1335  0.0441
 6169W        W22303  11.304  11.280  12.204  0.0955  0.2345 -0.0098
 6170W        W22304   3.830  17.122   2.435 -0.0501 -0.0683  0.1085
 6171W        W22305  15.714   0.017  15.456 -0.0658  0.1736  0.1055
 6172W        W22306   3.992   6.390   0.651 -0.0024  0.1623  0.3372
 6173W        W22307   0.637   0.948   3.943 -0.3414 -0.0343  0.2372
 6174W        W22308   9.889  13.016  16.321 -0.1811  0.0494 -0.4860
 6175W        W22309   6.790   1.636   3.962 -0.1778  0.0065 -0.0119
 6176W        W22310   8.242   5.074  14.976 -0.1343 -0.2746  0.1502
 6177W        W22311  10.743   1.525  13.294  0.1072 -0.1796  0.3400
 6178W        W22312  15.220  12.877  15.091 -0.0737 -0.2308 -0.0093
 6179W        W22313  17.324  12.619   4.420  0.1524  0.0961 -0.1908
 6180W        W22314  16.963  11.175   0.241 -0.1944 -0.0709  0.0062
 6181W        W22315  16.435   3.662  11.990 -0.4014 -0.0171  0.1815
 6182W        W22316  16.778   2.859   3.566 -0.2528 -0.1132 -0.0601
 6183W        W22317   3.947   0.709   0.127  0.0593  0.2089 -0.2460
 6184W        W22318   4.094  14.465  14.253  0.0085  0.3080 -0.1379
 6185W        W22319  13.562  12.140  12.801 -0.0189 -0.1240 -0.1106
 6186W        W22320  13.674   2.355   0.586 -0.2271 -0.1624 -0.2243
 6187W        W22321   0.591   6.711   2.209 -0.0955 -0.0405  0.2730
 6188W        W22322  11.196  15.248  12.083 -0.0787 -0.0809  0.2100
 6189W        W22323   0.597   4.294  11.917  0.0447 -0.0868 -0.1323
 6190W        W22324   6.079   8.300   0.842 -0.1259  0.0459 -0.0923
 6191W        W22325   0.499   4.568   0.582 -0.1092  0.1642 -0.1962
 6192W        W22326   7.459   7.776  12.945  0.0443 -0.1478  0.4082
 6193W        W22327  13.898   4.417   3.986 -0.2257  0.0221 -0.0295
 6194W        W22328  11.000  14.849  14.575  0.2923  0.0538 -0.1146
 6195W        W22329  10.140  13.361   2.091  0.1700 -0.0647 -0.1306
 6196W        W22330  11.283   7.595   5.962 -0.1897  0.0784  0.2031
 6197W        W22331   8.756   0.787  16.709 -0.0925 -0.0440  0.0156
 6198W        W22332   9.069   3.126  13.403  0.0208  0.2610 -0.0348
 6199W        W22333  11.959   7.462   0.341 -0.0277  0.2393  0.0910
 6200W        W22334  15.912  10.592   0.345  0.1714 -0.0434 -0.0305
 6201W        W22335  10.167   1.419  13.424 -0.0789 -0.1134 -0.0114
 6202W        W22336  17.071  11.884   4.954  0.0294 -0.2235 -0.0944
 6203W        W22337  15.511  17.270  15.723  0.0256  0.0763  0.2651
 6204W        W22338  10.756   6.620   0.191  0.0655  0.0638 -0.1278
 6205W        W22339   9.455   4.730   5.543  0.0986  0.0540  0.0075
 6206W        W22340   8.783  14.036  14.658  0.1773 -0.1249  0.2016
 6207W        W22341   1.687  13.741   5.700  0.3300 -0.2340 -0.2041
 6208W        W22342  13.582  14.398   0.742  0.3809  0.1286  0.1950
 6209W        W22343   1.545  11.077   5.003  0.0545 -0.1559 -0.2743
 6210W        W22344   6.473  17.176   4.859 -0.0690 -0.0838  0.3939
 6211W        W22345   3.692   8.194   3.655 -0.1684  0.0940 -0.1909
 6212W        W22346   5.082  16.907   3.632  0.2308 -0.1716  0.2122
 6213W        W22347   4.164   0.464   2.746 -0.0874  0.2171 -0.1796
 6214W        W22348  13.666  13.650  17.007  0.1503  0.0920  0.0664
 6215W        W22349  11.799   1.656  16.376 -0.0572  0.3021 -0.2905
 6216W        W22350   0.999   8.363   1.650  0.1806 -0.2853  0.1949
 6217W        W22351  16.792   8.280  14.285  0.2693  0.5032  0.1916
 6218W        W22352   9.144  14.306  14.350 -0.3790  0.1567 -0.3852
 6219W        W22353   4.287  11.901   3.206 -0.1076 -0.0939  0.0876
 6220W        W22354   8.061   2.934  15.298 -0.1223  0.3060 -0.4320
 6221W        W22355  15.542  13.712  16.907  0.0476  0.2626  0.2741
 6222W        W22356   5.106   1.067   3.959  0.4137 -0.0882 -0.1171
 6223W        W22357  13.847  11.624   4.992  0.0864  0.0935  0.2475
 6224W        W22358  17.337  12.201  11.884  0.3339 -0.1055  0.1020
 6225W        W22359  12.143   4.695  14.195 -0.2048 -0.2500 -0.1473
 6226W        W22360   1.877   8.799   5.166  0.1317 -0.0882  0.1393
 6227W        W22361   1.389  16.326   4.136 -0.2701 -0.2162  0.0455
 6228W        W22362  13.834  13.997  12.827  0.3931 -0.2089  0.0970
 6229W        W22363   9.449   1.712   3.864 -0.1440 -0.0410 -0.1187
 6230W        W22364  14.108  15.408   2.036  0.0235  0.0651 -0.2499
 6231W        W22365   2.969   3.237   1.863  0.1396 -0.0208 -0.1670
 6232W        W22366   2.506  10.073  16.617 -0.1909  0.2102  0.0490
 6233W        W22367   0.943   5.076   3.515 -0.0140 -0.2923  0.0616
 6234W        W22368   7.385   2.772   1.212 -0.0670  0.1701 -0.2964
 6235W        W22369  16.377  16.075   1.008  0.2179 -0.1267  0.0850
 6236W        W22370  15.383  10.226  13.393  0.0207  0.1499 -0.3033
 6237W        W22371   3.305  10.818  11.895  0.0454 -0.2218 -0.1625
 6238W        W22372   0.493  13.423   3.637 -0.0565  0.2195 -0.0017
 6239W        W22373   8.726  10.697   5.680  0.1967  0.1247 -0.0470
 6240W        W22374  14.107   2.142   4.555 -0.1030  0.2290  0.2456
 6241W        W22375  12.506  10.745  12.802 -0.1097  0.3239  0.1153
 6242W        W22376  14.207   5.202   4.010 -0.0169 -0.0135  0.3836
 6243W        W22377  14.692  12.063  12.999 -0.0456  0.2265 -0.3385
 6244W        W22378  14.136  13.219  16.152  0.5277  0.1110  0.1320
 6245W        W22379   4.045  15.444  12.928  0.0972 -0.1790  0.1319
 6246W        W22380   5.225   4.233   5.662 -0.2040  0.4183 -0.1528
 6247W        W22381   6.018   4.563   1.045 -0.2648 -0.1307 -0.3566
 6248W        W22382  11.690  15.054   5.378 -0.1019 -0.0454  0.2408
 6249W        W22383   1.475  11.717   2.898  0.0321 -0.0219 -0.0285
 6250W        W22384   3.422  16.958   0.714 -0.1847 -0.0244 -0.0487
 6251W        W22385   4.830   5.056  12.359 -0.0290  0.1296 -0.0424
 6252W        W22386   0.140   4.245  14.430  0.1961  0.1293 -0.1023
 6253W        W22387   7.271  12.914  12.017  0.0664 -0.0489  0.0272
 6254W        W22388  14.327  13.382  14.309 -0.0742 -0.0528  0.1305
 6255W        W22389   0.477   1.522   4.562 -0.0216 -0.0552  0.1628
 6256W        W22390   6.467   8.079  12.658  0.2623 -0.0344  0.3010
 6257W        W22391  10.750  11.612   0.252 -0.0881 -0.1222  0.0081
 6258W        W22392   8.439  17.048  12.692 -0.1895 -0.1367  0.1542
 6259W        W22393   5.153   0.704   6.499 -0.3412 -0.0010 -0.0230
 6260W        W22394  14.921   3.300  11.925 -0.1031  0.0296 -0.1261
 6261W        W22395   8.891   1.098  14.207 -0.2209  0.0700  0.1006
 6262W        W22396   1.952  10.827   1.672  0.3127  0.0869  0.1729
 6263W        W22397   6.613   7.605  11.572 -0.0909  0.0548 -0.1914
 6264W        W22398   4.769   0.400   0.180  0.3221 -0.0301  0.0038
 6265W        W22399   7.281  17.319  14.677  0.0191  0.1640 -0.1000
 6266W        W22400   6.700   3.779  14.528  0.2250 -0.1801 -0.0059
 6267W        W22401  13.030   6.802  16.620  0.0190 -0.2867 -0.0238
 6268W        W22402   5.153  10.677   4.400 -0.0442 -0.3251  0.0106
 6269W        W22403  15.717   9.828   1.642 -0.0785 -0.0350 -0.0657
 6270W        W22404   8.674   5.316  14.658  0.0845  0.1627  0.0900
 6271W        W22405   2.467   6.293  14.443 -0.3123 -0.3361  0.1607
 6272W        W22406   3.963   8.247  13.634  0.1635  0.1087 -0.2919
 6273W        W22407  17.579   6.316  16.498  0.0153 -0.0158 -0.0068
 6274W        W22408  12.409  12.681   6.312 -0.1714  0.1017 -0.1404
 6275W        W22409   7.334  16.821  15.908  0.0729 -0.1080 -0.0266
 6276W        W22410  14.563  15.191  16.914 -0.1327  0.0548 -0.0745
 6277W        W22411  17.439  14.627  17.073 -0.1625 -0.0114 -0.0064
 6278W        W22412   2.367   7.854   2.178  0.1922 -0.2495 -0.0157
 6279W        W22413  13.409   0.279  15.028 -0.0627 -0.0330 -0.0789
 6280W        W22414  13.966   3.888  16.229 -0.0589  0.0615 -0.0562
 6281W        W22415   7.825  12.120   5.483  0.2021 -0.0991  0.1649
 6282W        W22416   2.981  15.841  12.358 -0.2423 -0.1402  0.0336
 6283W        W22417  10.198  16.979  14.171 -0.2157  0.0955 -0.2197
 6284W        W22418  10.090   5.370  14.045 -0.0914 -0.1435  0.0345
 6285W        W22419  15.010   4.885   3.466  0.0363  0.1667 -0.0334
 6286W        W22420   9.701  16.846   1.475 -0.0143 -0.2431 -0.0739
 6287W        W22421   7.870  16.605  12.129  0.0819 -0.1111  0.0204
 6288W        W22422   1.561  14.915  13.744  0.2269 -0.1003  0.1205
 6289W        W22423   7.612   3.009   4.817  0.1899  0.1261 -0.4919
 6290W        W22424   5.970  13.280   5.950 -0.0887 -0.0443 -0.1760
 6291W        W22425   6.991  14.479   1.471  0.1856  0.2331 -0.0302
 6292W        W22426   5.042   0.999  15.087 -0.1896 -0.2851  0.1573
 6293W        W22427   0.805  17.665  14.771  0.1724 -0.0505  0.3096
 6294W        W22428   9.062   5.089  15.989 -0.1000  0.1004  0.0307
 6295W        W22429   1.444   7.014   4.621 -0.0262 -0.2691 -0.0320
 6296W        W22430  12.338   3.441   5.476 -0.2598 -0.1837 -0.3137
 6297W        W22431   2.046   6.106   2.514 -0.0718  0.0794 -0.2140
 6298W        W22432  15.907   9.421  16.450  0.1075 -0.0624 -0.0146
 6299W        W22433  16.555   8.763   3.326 -0.1988 -0.0080  0.0576
 6300W        W22434   3.877  10.303  14.393  0.0045  0.0254  0.1505
 6301W        W22435   4.156   6.040   4.053 -0.2023  0.0517  0.3021
 6302W        W22436   0.459   5.821   2.577 -0.4566  0.1384 -0.0063
 6303W        W22437   5.387  11.648   2.645  0.0177  0.0343  0.0587
 6304W        W22438   1.347  14.192  12.184 -0.0631 -0.1022 -0.0348
 6305W        W22439   7.465   4.170   5.517  0.0549 -0.0296 -0.0584
 6306W        W22440  13.115   4.729  12.213 -0.0306  0.1274 -0.0889
 6307W        W22441  15.114  15.151   5.394  0.1449 -0.2116  0.3425
 6308W        W22442   3.108   1.138  14.815  0.1682 -0.2337 -0.0060
 6309W        W22443  11.576  10.194   1.103 -0.0066  0.1798  0.0046
 6310W        W22444   7.659  11.246  13.664  0.2096  0.0323  0.0615
 6311W        W22445   4.010  13.227   4.600  0.3073  0.5122  0.0097
 6312W        W22446  15.930   5.770   1.329  0.0324 -0.0258 -0.1716
 6313W        W22447  13.792   0.437   4.267  0.0292 -0.5501 -0.0344
 6314W        W22448   7.788   0.556   5.526 -0.3005 -0.0594 -0.2667
 6315W        W22449  13.515   8.654  15.634 -0.1282  0.0412  0.0109
 6316W        W22450  11.921   7.337  13.865  0.1045  0.0788  0.1710
 6317W        W22451   6.205   0.180  12.400  0.1318 -0.1662  0.2591
 6318W        W22452  13.189   8.044   4.202  0.0763  0.0336  0.2393
 6319W        W22453  15.539  10.876  15.592 -0.0073  0.1615 -0.1350
 6320W        W22454  12.733   0.844   0.485 -0.0389  0.0063 -0.0186
 6321W        W22455   1.367  15.069   1.518 -0.1364 -0.1011  0.1126
 6322W        W22456   8.872   8.530   4.108 -0.0891  0.0997 -0.0246
 6323W        W22457  10.369   3.998  15.812  0.5428  0.0312 -0.0607
 6324W        W22458  15.661  11.934   4.392 -0.2064  0.0917  0.1039
 6325W        W22459   9.944   5.592   4.644  0.0956  0.2725  0.0943
 6326W        W22460   0.888   0.800  13.556 -0.1659  0.1556 -0.0130
 6327W        W22461  16.086  10.671  14.511 -0.1949  0.0494  0.1082
 6328W        W22462   8.081   1.521  13.617 -0.0511  0.1060 -0.0776
 6329W        W22463   5.988   0.245   4.069 -0.0096  0.2087 -0.1099
 6330W        W22464   4.972  15.168  14.733 -0.0493 -0.0517 -0.0310
 6331W        W22465   3.664   9.738  13.252 -0.0947 -0.4622 -0.1693
 6332W        W22466   7.128  14.152   4.572 -0.1720 -0.0531 -0.1440
 6333W        W22467  12.955  10.054   5.394  0.1752  0.1467 -0.0667
 6334W        W22468   3.374  14.574   6.374 -0.0910 -0.2394  0.0813
 6335W        W22469  13.600   7.920   0.225 -0.0682 -0.3402 -0.1292
 6336W        W22470   7.119   0.419   2.755  0.0598  0.2866  0.0508
 6337W        W22471  17.235  12.232  15.398  0.0547 -0.2498 -0.0638
 6338W        W22472   0.366   1.985   3.360  0.2926  0.2204  0.0799
 6339W        W22473  11.980   6.945  12.927 -0.4095  0.2594 -0.0558
 6340W        W22474   5.539  17.214   3.971  0.1529  0.1066 -0.3336
 6341W        W22475   1.797  15.326  15.758 -0.1930  0.1166  0.1428
 6342W        W22476   3.274   5.021   4.180 -0.3458 -0.3164  0.0059
 6343W        W22477  15.585  10.562   1.369 -0.2140  0.3692 -0.1930
 6344W        W22478  10.333  15.659  12.278  0.2283 -0.1088 -0.2796
 6345W        W22479   2.126  12.078  10.908 -0.1082  0.0579 -0.1629
 6346W        W22480   3.248  15.187  16.104  0.1585  0.0884 -0.3011
 6347W        W22481   1.264   8.184   0.130  0.3008  0.2256 -0.1382
 6348W        W22482   5.431   4.200   2.341  0.1164  0.0281  0.0661
 6349W        W22483  12.290  14.014   5.578 -0.2176  0.1973  0.0445
 6350W        W22484  14.503  17.119   6.045 -0.4361 -0.0298  0.0519
 6351W        W22485  12.217   6.520   5.130  0.1177 -0.2895 -0.0863
 6352W        W22486   4.426   4.237  15.828  0.1705 -0.0759 -0.1459
 6353W        W22487  15.053   7.307  13.252 -0.0018  0.1143 -0.2140
 6354W        W22488   1.955   0.790   4.183  0.1282  0.0843 -0.1571
 6355W        W22489  12.841   0.220  11.278 -0.1355  0.0234  0.4868
 6356W        W22490   1.664  11.475  12.174  0.2699 -0.1636 -0.0171
 6357W        W22491   8.185  12.639   0.413  0.3958  0.1684 -0.1009
 6358W        W22492  13.525  15.609   2.059  0.1944  0.0023 -0.1320
 6359W        W22493   1.536   8.537   4.608 -0.1703 -0.2942 -0.2553
 6360W        W22494   2.072   3.623   1.817  0.1970 -0.2271 -0.0685
 6361W        W22495   7.882  11.243  13.242 -0.0337 -0.1964 -0.0201
 6362W        W22496  10.185  16.195   1.488 -0.1033 -0.0394 -0.3112
 6363W        W22497   7.674   5.404  13.759  0.0378 -0.0122 -0.2392
 6364W        W22498  14.389  10.470  12.225 -0.2707 -0.2676  0.0766
 6365W        W22499   2.080  12.481  15.657  0.0698  0.2788 -0.0164
 6366W        W22500   2.541   5.374   0.347 -0.0849  0.0800 -0.0591
 6367W        W22501   2.683   3.718   5.093  0.1710 -0.0869  0.5050
 6368W        W22502  11.938  15.021   1.180  0.3606  0.1511 -0.1560
 6369W        W22503   5.391   2.633   4.504 -0.0820  0.2000  0.1832
 6370W        W22504   2.959   5.578   5.284  0.1664 -0.0828 -0.0526
 6371W        W22505   3.044   6.036  15.730 -0.0758  0.2068  0.2786
 6372W        W22506   2.463   9.998   1.829 -0.0904 -0.2472 -0.1023
 6373W        W22507  15.627   9.116  11.311  0.1182  0.1028  0.1262
 6374W        W22508   2.666   6.752   1.179 -0.0770 -0.3068  0.0035
 6375W        W22509   7.988  10.565   1.340  0.0416  0.1594  0.2785
 6376W        W22510   0.059  12.556  11.900 -0.1281  0.1958  0.1129
 6377W        W22511   3.750  11.449  10.522 -0.0904  0.0965 -0.0859
 6378W        W22512  15.237  15.626  14.865  0.0285  0.3357 -0.1291
 6379W        W22513  10.399  10.926  13.224 -0.0566  0.0987  0.0662
 6380W        W22514   2.524   8.310   3.427 -0.2866  0.3116 -0.4806
 6381W        W22515  12.610   7.541  15.033 -0.0733  0.1618  0.0185
 6382W        W22516  15.227   8.961  15.523 -0.1471  0.0539 -0.0658
 6383W        W22517   3.186   3.903  13.702  0.3259  0.1704  0.1127
 6384W        W22518   1.981  11.837   2.640  0.1190  0.1593  0.0114
 6385W        W22519   6.430   4.831  13.844 -0.0941 -0.0505 -0.0411
 6386W        W22520   5.098  13.136   5.404 -0.0774 -0.3084 -0.0907
 6387W        W22521  13.711   0.683   5.616  0.2667  0.0028 -0.2889
 6388W        W22522   4.756   0.928  14.636 -0.0634  0.0921 -0.0660
 6389W        W22523  14.233   0.428   4.007 -0.1042  0.1880  0.0173
 6390W        W22524   4.924  15.192   2.870  0.0036 -0.2403 -0.0513
 6391W        W22525  11.584   7.167  14.283 -0.0848 -0.1580  0.2043
 6392W        W22526   2.981   7.582  11.781 -0.1831 -0.0370  0.0950
 6393W        W22527  12.027  11.375  13.715 -0.0687  0.0142 -0.0425
 6394W        W22528   3.436   9.823   5.626  0.0238 -0.2607  0.4202
 6395W        W22529   3.146  13.014  15.482  0.1340 -0.1271 -0.0574
 6396W        W22530   2.384   5.605   5.244 -0.2197  0.0729 -0.0753
 6397W        W22531   3.721  13.143   5.476 -0.1664  0.3154  0.0354
 6398W        W22532  13.791  13.309  13.674  0.2333 -0.0400 -0.0632
 6399W        W22533   0.787   2.429   5.660  0.1849  0.1349 -0.0290
 6400W        W22534  15.907   3.738   5.562  0.2905 -0.1387 -0.0941
 6401W        W22535  10.859   5.007  14.875 -0.0421 -0.2665 -0.0309
 6402W        W22536   4.058   9.983  14.915  0.1810  0.0705 -0.0440
 6403W        W22537   0.812   5.137  13.558  0.2026 -0.0181  0.2921
 6404W        W22538  15.882  12.150   1.409 -0.0812  0.4368 -0.0891
 6405W        W22539   3.091  10.391  12.070  0.1113 -0.4337 -0.0987
 6406W        W22540   3.174  15.113   1.428 -0.0430  0.0900 -0.1640
 6407W        W22541   6.459   6.040   5.529  0.1464 -0.0468  0.1086
 6408W        W22542   0.324  16.343   1.344  0.2930 -0.1107 -0.2766
 6409W        W22543  12.184   2.218   4.438 -0.0927  0.0208  0.0349
 6410W        W22544  12.496   7.959   0.181 -0.1679  0.1749  0.2075
 6411W        W22545   2.327   4.046   1.849 -0.0825 -0.1604 -0.0236
 6412W        W22546   7.018   7.171   3.683  0.0294 -0.1946  0.0396
 6413W        W22547  10.611   8.976  16.930  0.0863 -0.1984  0.0915
 6414W        W22548  11.663  13.991  13.735  0.0168  0.0741 -0.3363
 6415W        W22549   7.359  16.807   2.664  0.1246  0.0107  0.5108
 6416W        W22550   9.921  13.455  15.678  0.1520  0.0997  0.0067
 6417W        W22551   4.516  16.184  13.619  0.2748  0.3155 -0.4105
 6418W        W22552   4.778  12.258   4.319 -0.1146 -0.1007  0.0863
 6419W        W22553  17.515   5.589  15.242  0.0600 -0.1094  0.0286
 6420W        W22554   8.573   6.516   2.407  0.1636 -0.0560  0.1673
 6421W        W22555   3.785  16.264  14.066  0.2837  0.1418  0.1180
 6422W        W22556  11.854   1.493  16.894  0.1942  0.0539 -0.0735
 6423W        W22557  17.155   3.504  12.388 -0.2963 -0.0275  0.0822
 6424W        W22558  15.533   2.704  12.346 -0.3084  0.2342  0.0799
 6425W        W22559  11.574   0.514   3.492  0.0235 -0.2223 -0.0812
 6426W        W22560   5.983   0.019   2.263 -0.1857  0.0262 -0.3432
 6427W        W22561   2.801  15.028  12.412  0.0611 -0.1920 -0.1940
 6428W        W22562   2.255   9.043  14.434 -0.2537  0.1023  0.1961
 6429W        W22563   2.418  11.027   1.736  0.0177 -0.2330  0.1106
 6430W        W22564   1.019  16.278  14.012  0.0365  0.1066 -0.0356
 6431W        W22565   2.050   7.728   4.757 -0.0343  0.1148  0.0689
 6432W        W22566  11.167  10.971   4.618  0.0502  0.0156 -0.0481
 6433W        W22567   6.127   5.107   0.526 -0.2404  0.3444 -0.3829
 6434W        W22568   7.864   9.431   2.789  0.0792 -0.1997 -0.0996
 6435W        W22569   8.993   5.847   1.322  0.2638 -0.2388  0.0349
 6436W        W22570  16.637   9.972   3.500 -0.1083 -0.1557 -0.2192
 6437W        W22571  12.608  12.673  14.574  0.0060  0.0955  0.2133
 6438W        W22572   1.183   5.715   0.138  0.1329 -0.2206  0.1049
 6439W        W22573  14.783  10.424   3.226 -0.0739 -0.0213  0.2303
 6440W        W22574   3.429   1.903   0.350  0.1542  0.1615  0.1387
 6441W        W22575   7.709  10.177  15.197 -0.0248 -0.0003  0.2070
 6442W        W22576   5.860  16.047   1.296 -0.0301  0.0919  0.0082
 6443W        W22577  16.249  11.988   5.865 -0.1277 -0.0789 -0.0198
 6444W        W22578  13.791   5.840   0.167  0.1254  0.0859  0.1126
 6445W        W22579  12.127  15.811   4.395  0.3333 -0.3274 -0.0565
 6446W        W22580  12.983   5.790   0.721 -0.3593 -0.0724  0.3592
 6447W        W22581  12.096  15.518   4.917  0.0233  0.3578  0.1078
 6448W        W22582  13.285   8.924   4.207 -0.0147  0.3338 -0.0377
 6449W        W22583   5.698   7.711   6.274 -0.0287 -0.0759  0.2297
 6450W        W22584   3.866   1.215   3.362  0.0117 -0.2886 -0.1715
 6451W        W22585  10.295  13.106  16.022 -0.1149  0.1577 -0.2796
 6452W        W22586  14.535  17.027  14.328  0.1048  0.1101  0.0397
 6453W        W22587   9.020  17.353  16.081 -0.1192  0.1842 -0.0396
 6454W        W22588   7.320   0.208  13.901 -0.2093 -0.2762  0.4296
 6455W        W22589  10.801  14.056   3.450 -0.0379 -0.0002  0.3665
 6456W        W22590  12.173   6.909   0.980  0.1912  0.0012  0.0459
 6457W        W22591   1.171  10.074   0.112 -0.0220  0.0155 -0.2588
 6458W        W22592   9.347  13.075  13.704 -0.2728  0.1633 -0.0609
 6459W        W22593   7.291   1.611  12.654  0.0125  0.2581 -0.4014
 6460W        W22594   1.596  13.475  13.160  0.0853 -0.0881 -0.0565
 6461W        W22595  13.659  15.317   1.675  0.0121 -0.1742 -0.1955
 6462W        W22596  12.581  11.399  16.335 -0.2128 -0.1051  0.1004
 6463W        W22597   2.035   6.940  15.789 -0.0045 -0.0066  0.1376
 6464W        W22598  14.486  11.337   0.844 -0.0705  0.3190 -0.5018
 6465W        W22599  14.330  14.696   3.373 -0.0525 -0.3008 -0.2817
 6466W        W22600  12.599   3.303   0.958  0.1694  0.1993 -0.2990
 6467W        W22601  12.612  15.917   4.431 -0.1575  0.0854  0.1885
 6468W        W22602  17.350  16.754   2.695  0.0005  0.1750 -0.1399
 6469W        W22603   8.605  10.035  12.270 -0.1601 -0.1585 -0.1834
 6470W        W22604  13.879   4.355   4.476  0.2067 -0.3242 -0.3952
 6471W        W22605  15.560   0.574  12.658  0.3708  0.0563  0.1545
 6472W        W22606   3.673  14.167  12.847 -0.0945  0.1255  0.0970
 6473W        W22607  14.848   8.544  13.407  0.0978 -0.2508 -0.1246
 6474W        W22608  16.830  11.985  15.255 -0.0103  0.3286  0.1678
 6475W        W22609  12.268   4.566   3.971  0.0444 -0.1434 -0.1216
 6476W        W22610  14.108  10.576  16.308  0.1811  0.1291 -0.1176
 6477W        W22611   1.276   8.332   1.244  0.0617 -0.2069 -0.0629
 6478W        W22612  15.374  13.678  16.236 -0.0226  0.1002  0.0104
 6479W        W22613   1.266  15.461   1.838  0.0429 -0.1835 -0.0790
 6480W        W22614   5.305   4.645  11.356 -0.1576  0.0744  0.0289
 6481W        W22615   7.179  15.384  13.027 -0.1509 -0.1835 -0.0623
 6482W        W22616  13.471   2.003   0.095  0.1279 -0.0913  0.1346
 6483W        W22617  17.087   3.966  17.087  0.0988  0.2652 -0.0974
 6484W        W22618   9.908   9.137  12.302 -0.1135  0.0010  0.1847
 6485W        W22619  11.051  16.334   5.001 -0.1826  0.4232  0.3607
 6486W        W22620   0.129   1.953  16.882  0.2072  0.1109  0.4407
 6487W        W22621  10.531  14.032   4.545 -0.2043  0.0475 -0.3332
 6488W        W22622   9.484   2.809   6.078  0.1026 -0.2173 -0.1500
 6489W        W22623   0.858   0.614   2.892 -0.0916 -0.0188  0.0942
 6490W        W22624   6.787  16.274   2.534  0.1659  0.1855  0.0723
 6491W        W22625   5.004   3.410   3.619 -0.3704  0.3675 -0.3207
 6492W        W22626  13.786   2.233   2.278 -0.2008  0.3555  0.0546
 6493W        W22627   0.039  16.889   4.826 -0.1816  0.3198  0.0011
 6494W        W22628   3.051   1.121   4.911 -0.0283  0.1103 -0.0610
 6495W        W22629   3.495   2.306  13.046  0.1347  0.1479  0.0569
 6496W        W22630   5.401  12.649   3.030 -0.0323  0.1954  0.2249
 6497W        W22631  13.316   2.369   2.511  0.1881 -0.2806  0.2771
 6498W        W22632  13.013  10.572  14.946 -0.0640 -0.2983 -0.0060
 6499W        W22633   0.244   9.425  13.853 -0.4287 -0.2784  0.1211
 6500W        W22634   1.320  16.889   3.808  0.2907 -0.0146  0.1134
 6501W        W22635   4.523   1.816  13.652 -0.1709  0.0558  0.0368
 6502W        W22636  13.973   1.896  13.312 -0.0078 -0.0610  0.0737
 6503W        W22637  10.342   8.506   5.462  0.1361 -0.0624 -0.3030
 6504W        W22638  14.662  12.714   5.789 -0.3050  0.0741  0.0253
 6505W        W22639   8.093   7.791  14.677 -0.0422 -0.2173 -0.4984
 6506W        W22640   4.684  16.619  15.393 -0.1198  0.0379 -0.0063
 6507W        W22641   9.406   7.039   0.918 -0.0107 -0.0573 -0.2003
 6508W        W22642   7.059  12.342  13.073 -0.1453  0.3324  0.2172
 6509W        W22643  12.868   6.933  14.392  0.1854 -0.0895 -0.0412
 6510W        W22644   7.410   0.961   5.397 -0.0575  0.1402  0.0165
 6511W        W22645  13.871  12.152   0.143 -0.1132  0.0281  0.0136
 6512W        W22646  11.314  11.357   1.654 -0.2430 -0.2131  0.2360
 6513W        W22647  14.922   9.239   0.091 -0.0701 -0.1712 -0.1701
 6514W        W22648   0.892  14.534   3.381  0.0436  0.3754  0.0374
 6515W        W22649  17.348   7.842   1.532  0.1051 -0.2994  0.1698
 6516W        W22650   3.865  11.254   1.543  0.3269 -0.0142  0.1129
 6517W        W22651   1.227   7.110  15.367  0.1517 -0.0141 -0.1475
 6518W        W22652  17.200  13.336   4.926 -0.3400 -0.1117 -0.1566
 6519W        W22653  10.413  11.598  14.474  0.1019 -0.1025 -0.3601
 6520W        W22654   4.554   9.766   0.087  0.1603  0.0502  0.1457
 6521W        W22655   1.373  15.162   5.621  0.1831 -0.1755 -0.0479
 6522W        W22656   0.447  10.998  14.321 -0.2679  0.2695  0.1056
 6523W        W22657   9.394  11.162  15.872 -0.0267 -0.1439 -0.2324
 6524W        W22658  11.839  11.178   4.051 -0.2183  0.0060 -0.0511
 6525W        W22659  13.076   6.639   1.849  0.0672  0.2441  0.0902
 6526W        W22660   8.030   8.628  15.319  0.0020 -0.1540 -0.1235
 6527W        W22661  13.072   6.905  12.712 -0.2067  0.1455 -0.2815
 6528W        W22662  12.334   8.933   2.891 -0.1464 -0.4311 -0.5209
 6529W        W22663  14.915   4.027  13.157 -0.0077  0.0221  0.1786
 6530W        W22664   6.329  10.708  15.363  0.0534  0.0024  0.2242
 6531W        W22665  17.304  13.004   3.501 -0.0063 -0.0495  0.1597
 6532W        W22666  15.622  15.564   3.200  0.1870  0.2346  0.0486
 6533W        W22667  15.816   8.417  14.869  0.1611 -0.3321 -0.0476
 6534W        W22668   2.538   0.484   5.490 -0.1658 -0.0727 -0.0548
 6535W        W22669  11.054   1.215   5.570  0.1087  0.1768  0.0965
 6536W        W22670   7.084   6.489  13.629  0.0371  0.0725 -0.0477
 6537W        W22671   8.686  13.788   2.827 -0.2039  0.0603  0.0398
 6538W        W22672   7.303  14.509   2.493  0.3878 -0.2075  0.0388
 6539W        W22673  11.226   8.467   2.482  0.2111 -0.1008 -0.0626
 6540W        W22674  14.575   0.739   0.960 -0.1963  0.0591  0.2034
 6541W        W22675  10.181   9.643  11.868  0.1472 -0.1605 -0.1756
 6542W        W22676  13.017   6.998   1.553 -0.1055 -0.0502 -0.0499
 6543W        W22677  15.756   8.639  14.294 -0.0197 -0.2588  0.1829
 6544W        W22678  10.061  14.058   2.387  0.3219  0.4454  0.0003
 6545W        W22679   0.469   5.584   0.672 -0.0571  0.2573 -0.0170
 6546W        W22680   0.237   0.794  15.218 -0.1712 -0.1569 -0.0448
 6547W        W22681   3.554  10.609  15.908 -0.0818 -0.0017  0.1098
 6548W        W22682   9.055  14.355   3.163 -0.1250 -0.0799  0.1263
 6549W        W22683   6.038   4.094  13.331  0.2726  0.2367  0.4166
 6550W        W22684   7.334   7.725  16.574  0.0071  0.0200  0.1612
 6551W        W22685  15.550   9.654  15.125 -0.3038  0.1106 -0.0387
 6552W        W22686  14.280  16.360  13.089  0.1329  0.3116 -0.0507
 6553W        W22687   4.861   6.571   3.950 -0.1386 -0.0941  0.1667
 6554W        W22688  12.020   5.797   3.341 -0.1287  0.1552 -0.2146
 6555W        W22689   3.429   1.706  13.128  0.2027  0.0264  0.0529
 6556W        W22690  15.712   3.306  16.568  0.1226 -0.2498  0.2575
 6557W        W22691  16.873   6.343  12.227 -0.4539  0.3928  0.2670
 6558W        W22692   5.359   8.618  14.856  0.0688  0.2156 -0.0541
 6559W        W22693   9.141   1.173  16.922  0.1201  0.2459  0.3811
 6560W        W22694  10.124  15.327   3.263  0.0973  0.1582  0.0691
 6561W        W22695   6.091   1.587   3.419  0.0631  0.2515  0.4695
 6562W        W22696   1.668  12.181   2.945  0.0043  0.0197  0.1287
 6563W        W22697   0.853   0.285   6.064  0.1063 -0.0747 -0.0358
 6564W        W22698   5.059   9.853  15.723 -0.3101  0.1171 -0.3332
 6565W        W22699   8.312   2.099  12.820  0.0530 -0.1791  0.1252
 6566W        W22700   6.720  13.184   2.214 -0.0412 -0.1536 -0.1679
 6567W        W22701  17.316  12.294   5.066  0.2295  0.2089 -0.4442
 6568W        W22702  12.446  15.396   2.772 -0.0599 -0.1030  0.1708
 6569W        W22703  16.012   5.792  16.291 -0.1311  0.2832  0.1407
 6570W        W22704  16.240  16.622   3.315 -0.0133 -0.0595  0.1248
 6571W        W22705  14.871   9.269   1.621 -0.0205  0.1926 -0.1864
 6572W        W22706  11.364   2.297   4.242  0.1215 -0.0304  0.0419
 6573W        W22707   7.155   8.145   3.955  0.3487 -0.1236 -0.1297
 6574W        W22708   2.172   3.543  17.034 -0.1149 -0.0196 -0.1373
 6575W        W22709  12.208  10.581   2.867 -0.0919 -0.0455 -0.0990
 6576W        W22710  12.140  17.081  12.639 -0.1078  0.0409 -0.0720
 6577W        W22711   4.589   1.168  15.948 -0.2555 -0.0635 -0.1953
 6578W        W22712  16.553  17.563   5.211  0.0909 -0.1249 -0.0900
 6579W        W22713   9.265  11.480  15.550  0.0764 -0.0813  0.2344
 6580W        W22714   9.555  16.012   1.418  0.2626  0.4335 -0.2894
 6581W        W22715  10.264   9.989  13.415  0.2884 -0.1321 -0.2487
 6582W        W22716   2.592  12.726   2.797  0.0746  0.1544  0.2247
 6583W        W22717   3.912  12.585  16.769 -0.3075 -0.1221  0.0722
 6584W        W22718  14.608  16.133  16.402 -0.0997  0.1653  0.1291
 6585W        W22719   8.628   0.602   0.052  0.3515 -0.0387 -0.0179
 6586W        W22720  15.442   7.947   4.730  0.2614  0.1618  0.0049
 6587W        W22721   3.331   0.312   3.985 -0.2468  0.0688  0.0734
 6588W        W22722   7.853   8.809  12.976  0.0735  0.2312  0.1480
 6589W        W22723  13.020  11.806  14.313  0.1696  0.0757 -0.1340
 6590W        W22724   4.710   4.109   0.656  0.0624 -0.2315  0.0979
 6591W        W22725   1.552   9.620   1.941 -0.0550 -0.0125  0.0170
 6592W        W22726  17.529  14.143   3.247 -0.0360 -0.1834  0.3741
 6593W        W22727   9.229   1.491   0.197 -0.2448 -0.3138 -0.0537
 6594W        W22728   2.078   0.710   0.467 -0.1608 -0.1298 -0.2166
 6595W        W22729  17.401   4.742   1.649  0.0805 -0.3660  0.0392
 6596W        W22730   5.887   2.052  16.459  0.0785  0.1646 -0.4158
 6597W        W22731  11.500   6.056  15.864  0.1508  0.3972  0.0510
 6598W        W22732   0.195  17.584   0.951 -0.1515  0.1589 -0.1404
 6599W        W22733  15.302   5.004  14.102  0.2170 -0.0788  0.1181
 6600W        W22734  17.024   6.992  15.510  0.2114  0.2469  0.0331
 6601W        W22735   7.500   7.066   4.935  0.1157 -0.1080 -0.0938
 6602W        W22736  13.496  15.701  14.342 -0.0517 -0.0480  0.0868
 6603W        W22737  10.275   6.435   0.099  0.1137 -0.1480  0.0717
 6604W        W22738   8.042  14.368  16.782  0.2848  0.1474  0.1971
 6605W        W22739   2.123   5.616  13.116  0.3737 -0.0734 -0.0154
 6606W        W22740  17.602   3.567   3.554 -0.0519  0.1419  0.1467
 6607W        W22741  13.583   6.238  10.570 -0.0187 -0.1195  0.1448
 6608W        W22742  15.986   5.061  12.800  0.0709  0.3104  0.1158
 6609W        W22743   3.674   2.264  13.828 -0.2792 -0.0782  0.2149
 6610W        W22744   6.365  10.875   2.934  0.1239  0.0653  0.1055
 6611W        W22745  14.278  16.039  12.683  0.1391  0.2764 -0.0096
 6612W        W22746   5.956   6.813   0.496 -0.1361  0.0541  0.1503
 6613W        W22747  10.810   8.089  12.271 -0.0538  0.1063 -0.2658
 6614W        W22748  11.848   0.981   1.092  0.1657 -0.1853  0.2867
 6615W        W22749  12.571  13.381   2.555 -0.0181 -0.0436 -0.1038
 6616W        W22750   3.293  11.089  13.489 -0.0927 -0.2530 -0.1281
 6617W        W22751  13.993   6.549  14.684  0.1622  0.3827  0.2272
 6618W        W22752   8.545  12.063  13.241  0.0460 -0.1682  0.0894
 6619W        W22753  14.761   9.155   0.726 -0.1342  0.0471  0.0213
 6620W        W22754   4.527   9.940  13.083 -0.0135 -0.2756  0.1638
 6621W        W22755   3.158   7.326  12.821  0.0184 -0.1408 -0.1937
 6622W        W22756  15.915   0.788   0.643 -0.0748 -0.0361 -0.0535
 6623W        W22757   7.534   6.857   4.482  0.0668  0.2376 -0.2268
 6624W        W22758  13.782   8.536   3.125  0.3975 -0.1896  0.2224
 6625W        W22759  15.056   8.218   4.948 -0.0247 -0.0213 -0.2936
 6626W        W22760  10.613  14.538  15.926 -0.1048  0.1537 -0.1294
 6627W        W22761  15.460  10.620  13.701  0.0112  0.1253 -0.0104
 6628W        W22762  17.312   6.979  13.945  0.1209 -0.0760  0.1664
 6629W        W22763   0.656   5.975  14.889  0.0765  0.0299  0.2958
 6630W        W22764  11.390  14.573  12.798  0.1778  0.2018 -0.2760
 6631W        W22765   2.063   0.458   5.822  0.2953 -0.1869 -0.0941
 6632W        W22766  15.089  10.348  12.390 -0.0052 -0.0484 -0.0415
 6633W        W22767  13.833   6.289   2.788  0.1522 -0.2045 -0.2272
 6634W        W22768  17.253   8.871  15.903 -0.1864  0.0233  0.1337
 6635W        W22769  15.739  12.408   5.171  0.1010  0.3074 -0.2534
 6636W        W22770  16.620  11.263  12.447  0.0936 -0.1656 -0.0949
 6637W        W22771   1.814   4.238  15.102 -0.1381 -0.2437 -0.2330
 6638W        W22772   6.382   1.940  16.697 -0.3754  0.1434 -0.0948
 6639W        W22773  16.739  14.899  14.107 -0.1539 -0.0545  0.1238
 6640W        W22774   8.487   0.560   5.014  0.1708  0.1470  0.2959
 6641W        W22775   5.575   8.286  14.327  0.2108  0.0803 -0.0576
 6642W        W22776  16.727  16.909   3.411  0.1602  0.2379 -0.0374
 6643W        W22777   5.906   9.270   1.854  0.2480  0.2469  0.1873
 6644W        W22778  15.851   2.008   3.297 -0.0428  0.0379 -0.2272
 6645W        W22779   8.847   8.356   2.030 -0.2133  0.0640  0.0299
 6646W        W22780  11.949   5.549  13.495 -0.0062  0.0081  0.1342
 6647W        W22781   2.263  15.580  12.796  0.0570 -0.0236  0.4099
 6648W        W22782  16.127  16.282  12.472 -0.1334  0.0395  0.0560
 6649W        W22783   9.653   2.469  12.592 -0.2046  0.3022 -0.0339
 6650W        W22784  15.836   1.790  16.220 -0.0333  0.1415  0.2147
 6651W        W22785  10.698  10.581   1.747 -0.1461  0.1583 -0.0452
 6652W        W22786  10.499  12.091  13.054 -0.1178  0.0863  0.3457
 6653W        W22787   7.997  13.862   0.109  0.0051 -0.1889  0.1410
 6654W        W22788  16.269   7.129  16.612  0.0588 -0.0880 -0.1034
 6655W        W22789  15.430   1.528   0.973 -0.0768 -0.2574 -0.2575
 6656W        W22790   7.536  13.787  13.065  0.1762 -0.0174 -0.1548
 6657W        W22791  14.441  11.397  13.423 -0.0487 -0.0453 -0.0738
 6658W        W22792  13.076  14.839   2.577 -0.1866  0.1164  0.0110
 6659W        W22793   2.269  11.590   4.087 -0.0249  0.0553 -0.2490
 6660W        W22794  12.567   9.351  16.344  0.0676  0.2277  0.1188
 6661W        W22795  10.992  11.468   4.630  0.1459 -0.0133 -0.0023
 6662W        W22796   3.314   8.305   3.289  0.2771  0.0591 -0.1471
 6663W        W22797   2.687   8.797  12.403  0.2463 -0.1147  0.2898
 6664W        W22798  16.384  10.632   2.588  0.0319 -0.2760  0.3870
 6665W        W22799  17.382  13.621  16.758 -0.3324  0.0835 -0.4133
 6666W        W22800  10.153   5.298  12.726 -0.0171 -0.0238 -0.0404
 6667W        W22801  10.368   6.778   0.504 -0.5025 -0.2137 -0.0708
 6668W        W22802   8.413   2.513  11.988  0.2450  0.1607  0.0280
 6669W        W22803   7.787   5.585  12.305 -0.0205  0.2919 -0.4523
 6670W        W22804   6.949  11.454  13.264  0.2486  0.0923  0.3401
 6671W        W22805   0.492  10.259  15.501 -0.0140  0.1533  0.2689
 6672W        W22806   1.920   0.817  14.646 -0.0723  0.0942  0.0214
 6673W        W22807  12.235   4.391  15.594 -0.0272  0.0632 -0.0814
 6674W        W22808   1.259   4.873   0.829 -0.4056 -0.3268  0.1260
 6675W        W22809   7.746   4.152  14.567  0.0531 -0.2416  0.0537
 6676W        W22810   5.906  16.470   3.622 -0.1074 -0.2340  0.1555
 6677W        W22811  17.310   4.716   5.151  0.0361 -0.0600 -0.0546
 6678W        W22812  17.522  15.500  14.069 -0.0806 -0.1728  0.1910
 6679W        W22813   7.931  17.265   3.555  0.0555  0.0765  0.1315
 6680W        W22814  15.299   6.511   6.071 -0.3047  0.0334  0.1196
 6681W        W22815  14.500   7.651   5.456  0.0019  0.0110  0.1358
 6682W        W22816   9.247   9.367   1.958 -0.0909  0.0755 -0.2198
 6683W        W22817   2.586   5.766   1.176 -0.0550  0.2225  0.0762
 6684W        W22818   7.155  14.378  11.986 -0.2397  0.0940 -0.0191
 6685W        W22819  10.415   4.458  15.622 -0.1176 -0.4002 -0.0098
 6686W        W22820   7.102  12.617  14.246 -0.1839  0.0992  0.1621
 6687W        W22821   5.700   9.602   1.434 -0.2751  0.0820  0.2492
 6688W        W22822  13.081   1.202  14.798  0.3871  0.1066  0.2241
 6689W        W22823  11.946   4.707   0.211 -0.3682  0.1048 -0.0659
 6690W        W22824   3.398   7.938   1.211  0.1026  0.1043 -0.0953
 6691W        W22825  14.869  13.887  16.154 -0.1335  0.0763  0.2201
 6692W        W22826  15.949   9.433   1.198  0.0939 -0.2318  0.0239
 6693W        W22827   1.696   3.566   1.441 -0.0939 -0.2020 -0.0193
 6694W        W22828  15.244   8.201  14.291  0.0935 -0.0971  0.0905
 6695W        W22829  12.741   5.877  16.379 -0.0685 -0.0044 -0.0191
 6696W        W22830   0.479  16.110   0.940 -0.1164  0.1657 -0.1959
 6697W        W22831   5.553   2.640  12.737 -0.0899 -0.1380  0.1049
 6698W        W22832  14.202   3.497  12.220  0.4074 -0.1478 -0.1488
 6699W        W22833   3.127   4.427  16.498 -0.1239 -0.0614  0.0452
 6700W        W22834   8.793   8.729   0.880  0.1156  0.1452  0.0218
 6701W        W22835   1.381  10.290  12.552 -0.0464  0.1621 -0.1162
 6702W        W22836  16.078  14.165   3.931  0.1435 -0.2718 -0.1236
 6703W        W22837  15.313  17.487   0.912 -0.0783  0.0456  0.2367
 6704W        W22838   7.169   1.305   1.639  0.2152  0.2610 -0.0883
 6705W        W22839  14.785   9.093   4.689 -0.0167  0.0795 -0.0568
 6706W        W22840   2.435  12.595  15.975  0.0901  0.0357 -0.0295
 6707W        W22841   9.201   3.617  16.511  0.1442 -0.2330  0.2413
 6708W        W22842   1.898  16.506   1.250  0.1343  0.0324 -0.0545
 6709W        W22843  13.099  12.037   0.082 -0.0637  0.2812 -0.3073
 6710W        W22844   3.530   5.867   2.255 -0.0573 -0.2977  0.2589
 6711W        W22845   2.498  10.389   0.902  0.1516 -0.1259  0.0302
 6712W        W22846   3.498   6.878   0.171  0.0287  0.1061  0.2491
 6713W        W22847   2.246   7.361   3.900 -0.2078 -0.0640  0.0341
 6714W        W22848   7.406  15.846   3.417 -0.0317  0.0692 -0.0449
 6715W        W22849   3.689   7.099   4.999  0.3897 -0.2239 -0.1884
 6716W        W22850   4.866  11.346  13.905 -0.0729  0.3910 -0.0101
 6717W        W22851   6.593   4.773  12.922 -0.1754 -0.1540 -0.1372
 6718W        W22852  10.298  15.002   1.762  0.0359  0.0290 -0.0948
 6719W        W22853  17.341  11.562  17.092  0.1347 -0.3656 -0.1834
 6720W        W22854  10.630   3.590  13.954 -0.1756 -0.1532 -0.2255
 6721W        W22855  11.680   6.364  11.177  0.0024 -0.0162 -0.1590
 6722W        W22856  14.515   6.235  15.408 -0.0370  0.2293  0.0395
 6723W        W22857  17.470   3.188  16.430 -0.0632 -0.2498  0.0735
 6724W        W22858  13.039   8.281   3.187 -0.0188  0.1654 -0.1505
 6725W        W22859   9.859   5.562  15.007 -0.0729  0.1906 -0.0100
 6726W        W22860   1.815   9.800  13.184 -0.2418 -0.1211  0.2272
 6727W        W22861   2.569  15.291  16.681  0.0765 -0.3542  0.0491
 6728W        W22862   0.334  14.458  16.186  0.0262 -0.0576  0.1825
 6729W        W22863   3.875  13.582   0.594  0.3762  0.3205  0.2635
 6730W        W22864   7.785   5.959   2.421 -0.0801 -0.2741 -0.0545
 6731W        W22865  13.272  10.817  15.886 -0.0889 -0.2555  0.2669
 6732W        W22866   8.190   4.233  13.035  0.4134 -0.0307 -0.1441
 6733W        W22867   8.156   7.270  16.751 -0.0233  0.1748  0.0208
 6734W        W22868  13.124   4.917   0.754  0.1755 -0.2531 -0.3453
 6735W        W22869   0.058   6.095  15.920 -0.2238 -0.0350 -0.0046
 6736W        W22870   8.748   2.199   5.990 -0.0860  0.0789 -0.2064
 6737W        W22871  11.156  14.924   4.003 -0.1771 -0.2964 -0.0543
 6738W        W22872   3.456  16.011  12.301 -0.0520 -0.4704 -0.0329
 6739W        W22873  17.385  15.794  15.748  0.1124  0.0165  0.1061
 6740W        W22874   2.895  12.118   4.916  0.0141  0.0591 -0.1211
 6741W        W22875   5.574  13.661   0.635 -0.0669 -0.1697  0.1176
 6742W        W22876  11.300  15.079  12.982  0.1583 -0.1216 -0.3133
 6743W        W22877   2.113   0.793  12.965  0.0405 -0.2783 -0.0959
 6744W        W22878  14.378   8.491   2.347 -0.0116 -0.0526 -0.0073
 6745W        W22879   8.880   5.320   2.382 -0.2897  0.0228 -0.0698
 6746W        W22880  14.587   7.099  15.312 -0.0537 -0.2385 -0.0037
 6747W        W22881  13.068  12.884  17.085 -0.0454 -0.3387 -0.1907
 6748W        W22882   7.312  14.993  15.326  0.1340 -0.0487  0.0566
 6749W        W22883  11.399  14.827  12.389 -0.0078 -0.1492 -0.0972
 6750W        W22884   5.830   1.642  13.421 -0.0598  0.0398  0.2415
 6751W        W22885  17.224   6.807  16.433  0.0035  0.1704 -0.1119
 6752W        W22886  13.221   7.054  15.194  0.0365 -0.1554 -0.0841
 6753W        W22887   9.567  12.848   4.352  0.0762  0.2327  0.2256
 6754W        W22888   7.147   8.243   5.540  0.0767 -0.0855 -0.0040
 6755W        W22889   7.052   4.211   0.457  0.3771  0.0945  0.1007
 6756W        W22890   6.828  13.987  11.946  0.1458 -0.1841 -0.0967
 6757W        W22891   2.500   1.542  16.689  0.3407  0.0171 -0.3381
 6758W        W22892  12.347   9.468   1.132 -0.2407 -0.1713  0.2453
 6759W        W22893  17.446   0.158  12.723  0.2463 -0.0077 -0.1417
 6760W        W22894   2.236  17.452   0.624  0.1359 -0.0571  0.1090
 6761W        W22895   4.526   9.904   3.569 -0.4084 -0.1995  0.0104
 6762W        W22896  15.486  15.605   4.621  0.1641  0.0152 -0.3918
 6763W        W22897   6.174   5.075  15.642  0.1061  0.0676  0.2556
 6764W        W22898  12.363  12.079   0.374  0.2030 -0.0496 -0.1210
 6765W        W22899   9.413   7.413  12.775 -0.0600 -0.2017 -0.1152
 6766W        W22900   1.579   9.107   5.925  0.1314  0.1447 -0.2155
 6767W        W22901   2.128   7.011   2.062 -0.2315 -0.0101 -0.1923
 6768W        W22902  13.967   2.816   3.793 -0.1776  0.2568 -0.0763
 6769W        W22903   9.355   5.775  13.105 -0.1050  0.1800 -0.1744
 6770W        W22904   6.291  12.534   5.518  0.1316 -0.2162  0.2588
 6771W        W22905   6.633  16.689  11.797 -0.2425 -0.0974 -0.2160
 6772W        W22906  11.359   1.926  13.257 -0.0987  0.0081 -0.0117
 6773W        W22907   2.010  13.903   3.384 -0.0692 -0.2082  0.3374
 6774W        W22908   5.476   8.663   2.485  0.3957 -0.0950 -0.1610
 6775W        W22909   5.234  14.620  11.801  0.1178  0.0490 -0.0799
 6776W        W22910   1.923   7.138  14.006 -0.1577 -0.0677  0.4419
 6777W        W22911  14.044   4.082  14.987  0.1785 -0.1768 -0.0220
 6778W        W22912  10.768   6.805  15.497  0.1610 -0.1910  0.0770
 6779W        W22913  10.608   2.414  12.811  0.0058  0.0277  0.1691
 6780W        W22914   6.047  16.793   3.196  0.3329 -0.1460 -0.1642
 6781W        W22915   9.311  15.687  12.271 -0.3759 -0.4043 -0.0080
 6782W        W22916   0.036   6.180  14.369  0.3351 -0.2244  0.1772
 6783W        W22917  15.444  11.694   4.794 -0.2611  0.1614 -0.1416
 6784W        W22918   6.870   1.081  14.341  0.2330  0.1272  0.1312
 6785W        W22919   9.619  11.627   5.189  0.1436 -0.1005  0.0465
 6786W        W22920   0.003  13.667   4.928 -0.2365  0.1039 -0.1884
 6787W        W22921   4.648   1.364   3.964  0.1570  0.1902  0.3003
 6788W        W22922   5.937   3.275   4.753 -0.0633  0.0800 -0.1034
 6789W        W22923   2.699   2.612  12.430 -0.0279 -0.2036 -0.1117
 6790W        W22924   6.083   8.779   1.781 -0.0147 -0.0003  0.0983
 6791W        W22925   8.456  17.638   5.947 -0.1900 -0.0848  0.3924
 6792W        W22926   4.357   1.402   0.565  0.0414  0.2195  0.1092
 6793W        W22927  11.952   8.210   3.486 -0.1712 -0.0269  0.1653
 6794W        W22928  15.105   1.892   4.361  0.0528  0.0748  0.0278
 6795W        W22929   7.637   7.189  12.289  0.1413  0.0816 -0.1087
 6796W        W22930   7.017   4.829   0.907  0.0234 -0.3174  0.2083
 6797W        W22931  17.451   5.003  15.436  0.1443 -0.1214  0.1906
 6798W        W22932  15.732   3.213   4.045 -0.0900  0.2891  0.3417
 6799W        W22933   5.406   0.707  16.143  0.0024 -0.0650  0.0852
 6800W        W22934  13.717   8.523   4.965 -0.0843  0.2086  0.1813
 6801W        W22935   3.250  13.166  14.295  0.2766  0.1135  0.1527
 6802W        W22936  14.610  10.958  14.634  0.0290 -0.0477 -0.0138
 6803W        W22937  11.866   5.323  12.015  0.0143  0.2975 -0.3415
 6804W        W22938   3.740   9.464  10.430  0.1605  0.2679  0.2367
 6805W        W22939  12.663  16.264  14.736 -0.2058  0.1917 -0.1503
 6806W        W22940  10.209  10.233   0.890  0.0395 -0.3368  0.0379
 6807W        W22941   4.434  16.101  11.467  0.0760  0.3382  0.2109
 6808W        W22942  14.895  13.301  16.030  0.2520  0.0077 -0.2412
 6809W        W22943   9.386  10.707  14.176 -0.2609 -0.1352  0.0290
 6810W        W22944   4.269   4.467   5.872  0.0372 -0.1272  0.2474
 6811W        W22945  12.242   7.264  11.461  0.0988  0.0216  0.0655
 6812W        W22946   3.330   8.430  15.765 -0.0898 -0.3510  0.0610
 6813W        W22947  15.472   6.203  11.428  0.0245 -0.0212  0.0321
 6814W        W22948  14.542  17.133  15.608  0.1724 -0.0786  0.2697
 6815W        W22949   1.227   0.862  11.567 -0.2796 -0.2071  0.0428
 6816W        W22950   9.672   6.990   4.174 -0.2599  0.0305  0.4763
 6817W        W22951   4.782   2.266   0.891  0.0393 -0.3213  0.1924
 6818W        W22952   7.418  16.376   3.585 -0.1808 -0.0051 -0.2980
 6819W        W22953   5.331   4.917   4.591 -0.1499 -0.0838  0.0254
 6820W        W22954  12.662   1.667  16.915 -0.0562 -0.0278 -0.1429
 6821W        W22955   9.660   8.175  16.181 -0.0118 -0.0315 -0.2363
 6822W        W22956   0.857  15.708  13.868  0.3305  0.3261 -0.0150
 6823W        W22957  16.325  14.804   4.757 -0.0970  0.1075 -0.0642
 6824W        W22958  14.781  10.069  15.985  0.1176  0.1439 -0.0041
 6825W        W22959   9.715  15.945   2.821  0.0518  0.0843 -0.0791
 6826W        W22960  16.364  13.743   5.097 -0.5026  0.1831 -0.0564
 6827W        W22961   6.612  15.884   3.345 -0.1129 -0.3219 -0.0968
 6828W        W22962   0.567  17.318   2.168 -0.1095  0.0986  0.2706
 6829W        W22963  13.932   1.351  13.060  0.2197 -0.0848 -0.2081
 6830W        W22964   5.978  16.088  12.801 -0.3425  0.2862  0.0767
 6831W        W22965  14.735  14.759  12.061 -0.0778  0.1738  0.0869
 6832W        W22966  13.364   0.768  13.322  0.2181  0.1497 -0.0259
 6833W        W22967   1.995   5.820  12.639 -0.2030  0.2881  0.1973
 6834W        W22968   8.103   3.939   2.227  0.0462 -0.0264  0.0167
 6835W        W22969  10.514  10.432   1.246  0.1277 -0.0574  0.2350
 6836W        W22970  10.414  14.389  16.348 -0.1089 -0.1946 -0.0386
 6837W        W22971   1.609   9.744  11.389 -0.0268  0.0512 -0.1242
 6838W        W22972   0.961  14.352   4.403  0.5155 -0.0056  0.1161
 6839W        W22973  13.564   7.946  13.549  0.1432 -0.0358  0.0860
 6840W        W22974   0.352   0.201   5.669 -0.0927  0.0803 -0.1708
 6841W        W22975   0.993  16.570   3.551  0.0871 -0.1049 -0.3119
 6842W        W22976  11.917  12.330   3.586  0.0651  0.1406  0.2064
 6843W        W22977   0.989   8.385  11.746  0.1382 -0.0600  0.1318
 6844W        W22978   9.740   5.869  14.021  0.0840  0.2302 -0.2810
 6845W        W22979   5.447  15.247   3.447 -0.2204 -0.1010  0.0059
 6846W        W22980   0.220  17.450  15.042 -0.2723 -0.1094 -0.1399
 6847W        W22981   2.906  17.187   4.611  0.2954  0.2089 -0.0312
 6848W        W22982  11.535  15.381   5.880 -0.0178  0.1232 -0.2418
 6849W        W22983   3.872  10.201   3.939 -0.1046  0.0490  0.0120
 6850W        W22984   9.789  13.885  13.698  0.1014  0.0147 -0.1185
 6851W        W22985   4.003   8.513  12.811  0.2733  0.0701 -0.0387
 6852W        W22986  14.805   3.070   1.009  0.0383  0.1120  0.0055
 6853W        W22987  13.591   4.114  15.985  0.2346  0.2090  0.0538
 6854W        W22988   5.915   4.252   5.684 -0.0585  0.3000  0.3343
 6855W        W22989  11.948   7.833   3.824  0.0087 -0.0601  0.1101
 6856W        W22990   4.813  17.137  16.121  0.1078 -0.1109 -0.2749
 6857W        W22991   3.646   7.475   2.928  0.1165  0.3520  0.2457
 6858W        W22992  11.882  17.212  11.794  0.1148  0.0628 -0.0035
 6859W        W22993  10.280   8.950   3.526  0.0232  0.0436 -0.1734
 6860W        W22994   5.629  11.986   6.036  0.1307  0.0176 -0.0637
 6861W        W22995  10.139   5.249  11.740 -0.0948 -0.0837 -0.2410
 6862W        W22996   9.674   3.248  12.112 -0.3067  0.1024 -0.1942
 6863W        W22997   6.956  14.575   3.228 -0.2994  0.0495  0.2627
 6864W        W22998   6.107   7.048  15.160 -0.1622  0.1498  0.0761
 6865W        W22999  13.539   9.066   3.773  0.1120 -0.0951  0.0064
 6866W        W23000  12.362   3.705  16.694 -0.2179  0.1476 -0.1787
 6867W        W23001   5.574  15.847  14.849  0.1889 -0.1466  0.0274
 6868W        W23002  15.785  15.123  12.179  0.0891 -0.0753  0.4587
 6869W        W23003   8.798  17.332   4.971 -0.0692  0.1758  0.1914
 6870W        W23004   0.501  16.653  12.761 -0.0533 -0.1313  0.0644
 6871W        W23005   5.241  13.229  16.424  0.0197  0.0309  0.0472
 6872W        W23006   1.715   3.374   4.981  0.0100  0.1480  0.1965
 6873W        W23007  16.998  11.050   5.315  0.1314  0.1810  0.3510
 6874W        W23008  14.644   8.971   3.497  0.2270  0.1721  0.0189
 6875W        W23009   3.843   7.215   4.527 -0.3137  0.1075  0.0690
 6876W        W23010   4.319   1.680   5.047 -0.1884 -0.0631  0.1044
 6877W        W23011   0.715  14.555  14.754  0.0732 -0.1082 -0.1491
 6878W        W23012   0.347  13.226  15.641  0.1593  0.0495  0.0441
 6879W        W23013  13.579  15.654   1.255 -0.0453 -0.2103  0.2468
 6880W        W23014   0.362   8.002   1.123  0.0357 -0.1606 -0.0479
 6881W        W23015  13.120   3.433   3.332  0.1341 -0.3558  0.0107
 6882W        W23016   3.926  13.582   5.735 -0.0778 -0.0883 -0.1432
 6883W        W23017  14.837   5.314   2.595  0.2359  0.0364 -0.1674
 6884W        W23018   6.995   9.092   2.442 -0.0300  0.2055  0.1815
 6885W        W23019   0.202   6.392   0.227  0.0780  0.0729  0.0970
 6886W        W23020  10.724  11.738  13.426 -0.1321  0.0098 -0.2958
 6887W        W23021   1.159   6.549  13.412 -0.4140 -0.2317 -0.0039
 6888W        W23022  12.072   3.344  11.391  0.0772 -0.3678 -0.2023
 6889W        W23023  11.039  10.059  15.951  0.1558 -0.3205  0.0566
 6890W        W23024  12.603   3.853   5.244  0.0178  0.1553 -0.0633
 6891W        W23025   8.721   6.097  13.305 -0.1022 -0.4174  0.1916
 6892W        W23026   2.589  11.466   5.799  0.0205 -0.2525  0.0207
 6893W        W23027  17.653   6.027  13.827  0.3784  0.2232 -0.1731
 6894W        W23028   5.460  10.271  16.267 -0.1628  0.1216  0.0219
 6895W        W23029   6.313   2.866   2.365 -0.0102  0.1365  0.0088
 6896W        W23030   1.497  10.950   4.377 -0.0004  0.1418 -0.0333
 6897W        W23031  17.136   7.102  16.074 -0.1807 -0.0333 -0.0362
 6898W        W23032   9.993   3.149   4.815 -0.1740 -0.0590  0.0676
 6899W        W23033  11.580  11.124  17.027  0.1974  0.1331  0.2290
 6900W        W23034  15.364   2.439  16.786  0.0930 -0.0385 -0.1318
 6901W        W23035   4.384  11.596   4.994  0.0091 -0.0464 -0.0972
 6902W        W23036   5.309  11.640   4.093  0.2355  0.1912 -0.1410
 6903W        W23037  15.469   8.196   0.094  0.1224 -0.0043  0.0650
 6904W        W23038   9.859   8.235   4.206 -0.1142  0.0753  0.1381
 6905W        W23039   8.257   6.316  12.191  0.0274 -0.2871  0.2387
 6906W        W23040   9.088  13.291  15.814  0.2699 -0.1109 -0.0326
 6907W        W23041  16.321   5.824  14.462  0.2360 -0.2433 -0.0938
 6908W        W23042   3.520   8.143  11.537  0.0569 -0.2627 -0.0058
 6909W        W23043   4.756   1.847   4.176  0.0142  0.1836  0.1880
 6910W        W23044   8.906  17.361  12.655 -0.1866 -0.1538 -0.1141
 6911W        W23045   6.925  14.119   5.152 -0.1172  0.3708  0.0431
 6912W        W23046  17.093   6.442  12.894 -0.0297  0.0077  0.1317
 6913W        W23047   0.093   7.326  13.937 -0.2202 -0.0402  0.1391
 6914W        W23048  13.982   0.946   5.963  0.0306 -0.0469 -0.0465
 6915W        W23049  11.320   2.179  13.705 -0.2262  0.1502  0.0347
 6916W        W23050   4.982   6.028  13.834 -0.0969  0.2054  0.0762
 6917W        W23051  12.895  10.797  12.412 -0.0560 -0.1452 -0.0030
 6918W        W23052   9.080  17.669  15.338  0.0697 -0.2699  0.1496
 6919W        W23053  14.611   0.917   0.455 -0.1019  0.2732 -0.0970
 6920W        W23054  15.530   5.478  16.152  0.4442  0.1876  0.2139
 6921W        W23055  13.994  11.550  14.269  0.3639 -0.0562 -0.1811
 6922W        W23056  11.006  16.537   3.366 -0.0217  0.0526  0.1672
 6923W        W23057  15.187   1.121   3.429 -0.3391  0.0121  0.0233
 6924W        W23058   6.989  14.986   1.317 -0.0292  0.0375 -0.4266
 6925W        W23059  17.285   3.801   6.139 -0.0348 -0.0032 -0.5255
 6926W        W23060  11.955  12.152  15.938 -0.1458  0.3345 -0.2976
 6927W        W23061   3.258   1.984  14.416  0.1896  0.1505 -0.0275
 6928W        W23062  11.029   1.272   0.887 -0.2018  0.2412  0.0273
 6929W        W23063   5.118   9.218   0.956 -0.1484  0.0850 -0.2911
 6930W        W23064  12.525  14.252  16.980  0.0453 -0.0323  0.0683
 6931W        W23065  16.677   3.620  12.448  0.5671  0.1742  0.1627
 6932W        W23066   1.817  12.719   2.095 -0.1942 -0.0110  0.0299
 6933W        W23067   9.451  11.362   4.384  0.0402 -0.1241 -0.2696
 6934W        W23068   0.662   7.319  17.125 -0.2757  0.1009 -0.0896
 6935W        W23069   6.615   0.579   1.951 -0.1703 -0.2525  0.0591
 6936W        W23070   2.845  14.835  13.803 -0.0397 -0.0118 -0.1545
 6937W        W23071  15.442   8.157  14.769 -0.1297  0.0326  0.0376
 6938W        W23072  13.765   1.081   0.038  0.0921  0.2407 -0.1512
 6939W        W23073  15.930   8.742  15.988  0.0951  0.2180  0.0131
 6940W        W23074  14.602   3.667  13.506  0.0569 -0.0422 -0.1148
 6941W        W23075  10.836  16.099   4.187 -0.0055 -0.0152 -0.0765
 6942W        W23076  17.561   4.821  13.590 -0.0083 -0.1277 -0.0884
 6943W        W23077   0.952  16.535  16.356 -0.0442  0.0539 -0.2879
 6944W        W23078   5.461   9.239   5.374  0.1106  0.0568  0.3012
 6945W        W23079  15.588   6.952   0.633 -0.0313 -0.0914 -0.0876
 6946W        W23080   1.990  17.209   5.651 -0.0154 -0.1904  0.0236
 6947W        W23081  14.174  12.721   5.799 -0.1739  0.0383 -0.1743
 6948W        W23082  16.317   5.981   0.060  0.0634  0.1699  0.3862
 6949W        W23083   8.908  13.322   2.901  0.0503 -0.0713 -0.1497
 6950W        W23084   9.533   3.309   6.009 -0.1797 -0.2698  0.1034
 6951W        W23085  15.038  15.889  16.479  0.2916 -0.0926  0.1411
 6952W        W23086   7.397  11.125   2.473  0.1434  0.0482  0.1581
 6953W        W23087  11.951   4.443   3.198  0.2234 -0.0006  0.2724
 6954W        W23088   9.074  12.368   3.547  0.0029 -0.2413 -0.3232
 6955W        W23089  16.280  16.700   2.532  0.0246 -0.0333 -0.0636
 6956W        W23090   2.975   9.061   5.517 -0.3386 -0.1622  0.2181
 6957W        W23091  16.841   6.500   5.080 -0.0060  0.2453 -0.0793
 6958W        W23092   1.335  11.873  13.709  0.0741 -0.0361  0.0813
 6959W        W23093   5.380   4.904   0.469 -0.0202  0.1014 -0.1433
 6960W        W23094   3.839   2.322  12.309 -0.1130 -0.2173  0.1239
 6961W        W23095   0.567   8.525  15.343 -0.2830 -0.0168 -0.1398
 6962W        W23096   7.044  13.657   3.621  0.0558  0.0148 -0.0125
 6963W        W23097   0.012   9.403   5.164  0.2281  0.0385 -0.0545
 6964W        W23098   5.513   3.394   2.124  0.1422 -0.1195 -0.0707
 6965W        W23099   3.300  14.286  12.087  0.2285  0.0744 -0.0599
 6966W        W23100   8.599   3.712  15.672 -0.1168 -0.0463 -0.0034
 6967W        W23101   8.944  16.917  12.885  0.0126 -0.1735 -0.0812
 6968W        W23102  13.484   8.283   1.747  0.0067  0.0177  0.2413
 6969W        W23103  10.018   2.459  15.882  0.0013  0.2281  0.2487
 6970W        W23104   9.105  16.029  14.648  0.2040  0.2139 -0.0577
 6971W        W23105  15.521  13.300  12.878 -0.1648 -0.1777  0.3201
 6972W        W23106   5.992  16.656  17.007 -0.1275  0.0288 -0.1678
 6973W        W23107   6.198   5.183   4.460  0.2795 -0.0784  0.1558
 6974W        W23108   8.795   3.361  14.063 -0.2629 -0.0287 -0.1212
 6975W        W23109   9.628  11.706  15.244 -0.2518 -0.2594  0.0890
 6976W        W23110   4.105  16.222   2.737 -0.0970 -0.2424 -0.0626
 6977W        W23111   4.089  12.302  13.399  0.1482  0.2109 -0.0906
 6978W        W23112  13.523  10.082  15.072 -0.0390 -0.1988  0.1384
 6979W        W23113   0.370   1.830   1.563  0.0561  0.1243  0.4887
 6980W        W23114   9.933   3.646  13.427  0.1285 -0.1420  0.1105
 6981W        W23115   7.618   5.080   0.452 -0.0962  0.3019  0.1615
 6982W        W23116   3.357  11.545  15.507 -0.2101 -0.1009 -0.0757
 6983W        W23117  12.250   6.275  14.902 -0.1049  0.1036  0.1013
 6984W        W23118  15.088  15.305   3.246 -0.0003 -0.2598  0.2821
 6985W        W23119  10.650  16.203  16.376 -0.2444 -0.0141  0.0818
 6986W        W23120   4.238  12.906  15.520  0.1132 -0.0849  0.1351
 6987W        W23121   6.171  10.864   2.031  0.0364 -0.3272  0.1568
 6988W        W23122  11.502  12.423  15.955 -0.1805 -0.0040 -0.2937
 6989W        W23123  16.029   5.862  16.836 -0.0567  0.0621 -0.1520
 6990W        W23124   0.735   5.291   4.185  0.0946 -0.0958 -0.0060
 6991W        W23125   2.684  12.577  14.303 -0.0465 -0.1308  0.3246
 6992W        W23126   9.643   3.432  12.981 -0.1557  0.2542 -0.1970
 6993W        W23127  16.454   2.848   5.860  0.2346 -0.0281  0.0698
 6994W        W23128  10.322  13.662  15.981  0.1461 -0.1169  0.1697
 6995W        W23129   1.725  13.023   4.395 -0.0152  0.0517  0.1942
 6996W        W23130  12.590   3.016   5.522 -0.1217 -0.1656 -0.3364
 6997W        W23131  14.516   5.842   5.316 -0.3112  0.1579 -0.2029
 6998W        W23132   3.297  14.693  16.047 -0.0489  0.0495  0.0596
 6999W        W23133   1.916  12.082   5.018 -0.0797  0.0474  0.2515
 7000W        W23134  14.182  14.472   4.267  0.0564  0.3527 -0.1460
 7001W        W23135  16.218  16.674   6.040 -0.0204 -0.1475  0.2946
 7002W        W23136  13.188  17.600   0.759 -0.0495 -0.2133 -0.1856
 7003W        W23137   2.624   3.491  15.612  0.2743  0.0142  0.2040
 7004W        W23138   4.761  17.007   4.823 -0.0942 -0.1767  0.0775
 7005W        W23139  15.598  12.814  12.928  0.1423  0.1312  0.2296
 7006W        W23140   5.304   3.942  12.158  0.0616 -0.2890 -0.1204
 7007W        W23141   2.998   6.542  13.733  0.1132 -0.1250  0.0743
 7008W        W23142   8.766   4.326   0.415  0.1379  0.0182 -0.1010
 7009W        W23143   2.727  14.243   4.398 -0.0008  0.0665  0.2279
 7010W        W23144  12.742   6.780  16.039  0.0344 -0.0869 -0.0772
 7011W        W23145   8.771   8.126   4.356  0.0298  0.3511 -0.0380
 7012W        W23146  13.020  13.525  15.325 -0.1048 -0.0860  0.0799
 7013W        W23147  11.210  14.391   1.874  0.1253 -0.2078 -0.1013
 7014W        W23148   0.059  11.709   4.077  0.1256 -0.2166 -0.0434
 7015W        W23149  14.582   2.301  13.886  0.1854  0.1254 -0.0139
 7016W        W23150   0.082   0.536  14.842  0.1208 -0.1077  0.0960
 7017W        W23151  11.654  10.218   5.107  0.0487 -0.2782 -0.0151
 7018W        W23152   2.230  11.596   0.849 -0.0829  0.1024  0.0371
 7019W        W23153   6.677  16.156  15.816 -0.1224  0.0149 -0.1615
 7020W        W23154   7.480   0.492   1.558  0.0665 -0.1987  0.1520
 7021W        W23155   1.731  13.086  12.918 -0.1531  0.1256 -0.0154
 7022W        W23156   3.820  10.104   5.521 -0.1221 -0.0489  0.2464
 7023W        W23157  14.335   2.647   0.089 -0.2017 -0.1001  0.1522
 7024W        W23158  15.728  14.237   2.149  0.0091 -0.0948  0.0145
 7025W        W23159  11.261   0.509   0.533 -0.1854 -0.1124  0.1746
 7026W        W23160   5.348  14.816   4.352 -0.2616  0.1179 -0.2596
 7027W        W23161  15.053   6.938   4.937  0.2015  0.1698  0.1518
 7028W        W23162  10.472  12.832  12.242 -0.1886 -0.2304  0.3019
 7029W        W23163  14.570  16.729  13.729  0.0854 -0.0265  0.2139
 7030W        W23164   7.484  11.282  14.152  0.0569 -0.1924  0.3523
 7031W        W23165  13.528   0.424   3.865 -0.0905 -0.2347  0.1673
 7032W        W23166   2.437   5.790  11.996  0.0631 -0.2806  0.2483
 7033W        W23167   1.043   2.641  15.901 -0.0093 -0.0733  0.1339
 7034W        W23168  17.016   2.213  15.332 -0.0176  0.2068 -0.2719
 7035W        W23169  14.856   8.030   0.618  0.1093  0.0906  0.2189
 7036W        W23170   4.031   8.390   3.388  0.1233  0.3179  0.2127
 7037W        W23171   8.354   7.317   2.777  0.2236 -0.5746 -0.3702
 7038W        W23172   2.214   2.859  15.077 -0.0215  0.1565 -0.1785
 7039W        W23173   8.898   0.365   2.820  0.2024 -0.1214 -0.0730
 7040W        W23174   5.998   1.467  15.832  0.0641  0.1875 -0.0571
 7041W        W23175   9.586   9.300   1.556  0.0426 -0.1438  0.0197
 7042W        W23176  10.747   9.261   2.004  0.2037  0.0119 -0.2619
 7043W        W23177   5.250   3.519  14.328  0.5943 -0.3624  0.0811
 7044W        W23178  17.390   3.806   2.730  0.0853 -0.1310 -0.0032
 7045W        W23179  10.537   7.094  15.084  0.1294 -0.1841  0.1427
 7046W        W23180  11.544  17.166   1.466 -0.0247  0.0160 -0.0969
 7047W        W23181   5.955  11.334   0.674  0.0029 -0.0957 -0.0280
 7048W        W23182   5.163  16.439   2.949  0.1332  0.0471  0.0141
 7049W        W23183  15.351   4.659  16.983 -0.1327  0.0812  0.2436
 7050W        W23184   7.855  17.518   1.550  0.1201 -0.0574  0.0189
 7051W        W23185   4.372  10.536  14.257 -0.3402  0.1690 -0.0560
 7052W        W23186   1.370   3.854  15.262 -0.0233  0.0680 -0.0085
 7053W        W23187  14.741  10.292   2.362  0.0389 -0.1785  0.2702
 7054W        W23188   7.218   5.215  14.096 -0.1202  0.2209 -0.2965
 7055W        W23189   2.341   3.732  13.433 -0.0056  0.2260  0.0457
 7056W        W23190  17.506   2.138  14.010 -0.0927  0.0019 -0.1382
 7057W        W23191   5.128   9.534  14.895 -0.0760  0.1415  0.0967
 7058W        W23192  13.140  13.596   3.780 -0.1749  0.0960 -0.3130
 7059W        W23193   0.399  13.897  13.248 -0.1998 -0.2823  0.0367
 7060W        W23194   0.661   8.718  14.562  0.0953  0.2125 -0.1597
 7061W        W23195   2.627   2.450   2.499 -0.0954  0.1898 -0.0374
 7062W        W23196   0.707  14.057   3.708 -0.2268 -0.1076  0.2825
 7063W        W23197   9.720  12.349  16.272  0.0082  0.0803  0.1502
 7064W        W23198   1.782  11.350   2.697 -0.0449  0.3060 -0.0253
 7065W        W23199   0.005  13.938   5.390  0.0123  0.2124  0.0417
 7066W        W23200   2.304   4.939   1.175  0.1511  0.0163  0.1096
 7067W        W23201  12.845  13.846   4.109  0.3590  0.0146 -0.0327
 7068W        W23202   4.351   3.321   0.165 -0.1594 -0.0119  0.1200
 7069W        W23203   4.073   8.511   1.974  0.3050  0.2268  0.1832
 7070W        W23204  14.887   5.476   3.397 -0.1488  0.2848 -0.0724
 7071W        W23205   7.012  15.068  12.600  0.0046 -0.3584 -0.2471
 7072W        W23206   7.646  12.897  15.316  0.3601 -0.1072  0.3037
 7073W        W23207  14.481  10.712  14.156 -0.0736  0.2980  0.0518
 7074W        W23208  11.949   8.713   0.626  0.1073  0.0707 -0.2522
 7075W        W23209  11.909  17.524  15.878 -0.0653  0.0554 -0.0658
 7076W        W23210   8.581   4.513   1.000  0.2341  0.0616 -0.0479
 7077W        W23211   4.158   4.274   2.864  0.1804 -0.3494 -0.0001
 7078W        W23212  15.815  10.947   2.510 -0.1027 -0.0019 -0.1104
 7079W        W23213  12.400  13.995  13.546 -0.0777  0.0450 -0.2142
 7080W        W23214   1.513   1.772  13.363 -0.2856 -0.1024 -0.0206
 7081W        W23215  14.064  15.709   1.360 -0.2970  0.0671 -0.3296
 7082W        W23216   2.391   3.551   1.328 -0.1571 -0.1181 -0.0936
 7083W        W23217   9.778  14.517  13.044  0.1515  0.1963 -0.2111
 7084W        W23218  15.169  14.018  17.121 -0.0961 -0.0262  0.1155
 7085W        W23219  13.083   9.478  16.163 -0.0189 -0.3629 -0.3042
 7086W        W23220  15.061   0.420   4.510  0.2137  0.1413  0.1903
 7087W        W23221   0.065  15.421   2.048  0.0483 -0.0507  0.1408
 7088W        W23222   5.499   0.231  16.241  0.2931  0.3080  0.0839
 7089W        W23223   7.765   1.218   4.675 -0.0771 -0.1949  0.2985
 7090W        W23224   8.257  11.266   2.310 -0.2588 -0.3368 -0.0085
 7091W        W23225   2.343   1.232   4.268  0.5287 -0.2118 -0.0332
 7092W        W23226   4.529   9.251   1.873 -0.1703 -0.1567  0.2949
 7093W        W23227   2.142  12.331  14.145 -0.0315 -0.0695  0.2822
 7094W        W23228   2.467  11.311  13.982  0.1135  0.1871  0.0732
 7095W        W23229   7.561   1.581   2.398  0.2289 -0.0054 -0.0063
 7096W        W23230  10.148   2.228  14.082 -0.1492  0.0744 -0.2689
 7097W        W23231  11.788  11.895  11.635 -0.0859 -0.0144 -0.1748
 7098W        W23232  11.878   5.546  16.143 -0.2890 -0.0117 -0.0417
 7099W        W23233   9.233  10.899  14.784  0.1468 -0.2247 -0.2193
 7100W        W23234  15.795  15.119   1.097  0.0917 -0.1239  0.0632
 7101W        W23235   1.809  17.464  14.729 -0.0139  0.0461  0.0412
 7102W        W23236  13.214  11.011   3.748  0.0711  0.1404  0.1190
 7103W        W23237   6.832   1.434  12.441  0.1290 -0.0961 -0.1787
 7104W        W23238   4.650  17.385   4.301 -0.0098 -0.1078 -0.0218
 7105W        W23239  16.438   4.292   0.283  0.1779  0.0339 -0.1605
 7106W        W23240  14.939  13.675  15.677 -0.1209  0.3305  0.1037
 7107W        W23241   9.660  17.604  14.827  0.1699  0.1723 -0.0495
 7108W        W23242  13.639   2.136  16.766 -0.0061  0.0285  0.2515
 7109W        W23243  17.260   1.732  15.301  0.0085 -0.0183  0.2572
 7110W        W23244   8.150  16.219  12.022 -0.0392 -0.0185 -0.1499
 7111W        W23245  10.536  14.203  12.792  0.1749 -0.0974 -0.1575
 7112W        W23246   2.627   8.381  11.524 -0.4122 -0.0366 -0.2923
 7113W        W23247  16.579  15.972  13.689 -0.0476 -0.0672 -0.2157
 7114W        W23248   3.085  15.011   2.773  0.1533 -0.0302  0.0215
 7115W        W23249  10.351   7.138  15.561  0.2635 -0.0714  0.3748
 7116W        W23250  16.527  15.031   2.615  0.0851  0.1288 -0.1826
 7117W        W23251   4.222   5.541   4.585 -0.0832  0.1279 -0.0051
 7118W        W23252   7.915  14.711  13.335 -0.2104  0.0456 -0.1145
 7119W        W23253  10.298  15.882   0.701 -0.4110  0.1842  0.0437
 7120W        W23254   6.450   5.461  11.720 -0.0173 -0.1106  0.0256
 7121W        W23255   8.441  10.529  12.427  0.0273  0.1881 -0.0192
 7122W        W23256   7.400   9.835   0.602  0.1238 -0.2484  0.3001
 7123W        W23257   9.987  14.849   3.505  0.2841  0.0818  0.3154
 7124W        W23258   2.873  11.091   4.370  0.0269  0.0999 -0.0382
 7125W        W23259   4.557  12.957   0.873 -0.0087 -0.2511  0.0654
 7126W        W23260   8.209   4.673   1.346 -0.1940  0.2082 -0.0865
 7127W        W23261   7.765  17.204  12.993 -0.0072  0.2085  0.3148
 7128W        W23262   6.283   7.811  13.006  0.0947  0.3649 -0.0551
 7129W        W23263   9.921   2.521   0.953  0.1964 -0.0879  0.1014
 7130W        W23264   8.207  15.911  14.087  0.1473  0.0769 -0.0402
 7131W        W23265  11.579   9.452  12.574 -0.0165 -0.0593 -0.1422
 7132W        W23266   2.486   3.115  12.497 -0.0663  0.2291  0.0490
 7133W        W23267   8.364   9.718   5.533 -0.1664  0.0532  0.0014
 7134W        W23268  11.664   9.210   5.023 -0.0936 -0.1075 -0.0070
 7135W        W23269  16.569  13.328  13.873  0.1527  0.3604  0.0597
 7136W        W23270   4.546   8.596   1.178 -0.0717  0.6408  0.2028
 7137W        W23271   7.447   5.471   2.238 -0.0878 -0.0838  0.0376
 7138W        W23272   3.379  17.107  15.711 -0.0628  0.1083 -0.5481
 7139W        W23273   5.523  11.281   3.028  0.1302  0.1093  0.0002
 7140W        W23274   6.381  15.366  15.339  0.3318  0.1932  0.2451
 7141W        W23275  10.760   5.341   1.797 -0.4198 -0.1215 -0.0378
 7142W        W23276   4.128   6.000  17.004  0.2662 -0.2900 -0.2095
 7143W        W23277  11.834  11.117  14.165 -0.3629 -0.2136 -0.0025
 7144W        W23278   8.947   9.032  14.357 -0.2480 -0.1051  0.1860
 7145W        W23279  10.259   2.060  11.866 -0.0296  0.0080 -0.0048
 7146W        W23280  13.966   3.416   5.254  0.0312 -0.0245 -0.1089
 7147W        W23281   5.621  10.734   1.856  0.0024  0.1380  0.1003
 7148W        W23282   5.986   0.247  14.420  0.1179  0.1363 -0.4027
 7149W        W23283   4.122  13.582  13.978  0.1702 -0.1630  0.1498
 7150W        W23284   0.506  14.020   0.612  0.3177  0.0619 -0.0440
 7151W        W23285  14.377  17.513   5.259 -0.0490 -0.1071 -0.2461
 7152W        W23286  17.624   9.159   6.380 -0.0248 -0.0371  0.0129
 7153W        W23287   0.960   9.955  13.273 -0.0862 -0.2246 -0.0328
 7154W        W23288   0.069  11.264  14.607  0.0250 -0.1483  0.1694
 7155W        W23289  11.238   0.745   4.268 -0.0982 -0.2219  0.2677
 7156W        W23290  11.718  15.599   5.216  0.1733  0.1122 -0.0249
 7157W        W23291  10.230  14.600  13.635 -0.0355  0.0304  0.0944
 7158W        W23292  14.755   0.144   2.321  0.2553 -0.0258  0.1077
 7159W        W23293  10.585  17.375   0.655  0.0424 -0.2089  0.1918
 7160W        W23294  15.902   2.848   5.985 -0.4022 -0.0090 -0.0670
 7161W        W23295  15.660  13.245   0.070  0.3100  0.1028  0.1434
 7162W        W23296   1.890   2.212  12.200  0.0184  0.0197  0.2435
 7163W        W23297  12.102   6.910  13.697 -0.0585  0.0014  0.1885
 7164W        W23298   4.410  10.221   4.926 -0.0052  0.2165  0.0785
 7165W        W23299  16.170  15.570   0.320  0.0220  0.0149  0.2871
 7166W        W23300  15.536  11.376  11.982  0.0209 -0.2553  0.1176
 7167W        W23301   6.167   4.417  12.994 -0.2597 -0.0271  0.3894
 7168W        W23302   6.806  10.777   3.113 -0.0345 -0.0309 -0.2751
 7169W        W23303   8.446  17.031  13.677  0.1149  0.0266 -0.3640
 7170W        W23304   2.533   9.227  12.570 -0.2173 -0.1196 -0.0007
 7171W        W23305   7.003   0.841  13.202  0.2617  0.0864  0.2350
 7172W        W23306   1.707   8.894  10.653 -0.1820 -0.0178 -0.0256
 7173W        W23307  15.259  12.708  13.841 -0.0596 -0.4761  0.1185
 7174W        W23308   5.894   8.802  13.185  0.2070 -0.3251  0.0008
 7175W        W23309  15.036   5.158  12.634  0.2023 -0.2062 -0.0990
 7176W        W23310  14.982  14.094  14.388  0.0858  0.1826  0.0236
 7177W        W23311   4.190   6.395   6.032  0.0145 -0.3727  0.1650
 7178W        W23312  15.903  15.278   6.823 -0.2070  0.0912 -0.1951
 7179W        W23313   2.627   8.337  14.909  0.4941 -0.1206  0.0349
 7180W        W23314   7.085   4.746  13.912  0.1117  0.4596  0.0065
 7181W        W23315  12.691  16.849  16.019  0.0193  0.0282 -0.2158
 7182W        W23316   0.946   6.846   0.865 -0.0261 -0.3248 -0.0878
 7183W        W23317  13.681  11.281  15.078  0.1367  0.0303  0.2410
 7184W        W23318   4.508  15.089   4.451  0.0635  0.1674  0.3280
 7185W        W23319   4.702   5.987  12.412 -0.2336 -0.1920  0.2127
 7186W        W23320   7.538  15.612  12.018  0.0950 -0.0762 -0.1510
 7187W        W23321   0.807  12.208   2.939  0.1403 -0.0788 -0.2511
 7188W        W23322   8.663   9.365  14.534 -0.1313 -0.0308  0.1364
 7189W        W23323   0.074   5.725  13.174  0.2666  0.0381 -0.0918
 7190W        W23324   9.899   4.003  16.153 -0.0163 -0.2305 -0.0701
 7191W        W23325   1.794  10.975  11.169  0.0755 -0.0618 -0.0691
 7192W        W23326   7.975   7.319   1.236 -0.1279 -0.0110  0.0425
 7193W        W23327   0.576   7.727   3.185 -0.0956  0.1461 -0.0069
 7194W        W23328   6.887  16.352  12.339  0.1905  0.0486  0.0804
 7195W        W23329  12.474   2.927  14.396  0.0749 -0.0405 -0.0424
 7196W        W23330  15.714   9.522  13.058 -0.0539 -0.2925 -0.1205
 7197W        W23331   2.399   7.439   3.303 -0.0427  0.0065 -0.1256
 7198W        W23332   6.952  12.211   2.020  0.0774  0.0245 -0.0931
 7199W        W23333   1.372  11.614   4.241 -0.0613  0.0565 -0.1160
 7200W        W23334  10.014   4.293  14.849  0.0106  0.2413  0.0270
 7201W        W23335  10.195   8.038  12.874 -0.0895  0.1110  0.0922
 7202W        W23336   8.444  13.394   2.754  0.2518 -0.1225  0.4661
 7203W        W23337   2.903  17.624  13.509  0.2239  0.0052 -0.2335
 7204W        W23338  12.407   0.564  13.408 -0.0061  0.1071 -0.1297
 7205W        W23339   0.900  12.867   2.896  0.0577  0.0440  0.1574
 7206W        W23340  14.851  10.595  11.971  0.1445  0.5405 -0.0783
 7207W        W23341  12.904  17.333  15.736 -0.3597  0.0898  0.0325
 7208W        W23342   4.716  12.240   4.922 -0.1003 -0.1860  0.2672
 7209W        W23343   4.415   6.446  15.072 -0.0653  0.5848 -0.0880
 7210W        W23344   6.676  15.434  12.456 -0.0712 -0.1295 -0.0899
 7211W        W23345   3.323   5.327  12.321  0.1402 -0.2233 -0.2152
 7212W        W23346  13.654   6.176  14.958  0.0826 -0.0225  0.0219
 7213W        W23347   6.267   4.837  12.467 -0.1281  0.3203  0.1255
 7214W        W23348  15.891   6.754   2.111 -0.2073  0.0971  0.0473
 7215W        W23349   4.320   8.588   0.180  0.0707  0.2523  0.3128
 7216W        W23350  15.784  15.407   4.262  0.1848  0.0790  0.0704
 7217W        W23351   5.467   2.251  14.726 -0.2374 -0.0523 -0.0209
 7218W        W23352  16.437  10.671  15.963 -0.3060 -0.5264  0.2664
 7219W        W23353   3.967   9.338   5.466  0.0496  0.1403 -0.0926
 7220W        W23354   2.859  13.978   2.818  0.1482 -0.0045  0.1951
 7221W        W23355   6.455  17.169  15.658 -0.1010  0.1877  0.0219
 7222W        W23356  14.247  11.849   0.354  0.3566 -0.0949  0.0164
 7223W        W23357  13.112  14.519   0.597 -0.1601 -0.0932 -0.0303
 7224W        W23358   8.326  11.848  16.496 -0.2099  0.1846 -0.0329
 7225W        W23359  10.913  11.703  16.380  0.0618 -0.0247 -0.1596
 7226W        W23360  11.930  16.929  13.640  0.2220 -0.2802 -0.0400
 7227W        W23361   5.495  15.097   4.744  0.2146 -0.0052  0.0246
 7228W        W23362  10.526   4.581  14.895  0.1088  0.1151 -0.0560
 7229W        W23363   7.609   2.795   3.792  0.0571  0.1889  0.4840
 7230W        W23364   1.188   5.469   1.922 -0.1509 -0.1451 -0.0748
 7231W        W23365   2.503   7.238  14.064  0.0089  0.2457 -0.1273
 7232W        W23366   5.790   7.288   1.849  0.2076 -0.1185  0.1425
 7233W        W23367   0.579   4.445  14.587 -0.1767 -0.0368  0.2929
 7234W        W23368   2.922  16.352   0.423 -0.0036 -0.1895 -0.4880
 7235W        W23369   5.393  14.432  14.379  0.0202 -0.1055 -0.2007
 7236W        W23370  13.685   2.527  16.395  0.0886 -0.0038  0.0981
 7237W        W23371  11.728   2.982  15.402  0.4821 -0.2011  0.2215
 7238W        W23372  16.937  15.739   0.385  0.2867  0.2119  0.3574
 7239W        W23373   6.530   4.216   0.187 -0.0459  0.0420  0.1409
 7240W        W23374  13.271   5.195   4.566  0.2628 -0.1136 -0.0370
 7241W        W23375   3.053   4.522   5.736 -0.1897  0.1936  0.2059
 7242W        W23376   2.112  15.062  13.063  0.0420 -0.0447  0.0062
 7243W        W23377  12.015  13.874   0.166 -0.1251  0.0949  0.5045
 7244W        W23378  12.427  11.839  14.331  0.1816  0.2157  0.2944
 7245W        W23379   4.295  13.732  15.761  0.0913 -0.1480 -0.1233
 7246W        W23380   2.679  10.866   0.993  0.0783 -0.0794 -0.0768
 7247W        W23381   7.292   5.902   3.633 -0.0114  0.1900 -0.1240
 7248W        W23382   7.992   5.016   3.152 -0.0417  0.2411 -0.1354
 7249W        W23383   0.636  12.752   1.536  0.0798 -0.0441  0.1274
 7250W        W23384  15.587   1.645   2.154 -0.3587  0.1606  0.1575
 7251W        W23385   3.265   3.433  13.445 -0.0324  0.0137 -0.1102
 7252W        W23386  13.202   5.498   5.003  0.0240  0.2234  0.0148
 7253W        W23387  12.329  11.614  12.537 -0.2230 -0.1293 -0.0062
 7254W        W23388   8.579   1.873  15.436 -0.0292  0.1284  0.0954
 7255W        W23389  14.927   2.799   5.934 -0.2043 -0.3810  0.1206
 7256W        W23390  12.237  16.178  12.281  0.3303 -0.2539  0.0613
 7257W        W23391   3.526   5.313  16.156 -0.2881 -0.1936 -0.1092
 7258W        W23392  10.313   0.721   3.994 -0.1671  0.2227 -0.0533
 7259W        W23393  12.789   5.009   3.843  0.1188  0.0266 -0.0856
 7260W        W23394  13.095   4.155  13.614  0.0558 -0.4404 -0.0338
 7261W        W23395   0.297   8.085  15.089  0.2900 -0.1516 -0.0401
 7262W        W23396   1.334  12.525   5.744 -0.1713 -0.0971  0.0116
 7263W        W23397   8.030   2.788  14.800  0.2801  0.2606 -0.0995
 7264W        W23398   1.294   4.564  14.624  0.0876 -0.2290  0.0078
 7265W        W23399   4.222  17.589  12.240 -0.1573 -0.3373  0.1148
 7266W        W23400  16.945   1.024   0.865 -0.2350 -0.0233 -0.0671
 7267W        W23401  11.011  15.971   5.773  0.1470 -0.0795  0.1429
 7268W        W23402   2.219  10.603  15.822  0.1055 -0.0647 -0.1703
 7269W        W23403   2.325   6.166  12.756  0.1867 -0.1267  0.1383
 7270W        W23404   8.597   4.992   1.296  0.1021 -0.2305  0.1634
 7271W        W23405   7.306  13.004   3.222  0.0373  0.0312  0.0432
 7272W        W23406   1.784   4.398  15.622 -0.2399 -0.0400  0.1440
 7273W        W23407   6.175   1.994   2.073 -0.1059 -0.2720  0.1287
 7274W        W23408   1.198   1.050   4.813  0.4205 -0.1648 -0.2188
 7275W        W23409  16.216   5.289   3.282 -0.0949  0.0594 -0.2335
 7276W        W23410   0.261   8.910   0.827 -0.0617 -0.0630  0.1406
 7277W        W23411   6.533  11.007  14.158  0.1179  0.0098  0.1991
 7278W        W23412  13.901  13.012   2.894 -0.1215 -0.0070 -0.0324
 7279W        W23413  12.709  13.140  15.503  0.2055  0.0766  0.1184
 7280W        W23414   8.896   5.437   3.667  0.0522 -0.0582 -0.0983
 7281W        W23415  14.480   2.297   0.919 -0.2428  0.2409 -0.1152
 7282W        W23416   0.517  15.813   2.414  0.0569  0.1398 -0.0199
 7283W        W23417  12.658   4.968  12.598  0.4196 -0.1307 -0.1020
 7284W        W23418  17.358  10.697   0.365 -0.0361  0.1145  0.1118
 7285W        W23419  13.146   4.557  14.816 -0.1595  0.0911  0.0300
 7286W        W23420   9.966   6.591  16.205  0.0137  0.0587  0.1555
 7287W        W23421   2.709   0.092   0.553 -0.1405  0.1141 -0.3130
 7288W        W23422   4.043   9.442   1.975  0.1067  0.2018  0.2177
 7289W        W23423   4.105   7.430   4.921 -0.3481  0.4857 -0.0659
 7290W        W23424   1.351   4.407  12.457  0.4066  0.0138 -0.2020
 7291W        W23425   6.837  11.433   0.384 -0.2994  0.0634  0.2279
 7292W        W23426   7.526   6.457  15.432  0.2542 -0.0403  0.2494
 7293W        W23427   9.927   3.249   1.545 -0.2294 -0.2448  0.3319
 7294W        W23428   4.453  14.466   0.516  0.1726  0.5282 -0.2443
 7295W        W23429  16.383  17.626  16.112 -0.1914  0.1512  0.2474
 7296W        W23430  17.052   5.877   5.847  0.1297  0.1603  0.4844
 7297W        W23431  16.206  14.842  15.808 -0.0169 -0.1996  0.0341
 7298W        W23432   8.656  13.085  15.645 -0.0816  0.0928  0.3010
 7299W        W23433   2.622   7.350  16.590  0.1989 -0.2656 -0.0597
 7300W        W23434   5.792   3.882  16.590  0.0525 -0.2031 -0.2138
 7301W        W23435  16.905   9.689  15.602  0.2213  0.1558 -0.0031
 7302W        W23436  16.867   8.893   5.156 -0.2042  0.3262 -0.1005
 7303W        W23437  16.211  11.846   4.508 -0.0088 -0.1009  0.3050
 7304W        W23438   6.110   6.498   5.812  0.0242 -0.1433 -0.0826
 7305W        W23439  16.317   6.571   1.175 -0.0156 -0.0235 -0.2000
 7306W        W23440  15.485   4.681   4.567 -0.2109  0.1557  0.2147
 7307W        W23441   2.562  17.302   1.468 -0.0333  0.3268  0.0416
 7308W        W23442  12.885   8.528   6.220 -0.0930  0.0357  0.0845
 7309W        W23443   0.079   5.430  16.980 -0.0805 -0.1411  0.1405
 7310W        W23444   8.704  11.723  16.883  0.0109  0.2534  0.1670
 7311W        W23445  14.791  14.883   5.025  0.1676  0.0023 -0.3517
 7312W        W23446  17.412   1.767   6.008  0.0852 -0.2096  0.2199
 7313W        W23447   6.174  11.355  13.976  0.0008  0.1957 -0.0293
 7314W        W23448  17.607   7.392   4.054  0.0784  0.2484 -0.2545
 7315W        W23449   8.915  12.615   1.095 -0.1245 -0.0403 -0.1068
 7316W        W23450   6.408   9.521  15.534 -0.0125 -0.1732  0.0778
 7317W        W23451   3.476   6.110  11.201  0.0987 -0.0190  0.0768
 7318W        W23452  11.940   2.964   4.290  0.2273  0.0299  0.0743
 7319W        W23453   2.348   4.357  12.893 -0.3374  0.1008 -0.1012
 7320W        W23454   3.921  17.469   4.828  0.0898  0.0425 -0.0557
 7321W        W23455  10.654  11.080   4.531 -0.2583 -0.1250 -0.0898
 7322W        W23456  11.448   4.925  12.017  0.0468  0.1909 -0.2860
 7323W        W23457   6.739  17.414   2.965  0.0198 -0.0021 -0.0978
 7324W        W23458   9.493   1.276   3.579  0.2466  0.3143 -0.0449
 7325W        W23459  14.130   2.144  15.393 -0.0655 -0.1125  0.0123
 7326W        W23460  17.443  15.222  15.490  0.0945  0.2765 -0.1178
 7327W        W23461   4.062   8.598  14.973 -0.2383 -0.1352 -0.1461
 7328W        W23462   3.575   3.712   5.475 -0.2158 -0.3899  0.0498
 7329W        W23463  16.739  15.931   2.825 -0.0217 -0.0713  0.0727
 7330W        W23464  16.140   2.790  12.434 -0.2901 -0.1288  0.2816
 7331W        W23465   3.256   1.151  13.223 -0.2107 -0.2244  0.0319
 7332W        W23466   4.091  15.683   0.617  0.1724  0.0243  0.1266
 7333W        W23467  12.703   3.189   0.008  0.2277  0.5474  0.0596
 7334W        W23468  10.835   4.682   2.315 -0.2202  0.0690  0.2247
 7335W        W23469   1.083   4.130   2.477  0.0947 -0.0207 -0.2795
 7336W        W23470   7.611   4.040  16.815  0.0261 -0.0315  0.0948
 7337W        W23471  13.445   5.942  11.399  0.0746  0.1972  0.0856
 7338W        W23472  16.007   7.703   2.311  0.0405  0.0876 -0.2508
 7339W        W23473  17.177   7.854  15.109 -0.1082  0.0791 -0.4165
 7340W        W23474  15.182   9.566  16.965 -0.0285 -0.3812  0.1231
 7341W        W23475   3.191   6.177  16.177 -0.4051  0.5043  0.4179
 7342W        W23476   1.560   5.191  15.370 -0.0414 -0.0334  0.1920
 7343W        W23477   5.461   4.419   5.272  0.1584 -0.3458 -0.0016
 7344W        W23478  14.859   2.207  15.151 -0.1011 -0.0063  0.1041
 7345W        W23479   6.784  15.911   0.225  0.1585  0.0106  0.2136
 7346W        W23480  14.097   0.073  13.122 -0.2126  0.0756 -0.0241
 7347W        W23481   8.510   9.843   2.924  0.0084  0.1619  0.0641
 7348W        W23482   6.096  11.666  14.845  0.0045 -0.0093  0.0755
 7349W        W23483   8.939  16.468  14.513 -0.0775 -0.1571 -0.0910
 7350W        W23484  13.266   4.709   3.612  0.1893 -0.1643  0.1865
 7351W        W23485  13.937   0.529  16.372  0.1017 -0.1564  0.0263
 7352W        W23486   6.250  16.541  14.946  0.0402 -0.0497  0.0463
 7353W        W23487  16.664   0.658  13.190 -0.0062 -0.2424 -0.3990
 7354W        W23488  15.525  16.594  15.105 -0.0198  0.2596 -0.0273
 7355W        W23489   4.677  16.756  17.127 -0.3144 -0.2113 -0.0585
 7356W        W23490   7.921   1.058   4.235  0.1796 -0.2763 -0.1201
 7357W        W23491   4.966  13.355  13.308 -0.1984 -0.1984  0.0681
 7358W        W23492   3.358   1.164  15.233  0.2738 -0.0819 -0.0374
 7359W        W23493   6.132  12.570   0.416  0.2274  0.0137 -0.1160
 7360W        W23494   7.874   7.536  13.222  0.1106 -0.2714  0.3250
 7361W        W23495  16.955   5.220  13.602  0.2668  0.2847  0.0998
 7362W        W23496   7.716   3.321   6.177 -0.0323 -0.0118  0.1198
 7363W        W23497  17.613   1.487  13.800 -0.1536  0.2144 -0.0271
 7364W        W23498   7.813   7.877   1.044 -0.1609 -0.1351  0.2737
 7365W        W23499   5.364  16.430  12.467  0.1086 -0.2757  0.0640
 7366W        W23500  14.941   1.679  12.036 -0.1264 -0.1162 -0.0274
 7367W        W23501   4.109  11.541  11.693 -0.0705 -0.1688 -0.1320
 7368W        W23502  15.706  17.377   0.091 -0.1471 -0.0523  0.1189
 7369W        W23503   1.835  10.164   4.360  0.1107 -0.2294 -0.0338
 7370W        W23504  10.416   7.783  16.796 -0.0915 -0.2107 -0.0006
 7371W        W23505  15.707  10.369  14.690  0.2624 -0.2313 -0.0584
 7372W        W23506  17.148   9.336   5.083 -0.0641 -0.2305  0.1604
 7373W        W23507  11.958  10.495   5.434 -0.0688  0.0613 -0.2794
 7374W        W23508   3.928   9.627   1.130  0.4781  0.0060  0.1941
 7375W        W23509   1.633   4.902   1.155  0.0818  0.0792  0.1327
 7376W        W23510   1.870   5.285   3.710 -0.1940  0.1180  0.0642
 7377W        W23511   8.033   4.450   5.797 -0.1634 -0.0769  0.2319
 7378W        W23512  17.423  13.025  16.688  0.4603 -0.0551 -0.0015
 7379W        W23513  14.096   3.720  13.553 -0.0256 -0.2814  0.0688
 7380W        W23514  10.809   0.310   0.438 -0.0333 -0.3636 -0.0912
 7381W        W23515   2.433   1.192  13.798 -0.0524  0.0508  0.1150
 7382W        W23516  17.633  11.975  14.301  0.0186  0.1359 -0.1914
 7383W        W23517  12.454   8.754  16.176  0.0377 -0.1110  0.1273
 7384W        W23518  15.022  14.249   3.315  0.3122 -0.2272 -0.2528
 7385W        W23519   8.829   4.873   4.403  0.0300 -0.0499 -0.1868
 7386W        W23520  15.527  11.230   2.996 -0.0704 -0.0107 -0.0571
 7387W        W23521   1.017  11.075   0.481 -0.0601  0.2734 -0.3835
 7388W        W23522  14.463   7.984   0.236 -0.0955  0.1439  0.4076
 7389W        W23523  12.388   1.891  14.471 -0.0542  0.1784 -0.2607
 7390W        W23524  17.471   8.410  15.697  0.3520 -0.2493  0.1277
 7391W        W23525  10.130   8.095   3.501  0.1885  0.1204 -0.0293
 7392W        W23526   5.901   4.321   5.027  0.0564  0.1794 -0.0574
 7393W        W23527   3.442  15.417   2.885  0.1419 -0.2359 -0.0884
 7394W        W23528  11.622  10.819  12.405  0.2322  0.3992 -0.3226
 7395W        W23529   5.941   2.819  15.807 -0.1963 -0.1360  0.1408
 7396W        W23530   2.014  17.248  12.949 -0.1135  0.0837  0.0104
 7397W        W23531  14.659   8.061  13.427 -0.1313  0.0210  0.1538
 7398W        W23532   3.171  12.677  14.240  0.0007  0.0986 -0.3205
 7399W        W23533   0.080  15.348   1.245  0.0257 -0.1077  0.1126
 7400W        W23534  17.132   0.030  12.187 -0.0515 -0.2047  0.2294
 7401W        W23535   9.550  12.239  15.282 -0.0507 -0.0327  0.5444
 7402W        W23536   0.327   3.239   5.647 -0.1889 -0.1295 -0.0148
 7403W        W23537  10.251  12.301   4.867 -0.1915  0.0040 -0.0470
 7404W        W23538  17.209   4.540   0.598  0.0834  0.0647 -0.2774
 7405W        W23539  16.479  11.057  13.684 -0.2289 -0.2186 -0.0254
 7406W        W23540   8.417   0.746   1.926  0.0391  0.3306 -0.1510
 7407W        W23541  12.929  15.574   2.223 -0.0698 -0.2834 -0.0704
 7408W        W23542  14.833   1.905   0.130  0.2767  0.4020 -0.3258
 7409W        W23543  17.078   8.068  16.218 -0.1093  0.1376  0.2400
 7410W        W23544   8.485   7.429   0.363  0.0869 -0.0110  0.0989
 7411W        W23545  12.137   3.915   5.426 -0.1299  0.2275 -0.0632
 7412W        W23546  15.202  12.021  16.686  0.0665  0.0331 -0.0792
 7413W        W23547  16.386  12.320  13.906 -0.1490  0.0460 -0.3165
 7414W        W23548  14.768   2.131  12.489  0.0003 -0.2870  0.0737
 7415W        W23549   8.461  11.670  11.939 -0.0722 -0.2558  0.1647
 7416W        W23550  15.228   5.395  11.876 -0.0841 -0.0645 -0.1192
 7417W        W23551   0.157   9.944   2.145 -0.0155  0.1467 -0.0214
 7418W        W23552  10.566   2.004   0.985 -0.2143  0.0726  0.0946
 7419W        W23553   3.388  13.385   5.816  0.0047 -0.1731 -0.1015
 7420W        W23554  13.467   5.249  13.242  0.3301  0.0522 -0.0227
 7421W        W23555   2.984  14.176   1.381  0.0347  0.1388  0.0115
 7422W        W23556  16.805   1.819  16.205  0.1005 -0.3185 -0.1119
 7423W        W23557  16.788   7.010  14.144 -0.0902 -0.1843  0.0861
 7424W        W23558   0.532  17.562   3.614 -0.2200  0.0017 -0.3128
 7425W        W23559  12.937   0.512  13.168  0.0485 -0.0820 -0.1104
 7426W        W23560  13.794   6.294   5.108  0.0274 -0.0025  0.3122
 7427W        W23561  12.447   8.039  15.122 -0.0587 -0.1471 -0.2067
 7428W        W23562   3.221   2.974   5.494 -0.0249  0.4370  0.2249
 7429W        W23563   0.883   7.789   3.910  0.1694 -0.0988  0.1390
 7430W        W23564  10.911   7.406  10.650  0.1156 -0.0204 -0.1228
 7431W        W23565  16.153   0.237  15.750 -0.0898  0.0776 -0.1382
 7432W        W23566   4.708  11.819  13.218 -0.0685 -0.0161 -0.1679
 7433W        W23567  17.473  14.542  16.019 -0.0266 -0.0365 -0.2362
 7434W        W23568   0.909  10.951  16.389  0.4529 -0.1396 -0.1957
 7435W        W23569   1.126   4.043  14.350 -0.0953  0.2344 -0.3743
 7436W        W23570   7.392  12.112   0.460  0.0566  0.2301 -0.0285
 7437W        W23571   8.622  13.415   1.289  0.1541 -0.0983 -0.1101
 7438W        W23572  14.072   4.795   4.635 -0.0284 -0.2609  0.1189
 7439W        W23573  17.556   4.715  17.033 -0.3641 -0.2171 -0.2642
 7440W        W23574   0.741   4.720  16.061 -0.0016  0.1663  0.1820
 7441W        W23575   7.360   9.674   1.154 -0.1451  0.2298  0.1078
 7442W        W23576   3.320   7.442  13.777 -0.1659  0.0506  0.0098
 7443W        W23577  15.579   4.378   4.960  0.3079  0.1638  0.0312
 7444W        W23578  13.028  15.507  11.970  0.2243  0.0321  0.1167
 7445W        W23579  16.108   2.501  15.110 -0.0603 -0.1078  0.1698
 7446W        W23580   5.242   6.490  15.559  0.0688  0.1251  0.0416
 7447W        W23581   5.318   6.973  11.805  0.0888 -0.1952 -0.3942
 7448W        W23582   4.704  10.958   4.378  0.0435 -0.1177 -0.0930
 7449W        W23583  15.341   8.747  13.445  0.2230 -0.2514  0.3258
 7450W        W23584  13.375   1.394   2.595  0.4237  0.1824  0.1990
 7451W        W23585   6.011  10.168  16.571  0.0387 -0.4208  0.3050
 7452W        W23586   1.715   2.690   1.524  0.0134 -0.0010 -0.0128
 7453W        W23587  14.414  14.530  13.136 -0.3105 -0.0643  0.0519
 7454W        W23588   3.990  17.388   2.046 -0.1526  0.0489  0.3851
 7455W        W23589   9.786  16.143   1.831 -0.0833  0.0274 -0.0863
 7456W        W23590   0.121  13.877  14.215  0.1564  0.0561  0.0023
 7457W        W23591  11.187  11.513  15.979 -0.1690 -0.0130 -0.1142
 7458W        W23592   1.735   4.118  16.350 -0.1442 -0.2826  0.2212
 7459W        W23593   8.198  11.923  14.224  0.2902 -0.0112 -0.0765
 7460W        W23594   1.867  14.515   5.275  0.0540 -0.2193  0.2750
 7461W        W23595   2.841   8.452  15.729  0.1101  0.3016  0.0183
 7462W        W23596   3.065  13.702   6.511 -0.0908 -0.0338 -0.0175
 7463W        W23597   1.481  14.543  15.261  0.2493  0.0621 -0.1185
 7464W        W23598  12.522  15.842   6.347 -0.0302 -0.1743  0.3481
 7465W        W23599   7.041   4.163   2.679  0.0562  0.0845 -0.3104
 7466W        W23600  16.619  13.327  12.935  0.3216  0.0275 -0.0228
 7467W        W23601  10.145   9.109   2.533  0.0978  0.1610 -0.0819
 7468W        W23602   6.830   1.878   0.440  0.0693 -0.1920  0.1569
 7469W        W23603   7.858   4.215  12.363 -0.0977 -0.2283  0.0053
 7470W        W23604   5.511   5.967  13.728 -0.2881 -0.1294  0.1764
 7471W        W23605   6.845   6.923  13.868 -0.0092 -0.1819  0.2376
 7472W        W23606   5.297  15.782   1.257  0.0698 -0.0127 -0.0258
 7473W        W23607  11.872   1.964  13.230  0.0561  0.0708  0.2159
 7474W        W23608   3.695   7.976   0.404  0.0532 -0.1543  0.1673
 7475W        W23609  15.954  12.550  12.658  0.0125 -0.3749  0.0144
 7476W        W23610   2.481   9.422   3.338  0.1401  0.1516  0.1769
 7477W        W23611   6.969   5.444  12.755 -0.0421 -0.2374 -0.1407
 7478W        W23612   4.242  11.937  11.942  0.1918 -0.2039 -0.4388
 7479W        W23613   5.464  10.218   3.626 -0.2277 -0.1915 -0.2139
 7480W        W23614  17.227   6.644  15.228  0.1680 -0.1243  0.0685
 7481W        W23615   8.493   2.110  14.173  0.0501 -0.0290 -0.0633
 7482W        W23616  12.086  13.996   1.893  0.1026 -0.2409  0.0158
 7483W        W23617   5.769  15.560   3.802 -0.3549  0.0247 -0.1939
 7484W        W23618   7.945   2.601   2.132 -0.0671 -0.1933  0.2184
 7485W        W23619  11.203  12.654  17.137 -0.1337 -0.1556  0.2816
 7486W        W23620   3.539   6.082  14.787  0.0264 -0.0549 -0.1604
 7487W        W23621  16.537  13.303   1.848 -0.3372  0.1164 -0.1108
 7488W        W23622   0.275   3.297  10.780 -0.0208 -0.0234  0.0860
 7489W        W23623  12.506   4.527   3.266  0.4038 -0.1065 -0.1362
 7490W        W23624  10.797  16.538   4.635  0.0125 -0.1346  0.0435
 7491W        W23625   5.777   4.753   5.587 -0.3205 -0.2765 -0.0239
 7492W        W23626  10.162   9.153  16.720 -0.1934  0.0417 -0.2469
 7493W        W23627  14.973  14.067  12.747  0.2432  0.1161  0.1458
 7494W        W23628  11.937  15.317   4.398  0.1533 -0.1690  0.1070
 7495W        W23629   6.093   3.376  12.089 -0.1117  0.1695  0.1459
 7496W        W23630   9.089  10.927   5.860  0.0518  0.2096 -0.0408
 7497W        W23631   3.711   1.701   2.813  0.0079 -0.1685 -0.0652
 7498W        W23632  10.968   8.036   2.330 -0.0798 -0.0623 -0.0669
 7499W        W23633   0.792  12.234  12.248 -0.2710 -0.1030  0.0025
 7500W        W23634  15.146   5.134  13.152 -0.2520  0.3254  0.0542
 7501W        W23635   4.440   0.928   0.777  0.1771  0.1441  0.0145
 7502W        W23636   9.190   1.537   4.331  0.1200  0.0610  0.0012
 7503W        W23637  16.575   0.487  15.611 -0.0317  0.1671 -0.2960
 7504W        W23638  12.412  13.265   3.017  0.2016 -0.1966 -0.2518
 7505W        W23639  13.253  14.148   5.484  0.0097 -0.2331 -0.2894
 7506W        W23640  10.095   9.544   1.410  0.1564 -0.2382  0.2062
 7507W        W23641  15.326  16.132  12.766 -0.0935 -0.3259 -0.2352
 7508W        W23642   8.933  14.366  11.960  0.0050 -0.0511 -0.1605
 7509W        W23643  17.098  13.048  11.988  0.1554 -0.1783 -0.2008
 7510W        W23644   4.866   1.811  13.230  0.0385 -0.0482  0.0880
 7511W        W23645  13.345   0.626  15.969  0.1231  0.0057 -0.1322
 7512W        W23646   9.842  12.918   3.199 -0.0020 -0.0784  0.0723
 7513W        W23647   9.414  14.166  13.933  0.1476 -0.3043  0.0398
 7514W        W23648  16.448   0.094  15.293  0.1727 -0.1848  0.0146
 7515W        W23649  10.378   2.851   1.181  0.0498 -0.0085 -0.0875
 7516W        W23650  14.365   7.418  15.011 -0.1445 -0.3458 -0.1114
 7517W        W23651   2.831   0.402   4.554 -0.1608 -0.1582 -0.3090
 7518W        W23652  15.553   6.150   1.257 -0.0317 -0.0102  0.1464
 7519W        W23653   9.882   9.677   1.841  0.0022  0.2849 -0.1145
 7520W        W23654   7.935   7.035   2.109 -0.1119  0.3321 -0.0750
 7521W        W23655   5.245  12.512   0.759 -0.1382 -0.2483 -0.0562
 7522W        W23656   9.445   0.343  15.232  0.1179 -0.0761 -0.2577
 7523W        W23657   7.984  16.573   5.913  0.1936 -0.2741 -0.0309
 7524W        W23658   0.225  10.749  15.346  0.0068 -0.2019 -0.0857
 7525W        W23659  16.737   5.661  13.461  0.2428  0.1287  0.0970
 7526W        W23660   4.163  11.796  14.278  0.2940  0.1786 -0.2068
 7527W        W23661  16.937  10.549   4.364  0.0862  0.0583  0.0226
 7528W        W23662   5.827   9.526  12.534 -0.1183  0.1321 -0.2408
 7529W        W23663   8.218  15.842   0.753  0.0147 -0.0406 -0.1246
 7530W        W23664   4.574  15.950  14.080  0.2187  0.0664 -0.0858
 7531W        W23665   9.353   8.536  15.115 -0.0590  0.0443 -0.3036
 7532W        W23666  16.683   8.153  13.682 -0.0545 -0.1014 -0.1553
 7533W        W23667   6.320  14.662  12.098 -0.1455  0.0983 -0.0349
 7534W        W23668  10.762   3.627   1.280  0.0663 -0.0689  0.0878
 7535W        W23669   2.982  10.897   3.262 -0.3782  0.0373  0.1807
 7536W        W23670  13.294  14.409   1.716 -0.0274  0.1298 -0.0273
 7537W        W23671  14.573   1.177  13.288 -0.2428  0.1024  0.2048
 7538W        W23672   5.312  14.708  17.122 -0.0268  0.1139 -0.0644
 7539W        W23673   3.389  12.875   5.821 -0.2772  0.2005 -0.1254
 7540W        W23674   7.938   0.250   1.291 -0.0630  0.0198 -0.4171
 7541W        W23675   6.350   6.999   5.471  0.0939  0.2565  0.1825
 7542W        W23676  15.660   0.059   2.897 -0.0573 -0.2964 -0.0206
 7543W        W23677   9.017   0.327   4.337 -0.2636  0.1686 -0.0777
 7544W        W23678   8.832  13.473  12.821 -0.2717 -0.1239  0.2697
 7545W        W23679  15.729   2.227  12.980 -0.1847 -0.1350 -0.1536
 7546W        W23680   1.348  17.643   3.330 -0.0024 -0.1550 -0.3494
 7547W        W23681   1.468  13.017   5.699 -0.0174  0.2184 -0.0757
 7548W        W23682  13.523   2.281  11.562  0.0503 -0.2626 -0.3305
 7549W        W23683   9.035  12.608   5.237  0.0075 -0.4603  0.2114
 7550W        W23684   2.958   1.029   2.574  0.3212  0.0360  0.0761
 7551W        W23685  11.011   9.170  15.407  0.0568 -0.0639  0.1876
 7552W        W23686   5.238   3.066  11.936 -0.3731 -0.2383 -0.0951
 7553W        W23687  11.101  13.355  13.033  0.1369  0.0265 -0.1121
 7554W        W23688  13.711   1.924   4.917 -0.3362  0.1072  0.4321
 7555W        W23689  15.562  14.734  15.995  0.0781 -0.0534 -0.3349
 7556W        W23690  10.731   2.768   3.158 -0.5456  0.1600  0.0482
 7557W        W23691  17.113  16.983   0.373 -0.1720 -0.0983 -0.0263
 7558W        W23692  11.398   7.039   5.845  0.1219 -0.1979 -0.0978
 7559W        W23693  11.849  17.519   1.408 -0.0151 -0.0595 -0.0406
 7560W        W23694   7.281   4.011  14.676  0.2040 -0.0888 -0.0643
 7561W        W23695   1.388  12.659  16.870  0.0021 -0.1779  0.1051
 7562W        W23696   4.178   7.307   3.079 -0.0247  0.0793 -0.0119
 7563W        W23697   9.435   5.193   0.205 -0.0278 -0.2456  0.2116
 7564W        W23698   8.629  16.180  14.178  0.0497  0.1259  0.0038
 7565W        W23699   4.239   8.791  14.519 -0.0356  0.1643 -0.1977
 7566W        W23700   9.849   2.729   3.582  0.1010 -0.1448 -0.2323
 7567W        W23701   3.617   4.107   4.107  0.1633  0.1688  0.0212
 7568W        W23702   5.470   6.520   2.772  0.3399 -0.0608 -0.2167
 7569W        W23703   3.866   4.930   3.399 -0.0393 -0.2552  0.0229
 7570W        W23704   3.186   9.037  15.107 -0.1159  0.1856  0.1453
 7571W        W23705   0.811  10.322   5.399 -0.0184  0.3173  0.0296
 7572W        W23706  10.438  16.851   4.763  0.2106  0.2709  0.2239
 7573W        W23707  14.860   5.277  14.549 -0.0576  0.0149  0.1974
 7574W        W23708   2.761  14.164   3.881 -0.1488 -0.0386  0.2847
 7575W        W23709   7.481  15.611   2.255 -0.0170  0.1264 -0.0055
 7576W        W23710   9.715  15.044   3.059 -0.0067 -0.3337  0.0189
 7577W        W23711   1.280   7.768  14.431  0.0043  0.2432  0.0924
 7578W        W23712   0.782   8.798   5.167  0.2568 -0.1237  0.1969
 7579W        W23713   6.692  11.276   4.405 -0.2820  0.2513 -0.2312
 7580W        W23714   3.809  16.046   2.296 -0.1983  0.1461 -0.1625
 7581W        W23715   3.506   9.887   1.429 -0.3459 -0.0543  0.0651
 7582W        W23716   2.908  14.671   1.344  0.3203 -0.0489 -0.1613
 7583W        W23717   9.527  10.624   1.581 -0.2402  0.2710  0.1943
 7584W        W23718   1.251   5.559   6.112  0.2815 -0.3560  0.2287
 7585W        W23719  16.418   2.204  12.633 -0.2548 -0.3495  0.1889
 7586W        W23720   6.444   5.992   4.208 -0.2192  0.2707  0.1477
 7587W        W23721  10.759  14.714   1.736  0.2053  0.4964 -0.3570
 7588W        W23722  14.341   3.319  13.793 -0.0602  0.1966  0.0140
 7589W        W23723   7.411   9.100   3.614 -0.4878  0.1781  0.2501
 7590W        W23724  17.308   6.208   5.177 -0.0450  0.0021  0.3477
 7591W        W23725   9.783   6.749  14.458 -0.0976 -0.2988  0.0176
 7592W        W23726  15.332  12.671  15.555 -0.3328 -0.1823  0.2499
 7593W        W23727   0.700  14.656   6.038  0.0021 -0.2508 -0.0728
 7594W        W23728   8.110  10.357   5.076 -0.1269  0.0238  0.0548
 7595W        W23729  15.894  17.056   4.129  0.1882 -0.0463 -0.0806
 7596W        W23730  17.644  16.481   0.388  0.0106 -0.0622  0.1350
 7597W        W23731  10.823  11.681  12.338 -0.2329  0.0955 -0.0858
 7598W        W23732   1.518  11.156   3.091 -0.0777 -0.1000 -0.2569
 7599W        W23733   7.543   1.441   4.272 -0.0482  0.2604  0.0580
 7600W        W23734  17.635   2.303  12.781 -0.0482  0.0110 -0.0941
 7601W        W23735   7.078   9.184   1.472  0.0934  0.5164  0.0009
 7602W        W23736   4.583  15.014   1.125  0.2452 -0.1306 -0.0058
 7603W        W23737  10.929   2.342   3.336 -0.1476 -0.0144  0.0248
 7604W        W23738   6.965   9.195  16.703  0.0477  0.0651  0.0231
 7605W        W23739   7.315  12.329   3.996 -0.1247  0.1956 -0.1406
 7606W        W23740  12.936   8.142   2.091  0.1590  0.0849 -0.2765
 7607W        W23741   7.249  16.718   5.277  0.4067  0.3324  0.0417
 7608W        W23742  17.575  17.383   4.925  0.1194  0.1691  0.1804
 7609W        W23743  14.994  17.538  12.033  0.0651  0.0927 -0.0407
 7610W        W23744   3.772   1.703  16.336 -0.2318  0.1849 -0.1018
 7611W        W23745   0.214   5.465  12.158 -0.2461 -0.0009 -0.2311
 7612W        W23746   2.667   5.848   5.652 -0.2266  0.3996  0.0784
 7613W        W23747  17.663  15.799   2.422  0.3339 -0.1408  0.1129
 7614W        W23748  12.315   0.294  12.158  0.1837 -0.0437 -0.0225
 7615W        W23749   0.969   8.907   2.911 -0.1106  0.1866 -0.0631
 7616W        W23750  16.064   0.042   5.248 -0.0737 -0.2555 -0.0403
 7617W        W23751   4.785   6.721   0.045  0.0198 -0.1719  0.1158
 7618W        W23752   4.704   1.104  12.869  0.1967 -0.1614  0.2696
 7619W        W23753   4.429   7.702   3.832  0.0620 -0.1796 -0.0862
 7620W        W23754   4.825  13.779  14.005  0.1052 -0.3499  0.1626
 7621W        W23755   6.283  14.501   2.513 -0.2093  0.3350  0.1976
 7622W        W23756   2.936   6.100  14.761  0.1956 -0.0726  0.0527
 7623W        W23757   1.312   6.708  14.451  0.1044 -0.0980 -0.0387
 7624W        W23758   7.340  16.951  16.830 -0.0035 -0.2542 -0.3299
 7625W        W23759  10.412   1.732   5.104 -0.2885 -0.0082 -0.0101
 7626W        W23760  17.425   9.370  13.998  0.2748 -0.1051  0.2956
 7627W        W23761  10.691   3.171  16.175  0.1463 -0.4392  0.3360
 7628W        W23762   3.090  13.535   2.725  0.2373  0.0064 -0.1105
 7629W        W23763   0.461  10.539  13.003 -0.2854  0.4741 -0.0124
 7630W        W23764   9.083  12.774   4.344  0.2739  0.0477  0.2069
 7631W        W23765  15.993  16.766  12.731 -0.1580 -0.2687 -0.1001
 7632W        W23766   1.314  16.404  14.383 -0.2207  0.0851 -0.0974
 7633W        W23767  11.591   0.768  16.657 -0.0424 -0.2639 -0.0451
 7634W        W23768   5.654   4.347  12.581 -0.2300 -0.1805  0.0951
 7635W        W23769   4.101  17.018   3.494 -0.2928  0.0253  0.0535
 7636W        W23770  11.389  16.885   3.163 -0.2239  0.1447  0.1752
 7637W        W23771   8.557   9.652  14.991 -0.0178  0.1129  0.0640
 7638W        W23772  12.078  10.400   0.162 -0.1543 -0.0250 -0.0928
 7639W        W23773   4.043   2.506   3.197  0.0686 -0.4283 -0.0904
 7640W        W23774  14.497   4.190  13.422 -0.0450  0.1646  0.0467
 7641W        W23775  16.652   8.455  14.730  0.0328 -0.1054 -0.0019
 7642W        W23776  15.713  16.432  13.397  0.2085  0.0371 -0.0961
 7643W        W23777   3.591  14.912  16.385 -0.2360 -0.2411  0.0428
 7644W        W23778   2.501  16.397   2.719 -0.1077 -0.2256 -0.3208
 7645W        W23779  12.262   0.494   1.253 -0.1365  0.2386  0.1781
 7646W        W23780   1.102  13.841   2.521 -0.2283  0.2204  0.4826
 7647W        W23781   7.548   6.160  14.351 -0.1946 -0.3307  0.0339
 7648W        W23782  12.517  10.730  15.139  0.0113  0.1551  0.2737
 7649W        W23783   4.372   4.339   6.462  0.0541 -0.0869 -0.2118
 7650W        W23784   0.027   1.781   0.185  0.0283 -0.2987 -0.0306
 7651W        W23785  13.561  15.801  16.210 -0.0296  0.1509  0.0309
 7652W        W23786   6.372   5.581  13.971 -0.0668  0.1257 -0.1644
 7653W        W23787   0.913  11.822   3.496 -0.3162 -0.1436  0.1263
 7654W        W23788   9.708   5.588  16.472 -0.0537 -0.0952  0.1039
 7655W        W23789   0.725   0.608   3.354  0.1418  0.0812 -0.1571
 7656W        W23790  10.926   8.405   0.707  0.2209 -0.0006  0.2640
 7657W        W23791   3.261   5.868  14.393  0.1998 -0.2863 -0.0623
 7658W        W23792  14.405  14.270   4.758 -0.1018  0.2891 -0.0434
 7659W        W23793   8.737  14.126  15.559  0.1509 -0.1109 -0.1893
 7660W        W23794   2.460   6.073   3.883  0.0464 -0.0396 -0.0668
 7661W        W23795  12.981  11.993   3.460  0.2657  0.0675  0.0040
 7662W        W23796   5.981   3.582  15.148 -0.0569  0.1725 -0.1412
 7663W        W23797   7.917  10.848  15.010 -0.0645 -0.1657  0.0303
 7664W        W23798   0.006  17.665   5.316  0.0957  0.0561 -0.2065
 7665W        W23799   9.848   5.715   4.113  0.1317 -0.2352 -0.0190
 7666W        W23800  13.299   9.056  13.907 -0.1254 -0.1657  0.1081
 7667W        W23801   3.279  12.639   2.571  0.1621  0.0080  0.1495
 7668W        W23802  12.896   4.704   5.410  0.5419 -0.0219 -0.0764
 7669W        W23803  13.854   5.381   0.013 -0.1935  0.1351 -0.1087
 7670W        W23804   0.614  16.102  12.920 -0.1498  0.0038 -0.0030
 7671W        W23805   9.950   4.231  16.615 -0.1233 -0.0221  0.1704
 7672W        W23806  17.127  14.301  15.078  0.0303  0.3397 -0.1485
 7673W        W23807  14.313   3.669  15.387  0.2749 -0.1372  0.0750
 7674W        W23808  15.228  13.211   1.049  0.1919  0.4869  0.1492
 7675W        W23809  14.420   1.642   3.464 -0.0497 -0.0478  0.1017
 7676W        W23810   7.005  15.323   0.502  0.0757 -0.1913  0.1461
 7677W        W23811   2.478   3.249  16.853  0.0296  0.0035 -0.0622
 7678W        W23812  11.422   8.641   0.738  0.2128 -0.2073  0.3253
 7679W        W23813  12.801  15.133   1.942 -0.2099 -0.1390  0.1469
 7680W        W23814   6.462  14.516  13.925  0.0900  0.3035  0.2198
 7681W        W23815  11.817  15.705  15.650 -0.3342  0.2501  0.0715
 7682W        W23816   5.012   3.456  17.132 -0.0546 -0.0615  0.5015
 7683W        W23817  14.352  16.147   1.578  0.1488 -0.1510  0.3271
 7684W        W23818  14.641   1.733  14.286 -0.0310 -0.1778 -0.2576
 7685W        W23819   7.213   3.401   2.309  0.1200  0.0583  0.1068
 7686W        W23820  16.346  14.093   4.733 -0.0069  0.0549  0.0488
 7687W        W23821   2.379   6.122  13.309  0.2807 -0.0435  0.1305
 7688W        W23822   6.927   1.572   1.955  0.2139 -0.0159  0.2083
 7689W        W23823   0.029  14.322   4.501  0.0164 -0.1039 -0.2030
 7690W        W23824   8.897   4.305  12.568 -0.2129  0.0244 -0.0418
 7691W        W23825   4.091  13.131   0.571  0.0633  0.2550 -0.1912
 7692W        W23826  10.267   9.778  13.885 -0.1287  0.0530 -0.1839
 7693W        W23827  14.465   9.010   2.502  0.0278 -0.1326  0.2293
 7694W        W23828   8.355   7.174  11.599 -0.0956 -0.0852 -0.2977
 7695W        W23829   5.580   1.455   3.212  0.1168  0.0732  0.1369
 7696W        W23830   1.745   0.033   5.821 -0.2622 -0.0954  0.0645
 7697W        W23831  16.763  15.860   5.004 -0.2245  0.2154 -0.0277
 7698W        W23832   2.535  11.724  14.306 -0.0025  0.1109  0.3387
 7699W        W23833   2.429   1.775  14.125  0.0873  0.0620 -0.0425
 7700W        W23834   9.014  12.121   4.975  0.2153  0.0746  0.1432
 7701W        W23835   2.988   4.814  16.774 -0.0508  0.2925  0.0431
 7702W        W23836  15.988  12.472   4.668  0.1986 -0.2482 -0.0842
 7703W        W23837   2.450  17.240  14.729 -0.0451 -0.0063  0.0293
 7704W        W23838   6.391  16.564   1.671  0.3687 -0.0935 -0.1932
 7705W        W23839   1.219   4.738  13.344  0.0535 -0.0672  0.0413
 7706W        W23840  13.818  17.409   5.374  0.1002 -0.1242 -0.2042
 7707W        W23841  14.473  16.822  12.117 -0.0213 -0.1058 -0.1525
 7708W        W23842  11.803  13.864   5.831 -0.3089 -0.0240  0.0084
 7709W        W23843  14.042   4.989   2.292 -0.3056 -0.1246  0.2978
 7710W        W23844   0.121   8.702   1.730 -0.1255  0.0257 -0.1990
 7711W        W23845   5.715   6.914   2.803  0.0389 -0.1796  0.2492
 7712W        W23846   9.093  10.891   2.039 -0.4964 -0.0492  0.1295
 7713W        W23847   9.559   8.347  16.674  0.0439 -0.4897  0.0788
 7714W        W23848   4.165   0.261   3.164 -0.1123  0.1989 -0.2492
 7715W        W23849   5.321  15.215   6.001  0.2153 -0.2146 -0.2059
 7716W        W23850  10.837   1.697   0.724 -0.0781 -0.0370 -0.2187
 7717W        W23851  13.092   2.925   0.320  0.1164  0.1239  0.0866
 7718W        W23852   1.738  16.340  11.280  0.1125  0.1063  0.0344
 7719W        W23853  11.456  12.055  13.396  0.0968 -0.0537 -0.0092
 7720W        W23854   5.951   9.035   4.476 -0.0124 -0.1393  0.1636
 7721W        W23855  12.809   3.898  13.241 -0.0338 -0.1067  0.0087
 7722W        W23856   8.623  12.481   0.165  0.0660  0.0610 -0.0093
 7723W        W23857   2.635   1.547  16.229  0.1659  0.2155  0.1421
 7724W        W23858   7.865  13.959   3.815  0.0186 -0.1557  0.1598
 7725W        W23859   1.630  13.816   0.198 -0.2095 -0.0708 -0.1634
 7726W        W23860   5.240   2.283   3.062 -0.1700 -0.2077  0.0174
 7727W        W23861   0.253  17.077  12.984 -0.0260  0.0825  0.2010
 7728W        W23862   1.530   3.917  17.147  0.0843 -0.0410  0.1201
 7729W        W23863  16.312   7.820  12.971 -0.1813 -0.0182 -0.2973
 7730W        W23864   5.801   7.620  13.144 -0.1122 -0.1639  0.0685
 7731W        W23865   4.295   2.093   4.039  0.0525 -0.1727 -0.1690
 7732W        W23866   2.878  13.568  14.220 -0.1839  0.1008  0.2608
 7733W        W23867  16.959  16.324  14.076 -0.0963  0.2485 -0.0028
 7734W        W23868   9.058  14.981   4.049 -0.2746  0.0322  0.0412
 7735W        W23869  10.361  15.136  13.616 -0.2470  0.2499 -0.1558
 7736W        W23870  14.264  11.288   3.278 -0.1041  0.2103  0.0067
 7737W        W23871  10.498  16.575   1.679 -0.0980 -0.3453 -0.2483
 7738W        W23872   2.692   1.496   2.923 -0.1177  0.2343  0.3569
 7739W        W23873  10.938   6.323  14.592  0.0471 -0.2992 -0.0326
 7740W        W23874  16.810   4.558   5.189 -0.2856  0.1098  0.2144
 7741W        W23875  13.284  15.824  13.832  0.0101 -0.1718 -0.2552
 7742W        W23876   7.330  12.742   2.790 -0.1932 -0.1691 -0.1395
 7743W        W23877   6.922   0.423  13.697 -0.0305 -0.0502 -0.0156
 7744W        W23878  13.841   5.102  14.017  0.0662  0.0388  0.2311
 7745W        W23879   8.438   5.657  14.394 -0.1086 -0.2363  0.0222
 7746W        W23880  10.355  15.491   1.600 -0.2474 -0.3442  0.6125
 7747W        W23881   6.588   6.532   5.630 -0.0237 -0.0207 -0.0223
 7748W        W23882   5.801   4.074  15.867  0.0243 -0.3056  0.0481
 7749W        W23883  16.979  16.512  15.322  0.0326  0.1629 -0.1501
 7750W        W23884   7.877   6.390   1.275  0.0528  0.1271  0.1451
 7751W        W23885   7.523  16.871  13.216  0.2768  0.3365 -0.0797
 7752W        W23886   7.744  16.112   2.087  0.0118 -0.1739 -0.1023
 7753W        W23887  16.057   7.132  14.180 -0.2207  0.1123 -0.3732
 7754W        W23888  13.488  15.294   4.443  0.1284 -0.1707  0.1779
 7755W        W23889  13.879  10.577  12.375  0.2990 -0.2961  0.1161
 7756W        W23890   3.149   9.762   5.993  0.0329 -0.1681  0.0557
 7757W        W23891   3.025   6.817   3.843 -0.2484  0.1450 -0.0284
 7758W        W23892   2.906  14.592   4.106  0.2216 -0.3892  0.1573
 7759W        W23893   9.884   1.755  13.175 -0.4142 -0.2019 -0.2007
 7760W        W23894  13.050   2.196   0.956 -0.0752  0.2026 -0.1220
 7761W        W23895  15.732   1.947   0.277 -0.2818 -0.0224 -0.0171
 7762W        W23896   8.992   8.518   3.085 -0.1566 -0.1364 -0.1224
 7763W        W23897  14.575  13.687  12.860 -0.0191  0.3128 -0.1809
 7764W        W23898   8.158  12.967  16.219  0.1131  0.0319 -0.0343
 7765W        W23899   7.851  14.284  15.368  0.3012 -0.2017  0.1339
 7766W        W23900  15.740   5.381   5.803 -0.1429  0.0408 -0.1845
 7767W        W23901   6.011   5.602  14.772  0.2499 -0.0448  0.0880
 7768W        W23902  11.076   1.831  14.636  0.0032  0.1271  0.3087
 7769W        W23903   2.186   8.288   3.869  0.0919 -0.1268  0.3373
 7770W        W23904   8.671   4.182  12.976 -0.1105 -0.1640  0.1678
 7771W        W23905  14.771  15.866  12.476  0.0500  0.1634  0.0137
 7772W        W23906   8.638   0.556   4.562  0.1212 -0.0703 -0.0316
 7773W        W23907  11.735  11.109   1.670 -0.1829  0.2287 -0.0442
 7774W        W23908   7.911   0.352   0.723 -0.1136  0.0869 -0.0956
 7775W        W23909  14.856   3.631   5.727  0.3091 -0.0656  0.2387
 7776W        W23910   5.542   5.720  15.088  0.1922  0.0791 -0.1269
 7777W        W23911   1.683   9.292  16.779 -0.5437  0.0929 -0.1381
 7778W        W23912   6.924   0.599  15.944  0.0424 -0.0959  0.0554
 7779W        W23913  16.558  12.097   1.435 -0.0201  0.2645  0.0304
 7780W        W23914   9.915  15.187  11.853  0.3040  0.2894 -0.1224
 7781W        W23915  14.991   5.278   0.247  0.0374  0.1434 -0.3268
 7782W        W23916   1.676   8.352   5.213  0.0479 -0.0590 -0.1113
 7783W        W23917   9.630   6.727   2.123 -0.0463 -0.3619  0.0567
 7784W        W23918  15.437  17.377  13.836 -0.0597  0.3727  0.1858
 7785W        W23919   3.385   9.402  11.920 -0.0188 -0.0714 -0.0372
 7786W        W23920  12.812   0.169  12.101  0.0837  0.0544  0.1361
 7787W        W23921   7.713  13.453   0.276 -0.0379  0.1626  0.1400
 7788W        W23922  14.308  14.205  13.599 -0.1307  0.4664 -0.0023
 7789W        W23923   8.886  14.362   1.422 -0.2460  0.0135  0.1569
 7790W        W23924   5.715  16.323  15.068  0.0691 -0.0675  0.0791
 7791W        W23925  12.325  11.490   0.509  0.1836  0.0957 -0.1493
 7792W        W23926   8.846  16.780   4.818  0.1191  0.2210  0.2113
 7793W        W23927   1.881  14.832  14.095  0.0112 -0.1180 -0.1723
 7794W        W23928  15.563   2.087   1.862  0.2441 -0.1382  0.3204
 7795W        W23929   4.548  13.108  13.320 -0.2465  0.1711 -0.0081
 7796W        W23930  12.557   1.498  10.831 -0.1431  0.0356  0.1481
 7797W        W23931  14.141  10.921  14.888  0.2633  0.1982  0.0181
 7798W        W23932  12.875   0.597   4.916 -0.0257  0.2028  0.1853
 7799W        W23933   5.508   8.239   0.738 -0.1518 -0.0631 -0.2492
 7800W        W23934  11.473  10.596   5.364 -0.0765 -0.2272  0.0792
 7801W        W23935  12.756  10.872  15.888  0.0750 -0.1507 -0.2243
 7802W        W23936  17.406  17.453  13.572  0.0823  0.0376 -0.0299
 7803W        W23937  15.084  11.736  13.850 -0.1858 -0.1545 -0.1820
 7804W        W23938   1.000   4.978  14.606 -0.3405  0.0368 -0.2471
 7805W        W23939  17.094  11.926   3.263  0.1308  0.0489  0.0295
 7806W        W23940  14.333   8.885  14.544 -0.2400 -0.0576 -0.0977
 7807W        W23941  11.569  15.893   0.240 -0.2201 -0.2217 -0.0178
 7808W        W23942  16.736  13.392   5.847 -0.1600  0.3082  0.1870
 7809W        W23943   7.332  12.371  16.103 -0.0476  0.1533 -0.1606
 7810W        W23944   5.875  10.344   5.049 -0.1075 -0.0194 -0.1400
 7811W        W23945   0.149   2.512  14.250  0.2753 -0.3022 -0.0153
 7812W        W23946  10.424  17.406   3.565 -0.0864  0.3910 -0.1625
 7813W        W23947  12.962  15.901   4.852  0.2361 -0.1639 -0.1335
 7814W        W23948  11.491  15.394   2.587  0.2710  0.1478  0.0218
 7815W        W23949  12.056  16.596   4.961  0.0550 -0.0366  0.0612
 7816W        W23950  13.056   7.699   5.375 -0.1768 -0.1422 -0.0861
 7817W        W23951  11.920  14.722  14.062  0.0934  0.0288 -0.1478
 7818W        W23952  12.603   2.799   0.959  0.3342  0.1601 -0.0033
 7819W        W23953   6.852   6.963   2.928 -0.2251 -0.0498  0.4747
 7820W        W23954   2.627   6.669  14.124 -0.1624 -0.0750 -0.0473
 7821W        W23955  12.967   8.598   5.182  0.0164 -0.0225  0.2169
 7822W        W23956   1.953  17.376  13.727 -0.0532 -0.0904  0.1519
 7823W        W23957   7.816   9.448  13.842  0.2306  0.1377 -0.1211
 7824W        W23958   6.419   6.049  16.309  0.4432 -0.1251 -0.1845
 7825W        W23959   6.129  12.327  14.515 -0.1955  0.1693 -0.2046
 7826W        W23960  11.564   9.589  11.681 -0.1815 -0.1038 -0.0764
 7827W        W23961   9.901  17.347   3.325 -0.2498  0.1853  0.2027
 7828W        W23962  15.132   6.451   1.334  0.5557  0.0704  0.0141
 7829W        W23963   1.106   5.133  15.589  0.0474  0.0486 -0.0107
 7830W        W23964   1.192  13.607   0.175  0.2486  0.1403  0.0512
 7831W        W23965   2.442   8.662  16.421 -0.0942 -0.1330  0.2472
 7832W        W23966  15.173   7.778  12.277  0.1898  0.0637  0.0023
 7833W        W23967  10.800  12.616   0.972  0.2810 -0.2464 -0.2662
 7834W        W23968  14.429  12.093  12.595 -0.0082  0.3328 -0.0996
 7835W        W23969   1.839  10.032  17.140  0.1963 -0.1956 -0.1357
 7836W        W23970  14.459   5.618  14.679 -0.1567  0.1472  0.0456
 7837W        W23971  11.084   7.143  13.801 -0.1238  0.0305 -0.2085
 7838W        W23972   8.524   6.421   5.124 -0.3788  0.1868 -0.0024
 7839W        W23973  14.864   2.112  13.364 -0.1325 -0.0804 -0.1420
 7840W        W23974   0.803  11.449  11.675 -0.0026 -0.2027 -0.2794
 7841W        W23975   6.715  17.368  15.249  0.0106 -0.1332 -0.2146
 7842W        W23976   4.233   6.121   4.642  0.3372 -0.0309 -0.2345
 7843W        W23977   5.354   7.240   1.549  0.1571  0.1443 -0.0402
 7844W        W23978  11.555   3.621   2.491  0.2191 -0.2727 -0.2775
 7845W        W23979   7.074  17.592  13.558 -0.1791  0.1361 -0.0188
 7846W        W23980  15.052   0.294  15.449  0.2482  0.0254 -0.1261
 7847W        W23981   4.462  11.854  15.827 -0.0520  0.1201 -0.2006
 7848W        W23982  10.171  10.115  16.491  0.0814  0.0648 -0.1725
 7849W        W23983   1.220   5.437   2.471  0.0068  0.4375  0.5503
 7850W        W23984   2.487  13.937   0.211 -0.1568  0.2547 -0.2172
 7851W        W23985   9.742   0.590   2.191  0.1209  0.0966 -0.0932
 7852W        W23986   2.872   6.032  11.849 -0.1135 -0.1511  0.1385
 7853W        W23987   9.477  16.750  16.538 -0.2486  0.1501  0.1117
 7854W        W23988   3.274  14.053   2.402 -0.3839  0.0776  0.1046
 7855W        W23989  12.007   4.970   3.874  0.0069 -0.0299  0.1131
 7856W        W23990   1.110   1.955  12.959  0.2883 -0.0298  0.2578
 7857W        W23991   6.376  10.074   1.725  0.1173 -0.2243 -0.0363
 7858W        W23992  17.093  13.941  16.512  0.0263 -0.0109 -0.2987
 7859W        W23993  12.536   0.140   5.639 -0.0151 -0.2557 -0.2571
 7860W        W23994   6.228   4.841   3.542 -0.0635 -0.0304 -0.3131
 7861W        W23995  16.948   1.086  13.070 -0.0784  0.0081 -0.0407
 7862W        W23996  16.423   0.278  13.362 -0.1591 -0.0632  0.1592
 7863W        W23997  12.977  16.776  15.536  0.1239 -0.0776 -0.1356
 7864W        W23998   1.971   7.525   2.852  0.0421 -0.0808 -0.1879
 7865W        W23999   5.769   1.958  14.424  0.3317 -0.0643  0.0253
 7866W        W24000  15.636  13.353  14.399  0.0731  0.3793 -0.0306
 7867W        W24001  10.565  11.619   4.358 -0.1704 -0.0233 -0.0079
 7868W        W24002   7.571   8.892   0.740 -0.3257  0.0834 -0.1027
 7869W        W24003   3.183   7.734  14.667 -0.0312 -0.0637  0.0913
 7870W        W24004  17.082  10.909   3.006  0.0400  0.2227 -0.2786
 7871W        W24005  14.881   9.329   3.231  0.1517  0.2331  0.0955
 7872W        W24006   3.522  11.976   5.891 -0.1212  0.1221 -0.3182
 7873W        W24007  13.210  10.946  14.582 -0.0641 -0.0388  0.1660
 7874W        W24008   6.620   2.473   2.080  0.0711 -0.0513 -0.1541
 7875W        W24009  10.311  15.295   4.294  0.1127 -0.1225 -0.2899
 7876W        W24010   1.222   1.136  15.764 -0.1227  0.2230 -0.0413
 7877W        W24011   9.852  13.281   3.546  0.2106  0.0162  0.0898
 7878W        W24012   0.361  12.927  13.465 -0.3400 -0.2765  0.1561
 7879W        W24013  10.814  12.473  14.479  0.2462  0.0498  0.1640
 7880W        W24014   0.075   4.924   2.509 -0.2359 -0.0758  0.1630
 7881W        W24015   8.246  16.770   2.510  0.0387 -0.1973  0.3397
 7882W        W24016   5.686  11.164   2.093  0.0185  0.0002 -0.0628
 7883W        W24017  14.649   1.329  16.731 -0.0059  0.0966 -0.0045
 7884W        W24018  17.155   2.500  14.351  0.0172  0.1884 -0.0176
 7885W        W24019   9.239  10.786  13.446  0.2477  0.1503  0.5809
 7886W        W24020   1.798   1.961   2.737  0.2222  0.0642 -0.2191
 7887W        W24021  12.744   4.579   4.957  0.3049  0.2528  0.4978
 7888W        W24022  16.655  16.509   0.876  0.1367 -0.0199 -0.0178
 7889W        W24023   3.173  15.004  14.607 -0.2355  0.4031 -0.2365
 7890W        W24024  16.202   1.566  13.917 -0.1414 -0.1276 -0.0740
 7891W        W24025   9.294  15.598   1.505 -0.1712  0.0111  0.1401
 7892W        W24026   9.289  14.920  15.105  0.0764 -0.1019 -0.2630
 7893W        W24027   0.013  11.307   2.617 -0.2617  0.1798 -0.1593
 7894W        W24028   1.454   6.893   1.522  0.1396  0.2551 -0.1897
 7895W        W24029  10.045  11.203  14.528  0.2353 -0.0577 -0.1729
 7896W        W24030  17.539  17.046   0.122  0.3142 -0.3960  0.0882
 7897W        W24031   3.724  16.046   0.590  0.0124 -0.3510  0.1538
 7898W        W24032   6.675   4.881  15.910 -0.0667 -0.2336 -0.0481
 7899W        W24033   2.193   4.520  12.171  0.0622 -0.0846  0.1538
 7900W        W24034   8.038   7.399  11.199  0.3087 -0.0147 -0.1560
 7901W        W24035  13.089  16.485  14.684  0.1379  0.1389 -0.1182
 7902W        W24036   1.910   2.790   1.992  0.2044 -0.1156  0.4221
 7903W        W24037  10.583   3.349  12.329  0.1943  0.4206  0.1894
 7904W        W24038  13.217   7.241  16.720  0.0384 -0.2844  0.4355
 7905W        W24039  14.463   0.604  13.586  0.1670  0.0813  0.1051
 7906W        W24040  15.801   1.006  12.855  0.1075 -0.0326  0.2682
 7907W        W24041   4.332  15.774   4.140 -0.0622 -0.2026 -0.1053
 7908W        W24042   4.769  15.051  13.854  0.0006 -0.0844  0.0028
 7909W        W24043   0.879   8.376  17.115 -0.0955  0.0392 -0.0124
 7910W        W24044   6.917   5.178   1.723 -0.0055  0.4003  0.0675
 7911W        W24045  13.142  17.389  13.424  0.0226  0.0280 -0.0428
 7912W        W24046  11.548   4.339   6.323 -0.1614 -0.0525  0.1869
 7913W        W24047   0.970   0.263  15.257  0.4353 -0.0902 -0.0479
 7914W        W24048   9.592   3.331   0.710 -0.1698 -0.1392 -0.0805
 7915W        W24049   4.987   9.592   1.900  0.2516 -0.0530 -0.2480
 7916W        W24050  10.538  12.786   3.906 -0.0483 -0.0968 -0.0746
 7917W        W24051   8.649   5.524  11.343 -0.1911 -0.0864 -0.1007
 7918W        W24052   9.590  12.846  13.151 -0.1405  0.0366 -0.4990
 7919W        W24053   8.702  12.999  12.047  0.0827 -0.1784 -0.2804
 7920W        W24054   8.235  11.660   2.572  0.2058 -0.0551  0.0086
 7921W        W24055   2.331   2.475   5.854 -0.0819 -0.0770 -0.1327
 7922W        W24056  16.219  14.838  16.658  0.0335 -0.2276  0.0632
 7923W        W24057   3.325   5.672  15.968  0.0041 -0.1373 -0.1611
 7924W        W24058   0.223   0.191  16.781 -0.2417  0.0455  0.1600
 7925W        W24059   8.441  12.348   0.818 -0.0136  0.0207 -0.0412
 7926W        W24060   6.657   0.222   2.944  0.3417  0.0379 -0.3540
 7927W        W24061  13.812  16.218   5.826  0.2082  0.1796  0.2398
 7928W        W24062   3.445  16.846   2.756 -0.2240 -0.1271 -0.1041
 7929W        W24063  13.011   0.487  14.525 -0.0218  0.0920  0.0145
 7930W        W24064  13.544   5.672  15.174 -0.4647 -0.1163  0.2238
 7931W        W24065   8.339  16.538   1.498 -0.2380 -0.0010 -0.2112
 7932W        W24066  10.514  14.393   1.407  0.1702  0.3664 -0.0541
 7933W        W24067  16.044   1.575   3.477  0.2612  0.4063 -0.1706
 7934W        W24068  11.251   9.554  12.180 -0.1191  0.0453 -0.1041
 7935W        W24069  15.825   2.505   1.788 -0.0242  0.0047 -0.0933
 7936W        W24070  16.401  12.481  11.939 -0.1855 -0.0932 -0.0250
 7937W        W24071  11.604  17.454  14.243  0.1847  0.0764  0.0914
 7938W        W24072  13.736  16.144   4.219 -0.1261 -0.0168  0.0571
 7939W        W24073  11.331   4.961   2.634 -0.0341  0.0766 -0.1950
 7940W        W24074   0.304   9.481  14.943 -0.0045  0.1017  0.1933
 7941W        W24075   1.544   3.820   6.016 -0.2691 -0.0707  0.1692
 7942W        W24076   3.194  15.897   0.721 -0.0672  0.1746 -0.5089
 7943W        W24077  10.218   9.429  15.681  0.1792  0.0832 -0.3186
 7944W        W24078  14.687   6.901  14.814  0.2742 -0.0093  0.3104
 7945W        W24079  10.830  10.934  14.327 -0.0139 -0.4460  0.0146
 7946W        W24080   0.934  15.654   6.131 -0.0643 -0.2564 -0.1235
 7947W        W24081   4.257  14.377  12.198 -0.2569 -0.2206  0.1859
 7948W        W24082  17.103   8.557   3.266  0.1015  0.0396 -0.1160
 7949W        W24083   3.549   0.430   5.665 -0.0438 -0.0657  0.2236
 7950W        W24084   3.079   4.708   0.855 -0.1905  0.1514 -0.0524
 7951W        W24085   0.214   7.760   6.017  0.1109 -0.1528 -0.0472
 7952W        W24086  16.538   6.499   3.192  0.0199 -0.0608  0.1244
 7953W        W24087  13.292  14.971   1.681 -0.3659  0.0687 -0.2424
 7954W        W24088   5.650  11.925   5.535 -0.1421  0.0303  0.2887
 7955W        W24089  10.410  10.328   3.940  0.0624 -0.0857  0.0993
 7956W        W24090   1.029  12.654   4.005 -0.0646 -0.2384  0.2842
 7957W        W24091  15.428  17.239  13.298 -0.0324  0.1314  0.2290
 7958W        W24092  14.503  11.607   1.379 -0.1264  0.0016  0.2459
 7959W        W24093   0.799  15.293   5.171 -0.2119 -0.1467  0.1495
 7960W        W24094  10.643  14.576   0.932 -0.0368 -0.0587  0.1018
 7961W        W24095  14.011  12.474  15.599  0.0692 -0.0077 -0.1499
 7962W        W24096  11.506   8.688  10.318  0.0246 -0.1729  0.1163
 7963W        W24097  10.131   6.158   4.126  0.3777  0.3516  0.2205
 7964W        W24098  11.579   4.365  13.099  0.0865  0.2278 -0.0120
 7965W        W24099  17.002   8.630   0.901  0.2634 -0.1206  0.1676
 7966W        W24100  12.991   8.522   4.074  0.1112 -0.0059 -0.1107
 7967W        W24101   6.522   5.920  11.539 -0.2792 -0.0070 -0.2295
 7968W        W24102   4.158   4.608   2.401  0.1857  0.1251 -0.1957
 7969W        W24103   9.902   2.806  16.404 -0.1577  0.0504 -0.1024
 7970W        W24104   6.403  12.893  17.164  0.1111 -0.0924 -0.2510
 7971W        W24105   5.922   9.866   1.068  0.0481 -0.2002  0.0376
 7972W        W24106  14.220   5.131  16.271 -0.1585  0.2696 -0.1441
 7973W        W24107   3.699   9.433   4.828  0.2113 -0.1612 -0.1245
 7974W        W24108  13.291  13.392   6.395 -0.0420 -0.1054  0.1294
 7975W        W24109   0.345   6.077  11.421  0.0975  0.3551 -0.2962
 7976W        W24110  16.058  17.403  16.438  0.0072  0.3886 -0.0918
 7977W        W24111   5.161   4.641   4.959 -0.2260  0.0606 -0.1041
 7978W        W24112  10.149  16.862  16.816 -0.2648  0.1611  0.0037
 7979W        W24113   7.984   1.529   3.971  0.0824  0.1731  0.0460
 7980W        W24114   8.948  17.052  16.477 -0.0646 -0.1310  0.2862
 7981W        W24115   8.102   6.518   2.132  0.0808 -0.2306  0.1442
 7982W        W24116   5.433   4.640   5.906  0.0265  0.0396  0.3143
 7983W        W24117   7.829   2.521  15.619 -0.0734 -0.0499 -0.0592
 7984W        W24118  10.605   1.047   5.407  0.0258 -0.0515 -0.0067
 7985W        W24119   5.140   4.961   6.536 -0.1588 -0.1778 -0.1003
 7986W        W24120   6.800  14.029  13.215  0.0526  0.0209 -0.4141
 7987W        W24121   1.823   6.656   5.499 -0.0310 -0.1134  0.0608
 7988W        W24122  11.874   4.274  15.290  0.1371  0.0732  0.1502
 7989W        W24123   4.888   4.161  14.713  0.2367  0.1557 -0.0194
 7990W        W24124   2.195   9.866   5.707  0.0821 -0.0946 -0.0370
 7991W        W24125   9.773   6.501   0.247  0.5843  0.0914  0.0606
 7992W        W24126   2.059   5.034   2.181  0.3586 -0.0973  0.0836
 7993W        W24127   3.442   7.585   4.265 -0.0662 -0.0279 -0.0150
 7994W        W24128  10.350   0.007  14.213  0.0098 -0.1827  0.0749
 7995W        W24129   0.651   4.890  14.260 -0.1884 -0.3126  0.0294
 7996W        W24130  17.186  12.426   0.626  0.0977  0.3293 -0.1167
 7997W        W24131  11.529  17.119   4.661  0.1911 -0.0014  0.0427
 7998W        W24132   1.299   9.345  12.621 -0.1026 -0.1683 -0.1395
 7999W        W24133   8.153  11.059   1.283 -0.0719  0.1849 -0.0106
 8000W        W24134  15.745  10.835   1.799 -0.0054 -0.3326  0.0045
 8001W        W24135  16.542   3.216   4.305  0.2110  0.2146  0.0403
 8002W        W24136   4.372  10.344   1.683  0.2505  0.3253  0.0914
 8003W        W24137   2.680  12.332  16.849 -0.0772 -0.0840  0.0120
 8004W        W24138   8.377   8.405   4.996 -0.0724 -0.0809 -0.2314
 8005W        W24139  13.548   1.536  16.025 -0.1827 -0.0445 -0.6792
 8006W        W24140   9.462   8.808   0.409 -0.2641  0.0536  0.0214
 8007W        W24141   4.546   9.988   4.079  0.0833 -0.1301 -0.1654
 8008W        W24142   8.816  11.971  16.447  0.2288 -0.0091  0.1557
 8009W        W24143   4.086   0.483   0.544  0.0124 -0.0587  0.1060
 8010W        W24144  11.733  12.709   0.035  0.0153  0.0322 -0.1994
 8011W        W24145   1.948   9.344   2.136  0.2414 -0.0710 -0.0018
 8012W        W24146   1.726  10.011   4.875  0.0199  0.2454 -0.0777
 8013W        W24147  17.597   7.093  14.330 -0.3878 -0.0068  0.0972
 8014W        W24148   9.439   8.698  16.330 -0.1323  0.1754 -0.0409
 8015W        W24149   0.266   4.657   5.391 -0.1385 -0.1107  0.0948
 8016W        W24150   9.145  13.212  13.180 -0.2090  0.1437  0.0285
 8017W        W24151   9.972  16.669   2.408  0.2005  0.1150 -0.0794
 8018W        W24152   2.830   5.974  12.341 -0.0749  0.3603  0.0898
 8019W        W24153   6.706   2.091   3.805 -0.0367 -0.1682 -0.0949
 8020W        W24154  16.874  13.969  14.406 -0.1922 -0.1153 -0.0603
 8021W        W24155   2.315   6.194  15.328  0.1788  0.0588 -0.1329
 8022W        W24156   9.164  11.986  12.991  0.0336  0.0310 -0.0969
 8023W        W24157   2.599  12.630  15.478 -0.1159 -0.0666  0.1208
 8024W        W24158   0.895   1.750  13.389 -0.0297 -0.1050  0.2759
 8025W        W24159   9.092  17.101   2.884 -0.0203 -0.0920  0.0237
 8026W        W24160  11.519  12.119   5.004  0.2082  0.0974  0.0936
 8027W        W24161   4.688   8.983  12.189 -0.0295 -0.1710 -0.2483
 8028W        W24162  14.704   4.477   2.769 -0.0781  0.0626 -0.1040
 8029W        W24163  13.470  12.283  17.073 -0.0315 -0.1311  0.1870
 8030W        W24164   6.130  11.801   2.599  0.1239 -0.0137 -0.0132
 8031W        W24165  16.789   9.209  11.657  0.1157 -0.0023 -0.1675
 8032W        W24166  14.598  10.902  12.281  0.0310  0.0322 -0.1061
 8033W        W24167  15.046   7.460   3.588 -0.2807 -0.1024 -0.0426
 8034W        W24168   7.930  16.466   3.311  0.4134 -0.0113  0.0263
 8035W        W24169  16.204  13.265   4.851  0.0449  0.0743 -0.1641
 8036W        W24170   0.823  13.868  12.397  0.5431 -0.1477  0.2469
 8037W        W24171   0.267  15.916   1.960  0.1254 -0.1043  0.0387
 8038W        W24172  15.504   3.544  17.004 -0.1776  0.2020  0.2487
 8039W        W24173   5.322   9.693  13.271 -0.2628  0.1568 -0.1031
 8040W        W24174  12.014  13.500  13.443 -0.2775 -0.0128 -0.1613
 8041W        W24175   9.991  15.465  14.495  0.1587  0.0479 -0.3257
 8042W        W24176  13.139  15.530   1.780 -0.3408 -0.0054  0.4758
 8043W        W24177  12.583  14.338   3.841 -0.0948 -0.1180  0.0706
 8044W        W24178   0.953  13.850   4.499 -0.1538 -0.0342 -0.0030
 8045W        W24179   1.707   6.478   1.273 -0.1423 -0.1159  0.0326
 8046W        W24180   3.668   3.282   0.585 -0.0027  0.1383 -0.2490
 8047W        W24181   2.559  17.277  12.871 -0.2641 -0.1565  0.0368
 8048W        W24182   2.606   9.855   0.950  0.0616 -0.2405 -0.1133
 8049W        W24183   2.412   3.330   5.196  0.0526 -0.0164 -0.1087
 8050W        W24184  16.382  17.292  14.537  0.1546 -0.1758  0.3889
 8051W        W24185   3.422   2.082  13.462 -0.1459 -0.0163  0.1459
 8052W        W24186   7.338  10.304  11.770 -0.2677  0.0150  0.0449
 8053W        W24187  16.189   2.952   4.083  0.1368  0.1400  0.2822
 8054W        W24188  13.550   2.854  10.723 -0.0887  0.1971  0.0673
 8055W        W24189   3.637   6.871   2.158 -0.1193 -0.3125  0.0254
 8056W        W24190  12.366  16.026  13.066  0.0131  0.0325  0.0641
 8057W        W24191   7.704   8.356  15.470 -0.0947  0.2244  0.3735
 8058W        W24192  15.899   4.097  13.210  0.3173  0.1739  0.2669
 8059W        W24193   9.240   3.926  12.779  0.2272  0.0073  0.4316
 8060W        W24194   2.290  10.304  12.429 -0.0078 -0.2436  0.2402
 8061W        W24195   3.120   7.847   6.115 -0.0492  0.1270  0.0867
 8062W        W24196   5.931  16.956  14.329 -0.0540 -0.0270 -0.1252
 8063W        W24197   1.696   1.582   5.280  0.1106  0.4128 -0.1343
 8064W        W24198   9.779   8.825  14.262  0.2792  0.1907  0.0507
 8065W        W24199  10.123   6.239  15.880 -0.1851 -0.0879 -0.0372
 8066W        W24200  14.396   5.560   2.852 -0.0927  0.0892  0.1483
 8067W        W24201  13.713  17.268  16.874 -0.0760  0.0177  0.0209
 8068W        W24202  10.434   1.785   0.345 -0.0821 -0.1689  0.0165
 8069W        W24203  10.672   3.233   0.942  0.1777  0.0529  0.0127
 8070W        W24204  11.059  15.361   0.728 -0.3140  0.1172 -0.1050
 8071W        W24205  14.037   4.257   0.799 -0.0508  0.0661 -0.0141
 8072W        W24206   0.155   1.393   1.470 -0.0136  0.1537  0.0288
 8073W        W24207   4.280   5.500  16.699  0.1323 -0.2893 -0.0559
 8074W        W24208   9.275   7.639   2.178  0.3431  0.0260  0.0393
 8075W        W24209   3.416   1.733   2.307  0.0391 -0.0874 -0.2993
 8076W        W24210   7.174   6.766  16.825  0.2534  0.0941  0.0466
 8077W        W24211  17.554   7.960  14.750 -0.2033 -0.1012 -0.0081
 8078W        W24212  16.614   7.410   3.554  0.1151  0.2543 -0.0317
 8079W        W24213   3.243  13.344   3.180  0.2615  0.0751 -0.0831
 8080W        W24214   8.692   3.421   0.413  0.1442 -0.0001 -0.1570
 8081W        W24215   2.051  14.872  15.409  0.4139 -0.0583 -0.1278
 8082W        W24216  10.371  10.067   4.698 -0.0035  0.2132 -0.1202
 8083W        W24217  15.776  13.025  13.406  0.1463  0.2006  0.1109
 8084W        W24218   7.501  10.738  16.340 -0.1329 -0.0559 -0.0406
 8085W        W24219  11.644   8.708   4.993  0.2358  0.3383 -0.0281
 8086W        W24220   1.838  14.236  16.042  0.1132  0.1025 -0.1103
 8087W        W24221  11.332   5.365  13.267  0.0065 -0.0347 -0.3202
 8088W        W24222   4.974   9.683   4.208 -0.0076  0.1002  0.0424
 8089W        W24223   0.276   3.253   3.841  0.0190 -0.0863 -0.1410
 8090W        W24224  10.623   5.506  14.261 -0.0782  0.5733  0.1276
 8091W        W24225   8.733  15.340  12.916  0.0722 -0.1097  0.1318
 8092W        W24226   2.040  11.001   3.211  0.0165 -0.2186  0.1284
 8093W        W24227   4.452   5.284  15.220 -0.0201  0.1814 -0.3004
 8094W        W24228  13.119   1.294  14.202 -0.2929  0.0922  0.0072
 8095W        W24229   3.866   8.273  15.403  0.0392  0.2181  0.0487
 8096W        W24230   8.963   2.803  16.166  0.2558 -0.2960  0.0818
 8097W        W24231  13.555   5.892  16.740  0.1889  0.1990 -0.0787
 8098W        W24232   3.455   7.452  14.303  0.2233  0.1699 -0.1212
 8099W        W24233   4.279   1.076   4.922  0.1833  0.2546 -0.0782
 8100W        W24234   4.283  16.701   6.160  0.0131 -0.0326  0.0114
 8101W        W24235  13.983   3.926   5.003  0.0124  0.1944  0.0993
 8102W        W24236  16.228   5.930   5.320 -0.0129  0.1861  0.1466
 8103W        W24237   4.553   0.422  13.584  0.1475  0.0236 -0.1120
 8104W        W24238   8.627  11.571  14.930  0.1929  0.0512  0.0244
 8105W        W24239   5.234   7.927  14.347  0.1541  0.1352  0.1135
 8106W        W24240   6.596   4.270  13.179 -0.2072  0.2661  0.0293
 8107W        W24241  13.676  12.814  12.185  0.0909 -0.2184  0.0244
 8108W        W24242  11.187  13.187   4.311  0.3190 -0.0504  0.1315
 8109W        W24243  13.094  14.656   5.624 -0.0286 -0.1724  0.1021
 8110W        W24244  10.559  10.152  12.016 -0.3178 -0.2306 -0.2003
 8111W        W24245  16.266  10.952   5.720  0.0124  0.0181 -0.2043
 8112W        W24246  12.149  10.193   4.174  0.0437  0.4957  0.0359
 8113W        W24247   6.995   8.334   3.511  0.2936 -0.0825 -0.2435
 8114W        W24248   1.822  15.936   1.197 -0.1420  0.0683  0.3197
 8115W        W24249   0.856   0.174   0.050 -0.1127 -0.0551  0.1353
 8116W        W24250   2.461  17.176   6.366 -0.1865 -0.0918  0.1418
 8117W        W24251   2.419  16.253  14.953  0.0542  0.1437  0.4112
 8118W        W24252   9.235   4.952   5.132  0.2898  0.1614  0.0682
 8119W        W24253   7.178   9.184   0.950  0.1016  0.3525 -0.3539
 8120W        W24254   9.152   7.588  15.003 -0.0330  0.1701  0.0986
 8121W        W24255   6.346   1.793  14.728  0.0835 -0.0084  0.2322
 8122W        W24256  14.293   8.097   5.361  0.0319 -0.0302  0.0273
 8123W        W24257   7.564   4.803  13.988  0.1563 -0.2858 -0.1572
 8124W        W24258   1.153   7.293   5.132  0.0863  0.1211  0.1189
 8125W        W24259  14.253  14.263  14.573 -0.0494  0.0689 -0.2764
 8126W        W24260   5.077   5.092   2.230  0.0421 -0.1512 -0.0367
 8127W        W24261  12.391   2.961   6.343  0.1853 -0.1104  0.0062
 8128W        W24262   3.434  17.527  12.667  0.2744  0.1149  0.0005
 8129W        W24263   4.893  13.482  12.002 -0.1796  0.1923 -0.0454
 8130W        W24264  17.140  17.342   0.839 -0.0705 -0.1610  0.2040
 8131W        W24265   3.629   2.810   2.276 -0.1226  0.1747 -0.3730
 8132W        W24266   3.523  14.392   0.105  0.0865 -0.0192  0.0709
 8133W        W24267  16.995   7.723   3.514 -0.0364 -0.0737  0.1025
 8134W        W24268  13.659  16.416   5.400 -0.2520  0.2237 -0.0329
 8135W        W24269  13.535   3.576  16.453 -0.1869  0.1709 -0.1494
 8136W        W24270  10.681   7.450  17.035 -0.4244 -0.0811 -0.0318
 8137W        W24271   9.792   0.168  12.229 -0.0968  0.2265 -0.1495
 8138W        W24272   1.824   8.536  11.008  0.1553  0.0752  0.0254
 8139W        W24273   2.613  13.185   1.384 -0.2246  0.3166 -0.1271
 8140W        W24274   2.008   1.370   1.962 -0.0150  0.0446 -0.0172
 8141W        W24275   5.725   6.305   5.007  0.1853 -0.0273  0.1263
 8142W        W24276   9.009   6.977   3.140 -0.2327 -0.0968  0.1610
 8143W        W24277  16.623  12.634   3.189 -0.0886  0.1000  0.1685
 8144W        W24278   0.415  17.491  17.010  0.2351 -0.0822 -0.1601
 8145W        W24279   9.905   4.218  13.119 -0.1060  0.0864  0.0955
 8146W        W24280   7.725   3.429  13.441  0.0580 -0.0292 -0.3243
 8147W        W24281   1.279  10.723   2.939 -0.2009  0.2179  0.1465
 8148W        W24282  11.493  13.030   3.872 -0.0889  0.0848 -0.3301
 8149W        W24283   3.261  12.814   0.725  0.0598  0.0007 -0.0285
 8150W        W24284  12.248   3.952   0.418  0.0132 -0.0545 -0.1053
 8151W        W24285  10.915   3.077   4.437 -0.1637 -0.0839  0.1906
 8152W        W24286  16.307   0.963   4.412  0.3746  0.0710  0.0862
 8153W        W24287   1.583  13.391   2.066 -0.0868 -0.0972  0.1982
 8154W        W24288   6.261  15.572   4.131  0.2174  0.1454  0.1937
 8155W        W24289   9.309   8.138   2.943 -0.1079 -0.2046 -0.1897
 8156W        W24290   7.315  10.119   5.576  0.0261 -0.2200 -0.2572
 8157W        W24291   7.365   5.119  11.830  0.0862 -0.1923 -0.1206
 8158W        W24292  11.587  10.330  14.676 -0.2158  0.1937  0.3262
 8159W        W24293  10.143   3.079  14.632 -0.0632  0.0012 -0.3415
 8160W        W24294  10.097   0.244   1.878 -0.0747 -0.1151  0.2572
 8161W        W24295   8.300   4.313  15.566 -0.1734  0.0800 -0.0134
 8162W        W24296   0.407  17.365   3.186  0.1316 -0.2497 -0.1476
 8163W        W24297  10.241  17.386   4.631  0.0041  0.0648  0.4018
 8164W        W24298   2.257  12.433  12.254  0.1647 -0.2425  0.0337
 8165W        W24299  16.153  11.231  12.510  0.0261 -0.1573 -0.3487
 8166W        W24300   0.407  10.774  16.156 -0.1177  0.1771 -0.3009
 8167W        W24301  16.591  17.268  14.993  0.1518 -0.0167  0.2056
 8168W        W24302   1.620   5.959  12.155 -0.0472  0.1813  0.0328
 8169W        W24303  16.606   4.684   2.319  0.1092 -0.0704  0.3221
 8170W        W24304   8.405   9.324  13.454  0.0200  0.0109 -0.0950
 8171W        W24305   0.966   8.407   2.164 -0.3375 -0.0023 -0.0791
 8172W        W24306   1.062   5.587   3.349 -0.0177  0.2237 -0.2740
 8173W        W24307  11.360  17.265   0.766 -0.0966  0.0154 -0.1516
 8174W        W24308  13.373   1.111  12.379  0.3001 -0.0206  0.0074
 8175W        W24309  14.827   7.336  13.851 -0.0405  0.1676 -0.0476
 8176W        W24310  14.989  13.653   1.696  0.1454  0.2522  0.1559
 8177W        W24311  12.341   9.345  12.363 -0.1262 -0.1498 -0.0203
 8178W        W24312  13.054   0.158  15.867 -0.4375 -0.2480 -0.1226
 8179W        W24313   6.824  11.036  15.751 -0.0897  0.1657 -0.1043
 8180W        W24314  12.757   8.903   0.911 -0.0513  0.0123  0.0191
 8181W        W24315   9.515  11.403   0.200  0.3216 -0.1145  0.2792
 8182W        W24316   5.304   6.255   4.708 -0.0689  0.1187 -0.2042
 8183W        W24317  17.190   2.779  15.114 -0.0507 -0.0554 -0.1358
 8184W        W24318   4.723   6.094   0.102  0.1337  0.0037 -0.0803
 8185W        W24319  14.589   4.189  15.548 -0.0301 -0.1493  0.1640
 8186W        W24320  15.295   4.937   1.379  0.1532 -0.3605  0.0375
 8187W        W24321   3.762   0.604   3.139  0.0418  0.1476 -0.0938
 8188W        W24322   8.679   0.487  12.922 -0.0246 -0.0601  0.0439
 8189W        W24323  13.703  10.942  13.566  0.0749 -0.1835 -0.0837
 8190W        W24324   4.797   5.481  12.746 -0.6145 -0.0691 -0.1105
 8191W        W24325   5.970   2.242   4.547  0.0214  0.1964 -0.1612
 8192W        W24326  11.177  13.517  12.457  0.0451  0.0180 -0.0488
 8193W        W24327   4.870   3.981  11.916  0.0104 -0.1959 -0.2242
 8194W        W24328   2.283   7.228  16.175 -0.0142 -0.0554 -0.1297
 8195W        W24329   7.246  11.352   2.949  0.1110 -0.1767 -0.0447
 8196W        W24330   4.561  15.396   2.638  0.0415 -0.0284 -0.0089
 8197W        W24331  12.421   5.866   4.665 -0.1230 -0.1737 -0.1743
 8198W        W24332   5.125   6.755   2.508  0.2249  0.2792 -0.0509
 8199W        W24333  11.137   0.810  15.430  0.1396 -0.2684  0.1451
 8200W        W24334  10.306   7.149   0.872 -0.0174  0.0460 -0.0594
 8201W        W24335   1.791  16.315  12.566  0.2326 -0.2076 -0.1651
 8202W        W24336   6.977  11.222  15.028  0.1985  0.1010  0.0087
 8203W        W24337  11.613   5.765  12.004  0.1527 -0.3940 -0.0303
 8204W        W24338  11.937  15.932  13.495 -0.0075 -0.0394  0.0485
 8205W        W24339   9.283   2.863   0.448 -0.1398 -0.1420 -0.2691
 8206W        W24340  12.458  13.255  16.763  0.1084  0.1775  0.0421
 8207W        W24341   7.805   9.134  14.174 -0.1394  0.2377  0.1293
 8208W        W24342  16.305  15.001   1.180 -0.2531  0.0608  0.1307
 8209W        W24343   9.849   9.030   4.771 -0.1696 -0.0047  0.1812
 8210W        W24344  15.178  14.205  13.927  0.2991  0.1064 -0.1729
 8211W        W24345  15.445  13.140   4.423  0.0920  0.0342 -0.0355
 8212W        W24346  13.188   9.891   4.222  0.0151  0.0612 -0.2772
 8213W        W24347  15.291   7.170   5.301  0.1147 -0.1004  0.0031
 8214W        W24348   5.760   0.160  15.423  0.0446  0.0624 -0.0508
 8215W        W24349  12.573   4.122   3.951  0.0855 -0.0323  0.2306
 8216W        W24350   2.504   9.396   0.081  0.0134 -0.0848  0.0219
 8217W        W24351   3.992  16.869  13.210 -0.0039  0.0149 -0.2073
 8218W        W24352   3.709  16.802  12.001 -0.0913 -0.0869  0.0745
 8219W        W24353   0.637   5.981  11.793 -0.1382 -0.0494  0.1651
 8220W        W24354  14.239   8.758  12.362  0.1210  0.0097  0.0381
 8221W        W24355   5.082  13.256  11.006 -0.1207  0.0794  0.0981
 8222W        W24356   0.746   6.153   4.492 -0.2189  0.0019 -0.3824
 8223W        W24357  16.573  16.022   5.543 -0.3627  0.2062  0.0928
 8224W        W24358  14.610   4.422   0.395  0.0239 -0.3510 -0.0868
 8225W        W24359   1.982  15.640  16.689 -0.0781 -0.2430  0.2662
 8226W        W24360   6.706   9.704  15.924 -0.1235  0.0583 -0.0017
 8227W        W24361   4.860  16.549  13.514  0.0182  0.0955  0.1862
 8228W        W24362   4.890  13.530   6.067  0.0428  0.0621 -0.1211
 8229W        W24363   8.501   4.742  11.806  0.0231 -0.1142 -0.0405
 8230W        W24364   3.443   8.142   4.561  0.0145  0.2639 -0.0788
 8231W        W24365   1.084  11.501  16.139  0.0964 -0.1595 -0.1475
 8232W        W24366   9.449   3.106  11.497  0.0250  0.2728 -0.0517
 8233W        W24367  15.287  12.695   1.294  0.1697  0.0363 -0.1014
 8234W        W24368   1.154   2.837  14.308  0.1685  0.2548  0.0349
 8235W        W24369  11.971  16.761  16.673 -0.0442  0.1656  0.2409
 8236W        W24370   3.858  12.125   3.392 -0.1292  0.0081 -0.0526
 8237W        W24371   0.060   4.920   4.994  0.3762 -0.0757 -0.2304
 8238W        W24372  10.258   9.600  14.339  0.1624 -0.2185  0.1881
 8239W        W24373  11.997   1.105   0.594  0.0028  0.0805  0.2527
 8240W        W24374   4.590   6.430   3.021  0.2828 -0.0797 -0.0358
 8241W        W24375   6.411   8.491  13.944 -0.1195 -0.1796 -0.1636
 8242W        W24376  12.178   0.604   4.254  0.0337  0.3152  0.0903
 8243W        W24377   0.528  10.141  13.807 -0.1181  0.0355 -0.0471
 8244W        W24378   2.714  14.328  13.195 -0.1425  0.2817  0.3069
 8245W        W24379  17.285   8.616  12.069  0.0927 -0.1594  0.0900
 8246W        W24380  11.911   5.216  14.827 -0.1128 -0.2956  0.3189
 8247W        W24381  16.645  17.243   0.496 -0.0550 -0.0492  0.0778
 8248W        W24382  11.131   9.106   0.881  0.0234  0.3631 -0.0605
 8249W        W24383   3.357   3.306   1.028 -0.0652 -0.2339 -0.1589
 8250W        W24384   1.777  17.573  12.491  0.0198  0.0232 -0.0590
 8251W        W24385  14.350  10.436  14.565  0.0600 -0.2179 -0.0210
 8252W        W24386  12.862   6.924   2.955  0.0197 -0.4404  0.0377
 8253W        W24387   1.728  14.456  12.491 -0.1707  0.2138 -0.0039
 8254W        W24388  15.251   7.190   0.909 -0.0450 -0.0712 -0.0931
 8255W        W24389   0.765   6.548  13.143 -0.3895  0.2215  0.0126
 8256W        W24390   2.991  16.433   5.219 -0.1133  0.3366  0.0851
 8257W        W24391   7.536  16.303   5.132  0.2103  0.0196  0.1015
 8258W        W24392   4.631  15.955  13.192 -0.0738  0.0704 -0.0903
 8259W        W24393   4.654  12.347  13.156 -0.2666 -0.3292  0.1813
 8260W        W24394  17.052  15.361  16.609  0.1046 -0.4228  0.1757
 8261W        W24395   8.551  14.163  13.805  0.1902 -0.1589 -0.2130
 8262W        W24396   0.963   0.877  16.224 -0.3349  0.0173 -0.0278
 8263W        W24397  10.991  10.354   5.244 -0.3327 -0.2329 -0.1033
 8264W        W24398   3.193  17.366  12.068 -0.2864  0.1457  0.0493
 8265W        W24399  16.851   6.074   5.436 -0.1282 -0.0303  0.0362
 8266W        W24400   2.768  15.324  16.190  0.0605  0.1898  0.0272
 8267W        W24401   0.848   2.017   4.781  0.2996 -0.2321  0.4818
 8268W        W24402  15.728  16.286   0.528 -0.0148 -0.2091 -0.0850
 8269W        W24403  17.153  11.299   2.682 -0.0906 -0.0722 -0.1408
 8270W        W24404   5.313  10.245  14.278 -0.1520  0.1716  0.2018
 8271W        W24405   2.042   7.469  11.433 -0.0678 -0.3551  0.0304
 8272W        W24406   0.055   0.706  12.180  0.0636  0.0658  0.0573
 8273W        W24407  16.739   3.522  13.724 -0.3368  0.3262  0.0559
 8274W        W24408  13.608  16.156  15.816 -0.0264 -0.2675 -0.1763
 8275W        W24409   6.844  14.649  12.866 -0.2644 -0.1355 -0.1919
 8276W        W24410  10.799  11.752  16.919 -0.0990  0.0961 -0.2505
 8277W        W24411   9.748   5.260  11.316 -0.4851 -0.0290  0.2474
 8278W        W24412   1.260  16.780   1.378  0.0363  0.0749 -0.2734
 8279W        W24413   3.729   4.208   4.603  0.3166 -0.0153 -0.0404
 8280W        W24414  14.048   1.854  17.020 -0.1950  0.0593  0.2100
 8281W        W24415  15.305   5.675   1.368  0.0727 -0.0793 -0.1030
 8282W        W24416  13.419   1.673   4.596  0.4164 -0.0289  0.2165
 8283W        W24417   9.224  13.773  14.461  0.2303  0.0327  0.0762
 8284W        W24418   3.094  11.803  12.669 -0.0439  0.1206  0.5403
 8285W        W24419   0.764   7.774  13.159  0.0541  0.2398  0.1260
 8286W        W24420   5.987   4.546  16.534 -0.0625 -0.1828 -0.3218
 8287W        W24421  16.052   3.119   1.156 -0.0741  0.1744  0.2364
 8288W        W24422  16.452   1.687  12.527  0.2207  0.0459 -0.1487
 8289W        W24423   6.434   2.547  15.335 -0.0645  0.0156  0.1878
 8290W        W24424  14.869  10.283   3.696  0.1803  0.5201  0.0160
 8291W        W24425   0.489  12.314   1.170  0.2809  0.0720  0.1175
 8292W        W24426  10.941  15.078   4.405 -0.2638  0.1693  0.0359
 8293W        W24427   9.234   4.372  11.377  0.3152  0.0222 -0.1294
 8294W        W24428   4.790  13.898  15.870  0.2834  0.1782 -0.2545
 8295W        W24429  17.273   5.674   0.409 -0.1850  0.0022  0.0510
 8296W        W24430   1.844  14.727   4.741 -0.1484  0.0888 -0.2377
 8297W        W24431  15.713   8.423   2.962  0.1737  0.4161  0.0650
 8298W        W24432   6.322  15.555  13.241  0.2727 -0.1152  0.0426
 8299W        W24433   7.902  10.842  12.918 -0.1506 -0.1164 -0.0793
 8300W        W24434  15.481  13.459  12.410  0.2624 -0.0810  0.0037
 8301W        W24435  17.312  16.142  15.145 -0.5483 -0.2498 -0.1213
 8302W        W24436  14.326   7.294   0.061 -0.0091 -0.1264 -0.1149
 8303W        W24437   2.003  16.609   1.743 -0.3860  0.2496 -0.2804
 8304W        W24438   9.085   9.691   0.293  0.1371  0.1717  0.0100
 8305W        W24439   4.597   8.161   3.984 -0.0034  0.0661 -0.0687
 8306W        W24440  17.628   4.452  15.427  0.1588 -0.0289 -0.1894
 8307W        W24441   3.108   4.212  13.142 -0.0423  0.0168 -0.0007
 8308W        W24442   8.885   4.082  16.315  0.1499 -0.0020  0.5775
 8309W        W24443  17.417  10.489  16.711 -0.2973 -0.0606  0.2887
 8310W        W24444   7.885  13.078   3.388  0.1237 -0.2923  0.3149
 8311W        W24445   1.451   2.887  17.055  0.2776  0.3857 -0.1672
 8312W        W24446  14.519  11.707   2.406 -0.1796 -0.0186 -0.0672
 8313W        W24447   8.910   9.111   5.748 -0.4076 -0.0651 -0.0934
 8314W        W24448  10.288  11.714   2.695  0.2352  0.3317 -0.2382
 8315W        W24449   1.850   3.553   0.199  0.1118  0.0893  0.1332
 8316W        W24450   2.261  15.869  15.156 -0.2000  0.0770  0.1796
 8317W        W24451  11.223   9.330   0.430  0.0223  0.0893  0.2360
 8318W        W24452   4.875  13.607   4.750  0.1307  0.0079 -0.2222
 8319W        W24453   5.835   4.618   2.739  0.0686 -0.2413 -0.0716
 8320W        W24454   9.984   2.588  13.508  0.0762 -0.2106  0.1137
 8321W        W24455  17.130  17.647  13.150  0.0200 -0.1605  0.0036
 8322W        W24456   1.441   2.020   6.208  0.3519 -0.0240  0.2876
 8323W        W24457   5.202  10.443   1.760 -0.0896 -0.0205 -0.2255
 8324W        W24458   1.349  11.687   3.684 -0.2146 -0.0146 -0.0697
 8325W        W24459  14.974   4.004  13.684  0.3605  0.1050 -0.0351
 8326W        W24460   8.692   6.077   0.122 -0.0375  0.0195 -0.0787
 8327W        W24461  12.154   4.153  16.567  0.0679 -0.1312  0.1243
 8328W        W24462   6.200   8.308   1.704  0.0822 -0.2788 -0.1101
 8329W        W24463   7.568  10.156  12.785  0.2215 -0.0362  0.0621
 8330W        W24464   9.648  13.768  14.198 -0.1733  0.0049  0.0220
 8331W        W24465   5.976   5.973   1.612 -0.1206 -0.1038 -0.1065
 8332W        W24466   9.645  13.318   5.385 -0.1091 -0.1720  0.0765
 8333W        W24467   1.446  14.421   6.007  0.2476 -0.0601 -0.1083
 8334W        W24468  15.586   5.787   1.749 -0.0418 -0.3098 -0.0601
 8335W        W24469  17.375  10.289  15.937  0.2200  0.0426  0.0414
 8336W        W24470   2.066   6.640   0.262 -0.1514  0.2524  0.2738
 8337W        W24471   2.798  13.026   4.443  0.1781  0.3181 -0.1282
 8338W        W24472   9.009  11.695   4.523  0.1797 -0.1526  0.2436
 8339W        W24473   7.271  14.116  13.601  0.0334 -0.0751  0.0208
 8340W        W24474  11.350  16.594   4.490 -0.1612  0.1619 -0.1691
 8341W        W24475   7.940  12.141  16.293  0.1055  0.1359  0.1408
 8342W        W24476   0.392   7.054  15.727 -0.0195  0.0486 -0.0233
 8343W        W24477   8.911   3.169   3.899  0.0089  0.0708 -0.0263
 8344W        W24478  10.889  12.942   3.066  0.2190  0.2594 -0.1217
 8345W        W24479   0.381  11.908  13.133 -0.2162  0.0116  0.3754
 8346W        W24480   1.786   5.714  11.266  0.2969  0.3829 -0.0348
 8347W        W24481   8.789   7.895   3.294  0.0349 -0.4885 -0.2103
 8348W        W24482   5.805   1.067  16.236  0.0282  0.0276 -0.1118
 8349W        W24483  16.243  14.290   2.800 -0.0648 -0.0074 -0.0400
 8350W        W24484  14.911   2.308   5.916 -0.0574 -0.2231  0.0346
 8351W        W24485   5.962   7.471  15.000 -0.1924  0.0081  0.0033
 8352W        W24486   5.604   3.527   1.322  0.0896 -0.0223  0.0513
 8353W        W24487  15.304  12.110   5.056  0.1747 -0.3507  0.2490
 8354W        W24488  13.519  11.247  13.234  0.1245 -0.1133  0.2692
 8355W        W24489  17.083  11.079  10.459  0.2906 -0.2858  0.0388
 8356W        W24490   9.679  10.736  13.727  0.2598  0.0859  0.0737
 8357W        W24491   4.650  11.737   1.640  0.0085  0.0909  0.2385
 8358W        W24492   4.153   5.377  16.116  0.1140 -0.0067  0.0545
 8359W        W24493   1.233  13.963  14.249  0.0718 -0.2940 -0.0642
 8360W        W24494   1.084   7.399   0.121 -0.0119 -0.2592  0.0490
 8361W        W24495  14.827  17.496   2.879  0.4834  0.2323  0.3452
 8362W        W24496   1.062  14.815  13.878 -0.0889  0.4315 -0.0724
 8363W        W24497   3.482  16.459   4.962 -0.0098 -0.1343  0.0981
 8364W        W24498   4.272  14.659   4.055 -0.0888 -0.0372  0.1854
 8365W        W24499  12.666   1.680   0.917  0.1012 -0.1121 -0.1236
 8366W        W24500  14.345  10.300   4.304 -0.1306 -0.1935  0.0681
 8367W        W24501   0.036   5.339   0.543 -0.3321  0.0599  0.0058
 8368W        W24502  11.629  15.206  15.488  0.0683 -0.2225  0.1965
 8369W        W24503  13.751   3.211  11.086 -0.2553 -0.2953  0.0013
 8370W        W24504   3.098  16.770  12.389 -0.1554 -0.1248  0.0925
 8371W        W24505   5.147  15.199   3.877 -0.2597  0.1074 -0.3285
 8372W        W24506   5.117   0.203   4.340 -0.1992  0.3794 -0.3367
 8373W        W24507   0.579   1.068  16.822 -0.0567 -0.0972  0.0140
 8374W        W24508   0.645  16.958  13.362 -0.0232 -0.0194  0.1590
 8375W        W24509  14.974  10.641   1.509 -0.0933 -0.0073  0.0224
 8376W        W24510   7.322   5.864   4.477 -0.1669 -0.2025 -0.3686
 8377W        W24511  13.575   5.304  11.524  0.0141 -0.2113 -0.2123
 8378W        W24512   6.669   7.041   2.385 -0.0751 -0.2006 -0.0400
 8379W        W24513   3.960   0.387  16.299  0.2113 -0.0252  0.0093
 8380W        W24514   5.641   3.042   4.357 -0.1489  0.0346  0.0861
 8381W        W24515  16.188   0.451  16.462  0.0733  0.0944  0.0820
 8382W        W24516  12.257  13.099  15.824 -0.1399 -0.1281  0.2324
 8383W        W24517   1.089   4.933  16.525  0.3258 -0.0002 -0.2504
 8384W        W24518  12.547   5.481   3.915  0.0292  0.1303  0.0582
 8385W        W24519   6.861  12.068  11.986  0.1975 -0.2972  0.1059
 8386W        W24520  15.566   5.697  11.663  0.2038  0.0577 -0.1525
 8387W        W24521   6.743   2.317   5.185  0.0744  0.1096 -0.1796
 8388W        W24522  16.454   5.051   1.351  0.0350  0.0296 -0.0162
 8389W        W24523   3.471  17.092   2.065  0.0972 -0.1105 -0.0117
 8390W        W24524   6.457   4.865   0.889  0.1283  0.1939 -0.0970
 8391W        W24525   7.284   0.400  15.204  0.2364  0.1588  0.0376
 8392W        W24526   1.707   4.887   4.380 -0.0188  0.0285  0.0923
 8393W        W24527   7.080  13.681  14.337  0.1160 -0.1051 -0.2445
 8394W        W24528   3.855  16.672  14.555 -0.1756  0.2253  0.0991
 8395W        W24529   3.232   0.374   2.990  0.4450  0.0856 -0.2272
 8396W        W24530   2.476   9.759   3.729 -0.1360  0.2246  0.1917
 8397W        W24531  12.009  17.029   1.361  0.0237  0.0345 -0.0379
 8398W        W24532   4.775  17.252   2.241 -0.1376 -0.1953  0.2219
 8399W        W24533   0.213   5.761  14.622 -0.3978  0.1675 -0.2361
 8400W        W24534   5.059   1.081  15.742 -0.0284 -0.2034 -0.2426
 8401W        W24535   7.651   4.178  15.066 -0.0649 -0.4592  0.0586
 8402W        W24536   9.143   6.816  16.195 -0.2151 -0.0284 -0.0855
 8403W        W24537   0.419   5.787  16.917 -0.0087  0.0617 -0.1337
 8404W        W24538  14.178   9.339   1.632 -0.0722 -0.0031 -0.1026
 8405W        W24539   1.786   0.494   1.979 -0.2697  0.0431  0.0771
 8406W        W24540  14.483   7.598  15.552 -0.0577 -0.1687  0.1725
 8407W        W24541   1.392   2.594   1.138 -0.2843 -0.2365  0.1800
 8408W        W24542  13.430  15.793   3.542 -0.2895  0.0765  0.0329
 8409W        W24543  13.558   1.207   1.305  0.1688  0.0695  0.1918
 8410W        W24544   9.031   3.633   1.091 -0.0703 -0.1159  0.0746
 8411W        W24545  10.767  15.561   5.602  0.1428 -0.1805 -0.0533
 8412W        W24546   6.013   5.989  13.876  0.0420 -0.1460  0.2158
 8413W        W24547  13.057  10.732   1.222  0.1858  0.2605 -0.2006
 8414W        W24548   4.524  17.156  12.425 -0.1071 -0.0765  0.2116
 8415W        W24549  15.992   0.983   2.824 -0.1122 -0.0124  0.0641
 8416W        W24550   2.096   1.394  12.757 -0.1570  0.3278  0.1312
 8417W        W24551   3.357   4.355  14.274  0.2126 -0.1885 -0.2054
 8418W        W24552  16.504   9.037  17.159 -0.3078 -0.2926 -0.1568
 8419W        W24553   2.586   0.466   2.158  0.0169 -0.1116  0.3176
 8420W        W24554   4.684  16.623   1.432  0.4517  0.0723  0.0332
 8421W        W24555   7.743   8.917   2.833 -0.1561 -0.0435 -0.0284
 8422W        W24556  15.676   9.611  16.828  0.1359 -0.4343 -0.2264
 8423W        W24557   3.321   8.683  14.786  0.3026 -0.1304 -0.0706
 8424W        W24558  16.372   4.555   4.880  0.2219 -0.0377  0.0615
 8425W        W24559   0.766   8.146  16.680  0.1839 -0.0152  0.0374
 8426W        W24560   1.103  12.660  14.535  0.1870 -0.0236 -0.2283
 8427W        W24561   7.598   2.083  13.762 -0.1434 -0.0810  0.1003
 8428W        W24562   8.202  16.622  11.759 -0.2258  0.2902 -0.1056
 8429W        W24563  12.699  10.691  11.583  0.2865  0.1231 -0.1304
 8430W        W24564   7.809  15.526   0.998  0.0318 -0.0195 -0.2252
 8431W        W24565   8.432  12.909   2.077  0.0323 -0.1246  0.0309
 8432W        W24566   9.242   7.876  12.912 -0.2424 -0.0626 -0.1578
 8433W        W24567   5.303  16.403   4.686 -0.2501  0.1820  0.3054
 8434W        W24568   9.505  12.033  13.427  0.0397 -0.1590  0.0296
 8435W        W24569   1.697  12.056   3.446  0.2506  0.3086  0.1617
 8436W        W24570   7.752   0.649  14.761 -0.0722  0.0351 -0.1840
 8437W        W24571  10.595  10.476   0.692 -0.3044 -0.2130 -0.0609
 8438W        W24572  12.890   3.313  16.717  0.0546  0.0365 -0.3193
 8439W        W24573   8.652   3.337  13.151  0.1441  0.0773 -0.3441
 8440W        W24574   1.583  14.340  13.491 -0.1887  0.2211  0.0198
 8441W        W24575  16.437   2.323  13.172 -0.1697  0.0466  0.2205
 8442W        W24576   8.663   1.152   0.595  0.1244  0.1680 -0.1906
 8443W        W24577   3.932  14.472   4.293 -0.1130  0.4307  0.1612
 8444W        W24578   8.253   5.502  16.069 -0.0057 -0.1431  0.0469
 8445W        W24579   4.386  12.391  15.532 -0.1581 -0.0625  0.0218
 8446W        W24580  11.702   6.163  12.359 -0.1105  0.1209  0.0623
 8447W        W24581   5.332   8.001  16.646  0.3366  0.2403  0.2367
 8448W        W24582   4.044   9.778  16.523  0.0264 -0.0844  0.1474
 8449W        W24583   8.398  10.984   5.931 -0.1722  0.0238 -0.0021
 8450W        W24584   0.830   7.168  13.225  0.0290  0.2091  0.1646
 8451W        W24585   0.811  10.012   5.829 -0.1445  0.0951  0.4248
 8452W        W24586  10.163   3.836   1.238 -0.1778 -0.0294 -0.2246
 8453W        W24587  11.452   9.687  14.728  0.0596  0.0274  0.2117
 8454W        W24588   4.897   2.233   4.835  0.0750 -0.1791  0.0151
 8455W        W24589  10.844   1.296   3.637 -0.2043 -0.3141 -0.3355
 8456W        W24590  11.413  14.444  16.300  0.1069  0.0268  0.1576
 8457W        W24591  17.060  13.145   5.477 -0.3594 -0.3120 -0.0156
 8458W        W24592  10.368   9.647  16.725 -0.1128 -0.3365  0.0524
 8459W        W24593  14.361  10.146   1.709 -0.0055 -0.1077 -0.4078
 8460W        W24594  17.082  10.767  12.608  0.0437  0.2029  0.2791
 8461W        W24595  11.798  12.199  14.592  0.0174  0.2925 -0.1758
 8462W        W24596   8.572  11.018  15.923  0.2438  0.0766  0.0384
 8463W        W24597   6.986   5.929   1.187  0.1174 -0.1608  0.0314
 8464W        W24598   9.898   0.115  12.759 -0.0136 -0.1202  0.0778
 8465W        W24599   4.191  17.573  16.717 -0.1081  0.1197 -0.2582
 8466W        W24600  11.664   5.661   4.402 -0.0534 -0.5356  0.4307
 8467W        W24601   8.427   3.824  12.040  0.0393 -0.2425  0.1200
 8468W        W24602  13.678   9.851   3.587  0.2267  0.0488 -0.1461
 8469W        W24603   9.001   8.973   0.230 -0.0065 -0.1157  0.2094
 8470W        W24604  13.404  10.371  16.663 -0.1145  0.1786  0.0734
 8471W        W24605   8.961   0.662   0.450  0.0035 -0.0146 -0.0736
 8472W        W24606   9.003   9.897  13.344  0.3313  0.0548 -0.0365
 8473W        W24607   6.928   7.360   2.047 -0.3052  0.0446  0.0019
 8474W        W24608   3.548  17.337   2.776 -0.1424 -0.1354  0.1754
 8475W        W24609   4.130  15.136   1.739 -0.0007 -0.0318  0.2195
 8476W        W24610   3.276   1.344   4.188  0.0081 -0.0424 -0.0371
 8477W        W24611  12.089  17.207   3.039 -0.2555  0.0595  0.2600
 8478W        W24612  17.334   3.794   5.630  0.1111 -0.2936 -0.2371
 8479W        W24613   1.722  12.468  14.354  0.0994 -0.2114  0.2386
 8480W        W24614   8.682  16.750  16.174 -0.1589 -0.1695 -0.0977
 8481W        W24615   5.891   7.349  14.395 -0.3694 -0.2126 -0.0730
 8482W        W24616   6.951   6.034  11.918  0.1574  0.0530  0.0471
 8483W        W24617  15.753   4.395   4.081 -0.0327  0.0908  0.0669
 8484W        W24618  17.625  11.580  12.137 -0.0272 -0.1762 -0.0753
 8485W        W24619  11.047   0.715   1.601  0.0309 -0.0134 -0.0815
 8486W        W24620   4.243  13.932  13.550  0.0995 -0.0209  0.1615
 8487W        W24621   6.555   5.543   4.050  0.0309 -0.0618 -0.0142
 8488W        W24622   5.803   3.007   2.276  0.1310  0.3564 -0.1884
 8489W        W24623  16.907   7.553  16.129  0.3302  0.1125 -0.0487
 8490W        W24624   1.214   8.708   3.794 -0.0075  0.0506 -0.2207
 8491W        W24625   3.495   0.005  14.602 -0.2756 -0.1627 -0.0340
 8492W        W24626   0.323   5.512   1.906 -0.1852 -0.2385  0.1475
 8493W        W24627   0.114   2.946  16.972  0.3374  0.2109 -0.1512
 8494W        W24628   7.546   5.000   2.246  0.1092  0.3601  0.0575
 8495W        W24629  11.149   2.067   5.845 -0.2527 -0.1979 -0.0750
 8496W        W24630   7.668   5.505   4.751  0.0968 -0.0864 -0.0842
 8497W        W24631  15.967  17.142  13.120  0.1529  0.1233  0.1006
 8498W        W24632  14.744  15.820   0.315 -0.1090  0.0293  0.0573
 8499W        W24633   8.021   3.855  15.933 -0.2236 -0.0526  0.1535
 8500W        W24634   4.301   3.244  16.531 -0.0336  0.2510  0.1779
 8501W        W24635  13.653  14.849  12.269  0.2446 -0.0642  0.0222
 8502W        W24636  11.081  10.046  12.259 -0.3177 -0.1445  0.0369
 8503W        W24637  13.440  12.871  14.419  0.0319  0.2721 -0.2471
 8504W        W24638  15.392  16.772  13.647  0.2437  0.2026 -0.0973
 8505W        W24639   5.040   4.854   1.438 -0.0522  0.0641 -0.1067
 8506W        W24640   2.476   9.982   5.299  0.1302  0.2044 -0.0027
 8507W        W24641   4.250   1.232  12.508 -0.1788  0.1451 -0.1145
 8508W        W24642   7.268   9.863  13.843 -0.1236 -0.0491 -0.2177
 8509W        W24643   6.843  10.283   3.878  0.0406 -0.2242  0.2879
 8510W        W24644  10.873   2.761   3.627  0.0584  0.0534 -0.1660
 8511W        W24645   2.662   7.895   3.123  0.4384  0.1632 -0.2646
 8512W        W24646  13.241   2.058   4.304  0.3220  0.0552  0.1523
 8513W        W24647   1.681   6.941   0.348  0.1113 -0.0076 -0.1202
 8514W        W24648  16.873  11.167  12.054  0.0386  0.0914  0.0910
 8515W        W24649  11.403  17.544   1.843  0.2386  0.3672 -0.0189
 8516W        W24650  15.820   7.911  13.021 -0.0068  0.0235 -0.2514
 8517W        W24651  12.066   7.651   5.578 -0.1647  0.1826 -0.0626
 8518W        W24652  16.140  11.574  15.746  0.1312 -0.1280  0.4138
 8519W        W24653  16.883   9.223   0.898  0.0136 -0.2980  0.2447
 8520W        W24654   9.350   6.241  12.862  0.0088 -0.1206  0.1116
 8521W        W24655   8.757   6.693   4.184  0.3242 -0.0481  0.2928
 8522W        W24656  13.062   0.102   2.297 -0.2517  0.3175  0.0082
 8523W        W24657   5.529  12.751   1.242  0.0094  0.1360  0.1491
 8524W        W24658   6.785  13.626   1.364  0.0326 -0.0615 -0.0243
 8525W        W24659   4.684   8.165   1.513  0.0485 -0.0464 -0.1827
 8526W        W24660   9.772  14.388  13.630  0.0150  0.0275 -0.2036
 8527W        W24661   9.326  13.562  13.431 -0.2436  0.0205 -0.0126
 8528W        W24662   3.765   1.350   4.270  0.0454 -0.0115 -0.0440
 8529W        W24663   1.912   5.377   5.119 -0.2221 -0.1147 -0.2161
 8530W        W24664  14.844  14.115   1.939  0.0208  0.0833  0.3205
 8531W        W24665   9.547  12.736   2.803 -0.0876  0.0336  0.4069
 8532W        W24666  10.360   9.726   4.335 -0.2662 -0.2831  0.0813
 8533W        W24667  17.122   4.807   0.112 -0.0862 -0.0587 -0.2134
 8534W        W24668   3.361  16.821  13.727 -0.2273 -0.0384 -0.2179
 8535W        W24669   2.004   9.144   3.360  0.0499  0.0815  0.0707
 8536W        W24670  14.898   4.859   0.028 -0.1212  0.3397 -0.3267
 8537W        W24671  14.067  10.885  13.849  0.1895 -0.0145 -0.0762
 8538W        W24672  14.145   7.941   4.028  0.0343  0.2940 -0.0351
 8539W        W24673   0.077   1.800   6.731  0.0308  0.0836  0.0305
 8540W        W24674   4.391   8.669  12.618 -0.0750 -0.5258 -0.1512
 8541W        W24675  12.058   2.937   3.223  0.1558 -0.0739  0.0725
 8542W        W24676  15.882   9.867  14.849  0.0968  0.0112 -0.0884
 8543W        W24677  15.937   3.720   0.719  0.1852  0.1977 -0.2251
 8544W        W24678  10.869   9.533   5.226  0.1069 -0.2112  0.0290
 8545W        W24679  14.766   1.522  15.278  0.0531 -0.1068 -0.0437
 8546W        W24680  15.486  11.132   4.467  0.0053 -0.2748  0.1598
 8547W        W24681   6.705   6.572  16.960 -0.0780  0.0320  0.2484
 8548W        W24682  10.840   2.515  15.382  0.0338 -0.3239  0.0099
 8549W        W24683  17.308  13.480  11.862  0.0195 -0.1816  0.0599
 8550W        W24684   4.281   0.862  12.963  0.2004 -0.0771  0.1792
 8551W        W24685  15.939   1.312  14.737 -0.0744 -0.0387  0.2562
 8552W        W24686   5.381  15.397   0.900  0.2552  0.2075  0.0133
 8553W        W24687   9.163  13.114   5.393  0.2483  0.1603  0.0186
 8554W        W24688   1.569  10.881   3.873  0.0214  0.1086 -0.1048
 8555W        W24689  13.307   0.175  16.681  0.0834 -0.1782  0.0826
 8556W        W24690  11.726  14.175  12.832 -0.2902 -0.0188  0.0162
 8557W        W24691   5.084  12.366   3.362 -0.0807  0.1005  0.2720
 8558W        W24692  15.207  15.089  14.238 -0.3016 -0.0153 -0.0775
 8559W        W24693   2.359   3.293  12.070  0.1125  0.1516 -0.1110
 8560W        W24694   5.296   5.498  16.697  0.1671 -0.2890  0.0804
 8561W        W24695  10.988   2.462   0.184 -0.1681 -0.0894 -0.1887
 8562W        W24696   0.382   2.176   1.982 -0.1896  0.0369  0.1894
 8563W        W24697   9.481   3.295  15.702  0.0748  0.1100 -0.0266
 8564W        W24698  14.559  11.496  16.207  0.2646 -0.0016 -0.0579
 8565W        W24699  14.286  10.459   2.992  0.1176 -0.0127  0.1342
 8566W        W24700  13.339  17.425   5.507 -0.2494  0.3659 -0.2334
 8567W        W24701  15.153  15.076  14.886 -0.2734 -0.0422  0.0981
 8568W        W24702   7.035   1.878  12.231  0.2762  0.1013 -0.0961
 8569W        W24703  16.452  14.264  12.945 -0.1117  0.1236  0.2701
 8570W        W24704  13.277   5.059   4.020  0.1942  0.2303 -0.1397
 8571W        W24705   2.382   1.170   0.755 -0.0611  0.2768  0.1891
 8572W        W24706   5.694  10.608  13.071  0.0280  0.0506 -0.1579
 8573W        W24707   3.689   2.045   1.603  0.0433 -0.1524  0.0712
 8574W        W24708   3.905   3.572  14.894  0.3616  0.0669  0.1841
 8575W        W24709   3.224  14.291   3.203 -0.1804 -0.1043 -0.2349
 8576W        W24710   7.734  15.151  12.029  0.0737  0.0510  0.0239
 8577W        W24711   0.563  16.107   6.115  0.1780  0.0724 -0.2891
 8578W        W24712   8.720   0.716   3.104  0.2292 -0.1900  0.1424
 8579W        W24713   8.214   5.218  16.989 -0.0695 -0.1077  0.1715
 8580W        W24714  13.331  17.331   0.091  0.1904 -0.0850  0.0664
 8581W        W24715  14.131  13.122   2.481  0.2652  0.1279 -0.0617
 8582W        W24716  10.033   4.568  15.290 -0.0499 -0.3937  0.2348
 8583W        W24717   8.511  16.542   3.544  0.0491 -0.0646 -0.1334
 8584W        W24718   2.024  17.369  17.008 -0.1583  0.2618  0.1728
 8585W        W24719  16.372   3.807   5.471 -0.0094 -0.1826 -0.2528
 8586W        W24720   3.697   5.014  16.759  0.0233  0.0699  0.2401
 8587W        W24721   5.411  10.421   4.797 -0.0216 -0.1926 -0.0264
 8588W        W24722  10.197   0.530  14.337 -0.1737  0.0055  0.0049
 8589W        W24723   6.085   6.170  12.192 -0.3354 -0.0074 -0.0107
 8590W        W24724   2.350  13.906   4.616 -0.1236  0.1223  0.1899
 8591W        W24725  17.628  17.450  14.055  0.1503  0.1452  0.0305
 8592W        W24726   1.617   3.942  15.844 -0.0223 -0.0787  0.1677
 8593W        W24727  15.788   3.105  13.487  0.0476 -0.2411 -0.0804
 8594W        W24728  17.460   5.967  11.371  0.0460 -0.0695 -0.0480
 8595W        W24729  14.349   4.535   6.345  0.1509  0.0427  0.2860
 8596W        W24730  11.551  10.530   3.907 -0.1678 -0.0486 -0.1714
 8597W        W24731   3.766   5.744  14.384  0.0890  0.0597  0.0732
 8598W        W24732  17.272   6.609   4.891 -0.0191 -0.0322 -0.1310
 8599W        W24733  16.567   9.393   1.682 -0.1794  0.0088  0.0745
 8600W        W24734   9.985  14.655  15.133  0.0100 -0.1077 -0.0165
 8601W        W24735  14.651   7.269   2.264  0.0773  0.0375  0.1201
 8602W        W24736  11.679  13.419   5.497 -0.0888  0.1795 -0.1560
 8603W        W24737  15.244  17.198   4.241 -0.1772  0.1545 -0.1722
 8604W        W24738  16.755   5.614  15.762  0.1383 -0.0533 -0.0266
 8605W        W24739   8.041  14.447   0.547  0.0038  0.0016  0.0149
 8606W        W24740   2.906   2.097   5.022 -0.0239 -0.2158 -0.1132
 8607W        W24741   9.805  12.789  16.846 -0.0867 -0.1102 -0.1672
 8608W        W24742   3.078  12.350   3.936  0.2468 -0.1831 -0.0570
 8609W        W24743   8.390  13.063   0.259 -0.0919  0.3034  0.1923
 8610W        W24744   1.673  16.142  16.434 -0.2380 -0.1054 -0.0753
 8611W        W24745  12.786   1.538   5.219 -0.2343  0.0617 -0.2974
 8612W        W24746   1.004   6.043  13.026 -0.0199 -0.0093 -0.2178
 8613W        W24747   9.390   1.354  13.541 -0.3627 -0.3360  0.0702
 8614W        W24748  16.433  12.540   5.950  0.2300  0.2079 -0.1669
 8615W        W24749  11.209  13.795  13.600 -0.1324  0.0927  0.0166
 8616W        W24750   5.587   1.326   5.403  0.1038  0.1695 -0.2503
 8617W        W24751  16.882  16.292  12.853  0.1550 -0.2428 -0.1549
 8618W        W24752   9.537  12.327  16.810 -0.1491  0.3013 -0.4457
 8619W        W24753  16.501  16.057   1.766  0.1771 -0.0437 -0.1689
 8620W        W24754   1.394  17.602  15.547 -0.1713  0.1013 -0.1082
 8621W        W24755  14.246   6.348   1.949 -0.0201 -0.0676  0.2198
 8622W        W24756  16.269   9.154  16.752  0.3293  0.1000 -0.1713
 8623W        W24757   0.458  16.419   0.509  0.1212 -0.0401  0.0044
 8624W        W24758   0.867  10.978  16.907  0.3002 -0.1580 -0.0065
 8625W        W24759   8.808   0.310  16.266 -0.1663 -0.0674 -0.0082
 8626W        W24760  15.817   8.584  13.696 -0.0438  0.0188 -0.1254
 8627W        W24761   9.029   1.440  15.902 -0.0693  0.0430  0.0426
 8628W        W24762   5.855  11.643  16.190 -0.1755 -0.0504  0.2229
 8629W        W24763  11.347  15.840  13.440 -0.2074  0.0800 -0.1109
 8630W        W24764  12.626   6.555  14.714 -0.0092 -0.5257 -0.0095
 8631W        W24765  14.995  16.762   4.244 -0.1741 -0.2254  0.0197
 8632W        W24766  10.880  12.678   2.062 -0.0794  0.0122  0.0708
 8633W        W24767  17.301   0.983   5.673  0.2737  0.1153  0.2808
 8634W        W24768  16.768  10.037  13.786 -0.1534  0.0112  0.2521
 8635W        W24769  16.072  17.482  14.214  0.3786  0.2517  0.2259
 8636W        W24770   4.097   5.237  11.734  0.0783 -0.0363 -0.1491
 8637W        W24771  11.622   8.831  14.165  0.1135 -0.1213 -0.0863
 8638W        W24772   5.093  14.180   3.258 -0.0019  0.1145  0.0874
 8639W        W24773   2.531   0.010   4.279  0.1203 -0.2607  0.1775
 8640W        W24774  10.838  10.814   1.136 -0.4943  0.0202 -0.1890
 8641W        W24775   7.183   4.578   4.355 -0.0286  0.2511 -0.0401
 8642W        W24776   1.944   9.588   3.177  0.1715  0.1239 -0.1343
 8643W        W24777  14.033  13.624   3.985 -0.1221  0.2854 -0.3091
 8644W        W24778  10.070  12.061  14.580 -0.2118 -0.3208 -0.1760
 8645W        W24779   7.357   1.937   1.990  0.1173  0.0571  0.3033
 8646W        W24780   5.839  11.074  13.667 -0.0882  0.2360 -0.3026
 8647W        W24781  16.936   1.116   3.254  0.2363  0.1651 -0.3153
 8648W        W24782  14.853  11.587   4.560  0.1407 -0.1762 -0.3521
 8649W        W24783   6.017   4.178   0.294  0.1688 -0.3563 -0.0036
 8650W        W24784  14.757  13.799   3.547  0.1092 -0.1949 -0.0024
 8651W        W24785   0.497  12.407  16.172 -0.0737  0.2962  0.0547
 8652W        W24786   4.168   1.969  16.421  0.1872 -0.1975 -0.0795
 8653W        W24787   7.049  13.513   5.622 -0.0038 -0.2670  0.0962
 8654W        W24788   8.997   9.010  12.170 -0.4227  0.0010  0.0967
 8655W        W24789  10.665   8.495   2.266 -0.3448 -0.1888  0.2892
 8656W        W24790   8.351  13.006   3.082  0.0833  0.2895  0.1315
 8657W        W24791   9.061  15.248  13.262  0.0657 -0.2029 -0.1310
 8658W        W24792   4.337  12.835   1.805  0.1197 -0.1154 -0.1350
 8659W        W24793   7.833   6.201  16.253 -0.0826 -0.4000  0.2126
 8660W        W24794  10.082  10.697   4.728  0.2942 -0.0258 -0.1197
 8661W        W24795   4.647  15.718   0.516  0.0046 -0.0323  0.0547
 8662W        W24796   8.106   9.803  15.944  0.1807 -0.3507  0.0732
 8663W        W24797   7.062  15.433  17.123  0.1021 -0.0594 -0.4780
 8664W        W24798   0.300   1.560   3.652 -0.0110  0.1040  0.0726
 8665W        W24799   7.749   1.408  12.716 -0.0971  0.2379  0.2310
 8666W        W24800  14.244  17.136   5.589 -0.0627 -0.0516 -0.4409
 8667W        W24801  15.728  11.488   4.075 -0.0259 -0.1180  0.3855
 8668W        W24802   9.166  14.072   5.656 -0.2401 -0.3739  0.0375
 8669W        W24803  12.144   6.969   3.481  0.1209  0.1875 -0.2204
 8670W        W24804   0.154  14.924  16.076  0.2029  0.2382  0.2653
 8671W        W24805  16.992   8.315  11.767 -0.0333  0.0434  0.1849
 8672W        W24806  10.049   3.287  16.565 -0.0613  0.1903 -0.1191
 8673W        W24807   0.607  14.996  14.959  0.2322 -0.1962  0.0092
 8674W        W24808  13.154   9.371   4.159  0.0168 -0.2694  0.0209
 8675W        W24809   7.052   6.622  15.812 -0.1558  0.1020  0.2338
 8676W        W24810   5.827  14.887   0.642  0.1029  0.3115  0.0835
 8677W        W24811  12.332   6.334  16.907 -0.0931  0.2158 -0.1043
 8678W        W24812  10.345  12.924  16.556 -0.1207 -0.3861  0.1152
 8679W        W24813   2.758   3.715   2.629  0.3709  0.1866 -0.0721
 8680W        W24814  16.264   0.046   3.436  0.0890 -0.1127  0.0451
 8681W        W24815  16.134   9.441   2.731  0.4181 -0.0198  0.1401
 8682W        W24816   8.510  10.806  16.492 -0.0803 -0.2096 -0.2217
 8683W        W24817  10.722  17.639  13.784  0.0658  0.1587 -0.0625
 8684W        W24818   5.822  14.556  14.700  0.1347 -0.0293  0.0551
 8685W        W24819  13.866  17.338  14.088  0.1755  0.2496  0.0218
 8686W        W24820   4.853   0.045   5.798  0.1867  0.0960 -0.0608
 8687W        W24821   2.669  10.139   2.728 -0.0736  0.1397  0.2041
 8688W        W24822   4.876  17.514  15.202 -0.0902 -0.2106  0.0000
 8689W        W24823   9.114   9.879   4.511 -0.3944 -0.0902  0.3036
 8690W        W24824   6.478  16.213  11.981 -0.2767  0.0811 -0.0765
 8691W        W24825   4.030   2.934   5.439 -0.1074  0.1990 -0.2137
 8692W        W24826  14.753  16.548   3.921  0.1555  0.0770 -0.0471
 8693W        W24827   3.445  17.634  17.106 -0.0995  0.0574 -0.0588
 8694W        W24828   4.423  11.171  11.737  0.2424  0.2560  0.0688
 8695W        W24829   4.599   5.213   5.917  0.1700 -0.0108  0.0593
 8696W        W24830  10.255  12.226   5.399  0.0237  0.2027  0.1895
 8697W        W24831  12.372  11.123  16.686 -0.1568  0.0963  0.0775
 8698W        W24832   5.082   7.406  10.569 -0.2259 -0.0260  0.0552
 8699W        W24833  13.078  10.406  17.112 -0.1136  0.0188 -0.0986
 8700W        W24834  15.252  16.135   1.864 -0.0292  0.0366  0.1088
 8701W        W24835  16.874   2.774  14.688  0.0556  0.1353 -0.0939
 8702W        W24836   5.200   0.669  15.410 -0.3070  0.2986 -0.0500
 8703W        W24837   5.385   6.105  12.443  0.0623 -0.0359  0.0229
 8704W        W24838   0.480   9.120  11.996  0.2118  0.4457 -0.0666
 8705W        W24839  11.938  15.912   1.376 -0.2411  0.0281 -0.0947
 8706W        W24840   4.773   4.862   4.554 -0.0731 -0.0177  0.0838
 8707W        W24841   8.844  12.107   1.632  0.1578  0.0178  0.3582
 8708W        W24842  16.914  11.941   3.956 -0.2917  0.0117  0.0829
 8709W        W24843   1.344  12.446   2.185  0.2671  0.0856  0.2406
 8710W        W24844  14.166   2.867  13.587  0.3145  0.2289 -0.1023
 8711W        W24845   5.612   2.251   5.398 -0.1015 -0.1825  0.0583
 8712W        W24846   7.443   6.291  13.876 -0.1697  0.0236  0.1867
 8713W        W24847  11.473  12.241   2.369  0.3257 -0.0494  0.1391
 8714W        W24848   4.569  11.461   2.973 -0.2754  0.1355 -0.3612
 8715W        W24849  17.653  15.921  12.488  0.3368  0.1887  0.4359
 8716W        W24850   6.040  10.635   1.504  0.1372  0.2363  0.0023
 8717W        W24851   3.542  14.658  12.869  0.1529  0.2993 -0.3415
 8718W        W24852   3.434  17.565   3.737 -0.0725 -0.6049  0.0916
 8719W        W24853   0.664   8.235  12.084 -0.0049  0.2172 -0.2019
 8720W        W24854   0.296  16.959   3.880 -0.1215  0.1083  0.0671
 8721W        W24855  13.889  15.618   3.649 -0.1026  0.1579 -0.2863
 8722W        W24856  12.969   1.452  12.345 -0.0080 -0.0589  0.2725
 8723W        W24857  12.230   3.591   5.011  0.0559  0.2723 -0.0278
 8724W        W24858   5.489   7.025  11.317 -0.0343  0.0057 -0.3230
 8725W        W24859  16.905   3.281   0.998 -0.0314 -0.1172 -0.1185
 8726W        W24860  15.372  14.839  13.370 -0.1182 -0.1712  0.0235
 8727W        W24861   7.424   5.132  16.396 -0.3251  0.0333  0.0691
 8728W        W24862  13.095   8.767   1.259  0.1097  0.2584  0.2112
 8729W        W24863  14.682   8.346  14.882 -0.0290  0.2142  0.2063
 8730W        W24864   5.961   0.230  16.060 -0.2064  0.1774 -0.4598
 8731W        W24865  13.019   8.242  11.347 -0.2830 -0.0905  0.1543
 8732W        W24866   6.036   2.115   4.091 -0.1737  0.2217 -0.0813
 8733W        W24867   0.340   5.755   3.706  0.2799  0.1951  0.0290
 8734W        W24868   9.247   0.811   3.481  0.1809  0.0365  0.0176
 8735W        W24869  16.306  11.856   2.707  0.1507  0.0607  0.2425
 8736W        W24870  17.093   6.177   1.639 -0.1698  0.0282  0.0502
 8737W        W24871   0.605  15.703  14.532 -0.1144  0.1257  0.1079
 8738W        W24872  16.752   6.337   0.465 -0.2233 -0.0334  0.0607
 8739W        W24873   2.138  14.537  16.276  0.1839 -0.2620  0.2174
 8740W        W24874   5.087  11.766   6.087  0.0071 -0.1164 -0.0790
 8741W        W24875   4.583  11.899  16.308 -0.2918 -0.1401  0.0922
 8742W        W24876   5.239   0.087  15.521  0.0146  0.1753  0.0673
 8743W        W24877   4.656   7.246   4.091 -0.0211  0.2045 -0.4324
 8744W        W24878   0.925   1.649  14.230 -0.0081  0.0389  0.2612
 8745W        W24879  11.971   8.974  13.138 -0.1492  0.2699 -0.0981
 8746W        W24880  10.972   5.093  16.839  0.0955  0.2037 -0.2926
 8747W        W24881  11.293   8.347   4.186  0.0806 -0.4371 -0.0973
 8748W        W24882   5.121   0.214  12.938  0.1211  0.0552  0.2534
 8749W        W24883  14.346   3.936  12.510 -0.1191 -0.1998 -0.0555
 8750W        W24884   3.977  14.178   1.747 -0.1267 -0.0764 -0.1019
 8751W        W24885  10.272  14.011   1.179  0.1676  0.2039  0.2008
 8752W        W24886  16.377   8.204   0.330 -0.0754 -0.1483  0.1741
 8753W        W24887  11.069   5.443   0.747  0.1187  0.1053 -0.0090
 8754W        W24888   0.342   4.468  11.460  0.1468  0.0301  0.0669
 8755W        W24889  16.041  13.627  14.152  0.1418  0.2054 -0.0792
 8756W        W24890  13.871   2.689   0.929  0.2418 -0.0261 -0.1048
 8757W        W24891  14.964  16.444  11.214  0.1124 -0.0935  0.1452
 8758W        W24892  13.248  16.341   1.411 -0.3925  0.2354 -0.1274
 8759W        W24893  13.553   6.232  11.821 -0.0028  0.2222  0.2961
 8760W        W24894   1.107   7.486   2.674 -0.1076 -0.0603  0.2049
 8761W        W24895  11.951   3.112   2.327 -0.0645  0.0609  0.0052
 8762W        W24896   1.104  14.320  14.989  0.1645 -0.0686 -0.0575
 8763W        W24897   0.777  12.921  12.167  0.0593 -0.0686  0.0818
 8764W        W24898  12.855  11.226  12.129 -0.0205  0.2653  0.1447
 8765W        W24899   6.904   3.110   2.824 -0.1319 -0.4686 -0.3021
 8766W        W24900  16.574  15.287   0.335  0.0080  0.2189 -0.1081
 8767W        W24901  11.925   5.505   5.510 -0.0023  0.3865  0.2217
 8768W        W24902   7.951   6.238  13.554  0.0490  0.2215  0.0595
 8769W        W24903  17.118   6.715  12.466  0.3395  0.1915  0.0871
 8770W        W24904   5.354   7.438  13.087  0.0547 -0.0372  0.1315
 8771W        W24905   4.770   4.251  16.427  0.0790  0.0318 -0.0082
 8772W        W24906   8.566  11.513  14.101  0.0484 -0.1308  0.0577
 8773W        W24907   9.670  16.299   3.197  0.3816 -0.0281  0.0948
 8774W        W24908   3.341   7.483   0.977  0.1105 -0.1064 -0.0110
 8775W        W24909   8.539  13.093  12.529 -0.2430 -0.3533 -0.0553
 8776W        W24910  15.058   7.194  15.569 -0.1136  0.3174  0.1229
 8777W        W24911   6.193  13.291  14.824 -0.2459 -0.1189 -0.1927
 8778W        W24912  12.700   4.402   2.457 -0.0125  0.2258  0.2781
 8779W        W24913  14.264   8.507  11.613 -0.1681 -0.0405  0.0512
 8780W        W24914  12.558   5.581  14.216  0.0760  0.0348 -0.0163
 8781W        W24915   3.385   0.481   1.543  0.1544 -0.1537  0.0030
 8782W        W24916   2.511  12.627   1.476 -0.2075 -0.1695 -0.3742
 8783W        W24917   9.437  16.026  12.987 -0.1322  0.1645  0.0435
 8784W        W24918   0.867   4.576  15.013  0.0508  0.0309  0.0583
 8785W        W24919   8.182   1.102   5.015  0.0670 -0.0934 -0.0504
 8786W        W24920   6.751  13.169   4.081  0.0450  0.1655 -0.1547
 8787W        W24921   7.350   8.512  12.198 -0.0304 -0.0455  0.0455
 8788W        W24922  11.368   8.204   0.991  0.1597 -0.0395  0.0311
 8789W        W24923   2.833   7.328  11.326  0.1414  0.0578  0.1046
 8790W        W24924  10.609   8.361   4.895  0.1448  0.0845  0.0420
 8791W        W24925   2.337   5.065  13.139 -0.2014  0.2386 -0.1074
 8792W        W24926   3.935   2.183  13.363 -0.0684  0.0806 -0.2286
 8793W        W24927  10.540   9.166   5.429  0.0603 -0.0093 -0.0273
 8794W        W24928   7.205   2.621  16.322  0.0686  0.2660  0.1173
 8795W        W24929  11.655   0.964  13.220  0.3136 -0.1585  0.1428
 8796W        W24930  13.341   3.504  15.335  0.0880  0.2053 -0.0333
 8797W        W24931   4.823  11.071   3.430 -0.0089 -0.6496 -0.2175
 8798W        W24932   8.912   2.563  13.472 -0.0601 -0.2985  0.0234
 8799W        W24933   6.285   5.537  13.146 -0.2251 -0.4690  0.2012
 8800W        W24934   7.365  17.571  13.146 -0.2954  0.2540  0.0244
 8801W        W24935  17.486   0.821   5.126  0.2545  0.1940 -0.1258
 8802W        W24936   2.494   4.748  11.774 -0.1049  0.1243  0.0830
 8803W        W24937   1.236   0.433   0.355  0.1052 -0.2065 -0.2269
 8804W        W24938  16.106  10.219   2.292 -0.0457 -0.1084  0.1110
 8805W        W24939  12.350  10.644  13.880 -0.0157 -0.0109  0.0203
 8806W        W24940   7.596   0.977   1.676  0.1424 -0.1417  0.3714
 8807W        W24941  15.187   9.906  11.425  0.1069 -0.1855  0.0584
 8808W        W24942   1.686  14.862  12.823  0.3228 -0.0325 -0.2795
 8809W        W24943  10.239   5.825   3.734  0.1176  0.1128  0.0586
 8810W        W24944   3.444  11.397   5.801  0.1214 -0.0640  0.0588
 8811W        W24945  11.243  13.950   1.627  0.1938 -0.2006  0.2973
 8812W        W24946  14.666   5.669   0.182  0.4298 -0.1067 -0.1317
 8813W        W24947  15.125  10.942  14.764 -0.0642  0.2329 -0.0900
 8814W        W24948  16.398  12.481  15.463 -0.0321  0.3439 -0.1502
 8815W        W24949  10.147  12.374   1.534 -0.0668  0.2579 -0.2308
 8816W        W24950   0.541  16.865   4.447 -0.0638 -0.3439 -0.0201
 8817W        W24951   9.369   2.134   2.553 -0.2106  0.4173 -0.1062
 8818W        W24952   6.261  14.756  16.171 -0.3118  0.0174 -0.0174
 8819W        W24953  11.383   7.219  14.797 -0.1201  0.2568  0.2487
 8820W        W24954  12.279   4.477   2.796  0.1206 -0.0079 -0.0167
 8821W        W24955  14.099  13.816   2.816 -0.1115  0.1091  0.0589
 8822W        W24956  17.156  10.558   2.150 -0.1915 -0.0501 -0.1636
 8823W        W24957  11.654   7.110   0.750  0.1446 -0.0216 -0.3151
 8824W        W24958  11.329   8.729   4.524 -0.1724  0.1365  0.0101
 8825W        W24959  12.255   4.671   6.205 -0.1295  0.1836  0.0496
 8826W        W24960   6.549   2.617   1.146  0.0295 -0.1894  0.0295
 8827W        W24961   4.375  17.465  15.309  0.0154 -0.0488  0.1273
 8828W        W24962   6.715   4.529   5.131 -0.0415 -0.2006 -0.1509
 8829W        W24963  17.206  10.741  14.086  0.2017 -0.2141 -0.1564
 8830W        W24964  11.913   6.231   0.100 -0.0321  0.2205  0.0273
 8831W        W24965  14.518   7.205   1.745  0.0253 -0.0806  0.0168
 8832W        W24966   7.117   8.941   0.385 -0.1673  0.1477  0.0208
 8833W        W24967   3.796  10.360   0.464  0.0528 -0.0765 -0.0595
 8834W        W24968  15.452   1.165  12.096  0.2399 -0.1280  0.2525
 8835W        W24969  13.046   1.551  13.413  0.1265  0.1780 -0.1220
 8836W        W24970  11.026   5.972   0.734  0.1019  0.2644 -0.0218
 8837W        W24971  12.696  12.333   2.401  0.0651  0.1650  0.0751
 8838W        W24972   8.582   2.970  12.159 -0.0990 -0.2279  0.0064
 8839W        W24973   5.585  16.560   3.113  0.0431  0.1794 -0.1437
 8840W        W24974  17.378   8.481  16.745  0.2287  0.0970 -0.0618
 8841W        W24975  16.299  13.992  12.497 -0.0199 -0.5908  0.2992
 8842W        W24976   8.888  16.601   3.049  0.2822  0.3191  0.0528
 8843W        W24977  15.531  11.613  14.932 -0.3911  0.2859 -0.1081
 8844W        W24978   8.557   8.508   4.498 -0.0301 -0.2721  0.2909
 8845W        W24979  11.926  15.066  14.568  0.0071  0.3700 -0.0939
 8846W        W24980  17.606   8.108  12.119  0.0672 -0.1505 -0.4197
 8847W        W24981   3.948  14.808  15.195  0.3840 -0.2028  0.1351
 8848W        W24982  17.336  13.234   2.309 -0.1216  0.1975 -0.0438
 8849W        W24983   7.251   8.601  12.730 -0.0791 -0.1187 -0.2947
 8850W        W24984  12.906  13.594   0.536 -0.0915 -0.0988  0.2845
 8851W        W24985   2.617   6.595  11.749 -0.0535 -0.0005  0.2996
 8852W        W24986   5.422   7.259   4.525  0.0232 -0.2589  0.0529
 8853W        W24987  11.756   0.246   3.090 -0.0861 -0.0173 -0.0583
 8854W        W24988  10.233   4.854  12.544  0.0210 -0.0590  0.1092
 8855W        W24989   6.922   9.437  14.300  0.1617  0.2396 -0.1292
 8856W        W24990   6.674  13.940   4.745 -0.2962 -0.0436 -0.0240
 8857W        W24991  11.447   9.060  11.996 -0.2864  0.1957 -0.0412
 8858W        W24992   2.003   0.696  15.976 -0.1257  0.3299  0.0376
 8859W        W24993   4.479  15.050  14.366  0.0558 -0.1215 -0.1197
 8860W        W24994   2.321   2.155  14.408  0.0765 -0.1974  0.0182
 8861W        W24995   7.216   9.968  15.048 -0.3226 -0.4284 -0.1201
 8862W        W24996  14.877   5.853  16.347  0.1128  0.0017 -0.0893
 8863W        W24997   2.362  10.579   1.345 -0.0217  0.1683 -0.1608
 8864W        W24998   1.184   8.482  14.460  0.2403  0.0800  0.2430
 8865W        W24999   0.736  15.991   1.457  0.1152  0.0623 -0.0387
 8866W        W25000   1.772   4.385   3.177  0.0945 -0.1268 -0.1283
 8867W        W25001  12.272   2.903   1.795  0.0745  0.0407 -0.0708
 8868W        W25002   1.235   5.689  14.029  0.3808  0.0277 -0.1347
 8869W        W25003   7.637  13.260  12.204 -0.0950  0.1414  0.1751
 8870W        W25004   4.537   6.196   5.630  0.0636 -0.1740  0.1000
 8871W        W25005   8.825  16.659   1.634  0.0691  0.0933 -0.5443
 8872W        W25006  15.528   4.581  16.491  0.0839 -0.1603  0.3487
 8873W        W25007   7.485   8.584   0.223  0.0840 -0.3460 -0.0721
 8874W        W25008  13.906   1.629  15.183  0.1609 -0.1240  0.2319
 8875W        W25009   7.347  15.796   1.090 -0.1992 -0.2508  0.0251
 8876W        W25010   6.352   2.091  15.181  0.0569  0.1762 -0.0981
 8877W        W25011   8.569  12.923   1.388 -0.0861  0.1939 -0.2348
 8878W        W25012   2.579  12.916   0.623 -0.0189  0.0110 -0.0984
 8879W        W25013   4.386  14.890   2.668  0.4271  0.1841  0.2805
 8880W        W25014  15.668   7.132  11.745 -0.0286  0.0160  0.0914
 8881W        W25015  16.417   6.146  11.523  0.1385 -0.1872 -0.0543
 8882W        W25016  12.048   5.234   0.491 -0.0338 -0.1277 -0.2229
 8883W        W25017  16.268  11.108   2.320 -0.0151 -0.0018  0.1932
 8884W        W25018   4.901  13.437   2.631 -0.2294  0.2862  0.1922
 8885W        W25019  12.203   8.338   1.444 -0.2657  0.1735 -0.2411
 8886W        W25020   4.960   9.374   1.412  0.0377 -0.1175 -0.0705
 8887W        W25021   3.750   2.698   4.088 -0.1219 -0.4071 -0.0192
 8888W        W25022  12.668  14.125  12.880  0.0497  0.0427  0.1990
 8889W        W25023   7.889   9.752  14.245  0.0531 -0.1736  0.2093
 8890W        W25024  10.727   0.375   5.270  0.1483  0.0921  0.1286
 8891W        W25025   6.616   9.293  13.711 -0.1566 -0.0307  0.0633
 8892W        W25026   1.992  16.928   3.380 -0.1888 -0.0636 -0.1064
 8893W        W25027  15.327  17.566   2.537  0.1787 -0.0466 -0.2381
 8894W        W25028  15.180   9.290   4.870 -0.0901 -0.0125 -0.1222
 8895W        W25029  16.258   3.329   5.293  0.0506 -0.0705 -0.1036
 8896W        W25030   6.260   0.946   1.161 -0.2925 -0.1881  0.0325
 8897W        W25031   4.616   0.884  16.625  0.0804  0.1649 -0.0649
 8898W        W25032   1.627  12.172   1.892  0.1800  0.2117  0.1112
 8899W        W25033  15.574   9.922  15.610  0.3746 -0.0176  0.1896
 8900W        W25034  10.236   6.451   3.122  0.1722 -0.0585  0.0799
 8901W        W25035   0.027  12.371  16.280  0.0587  0.1194 -0.4504
 8902W        W25036   0.757   5.566  13.871 -0.0096 -0.0197 -0.4319
 8903W        W25037   6.004  14.240   4.308  0.0144 -0.1498  0.0149
 8904W        W25038   4.348  15.127  15.252  0.1667 -0.0295  0.0194
 8905W        W25039   0.021   6.880  16.514  0.1028  0.2251 -0.3174
 8906W        W25040  13.399   5.803  13.782 -0.4659 -0.0165 -0.1641
 8907W        W25041  12.345  12.916   1.449  0.1158  0.1255  0.0862
 8908W        W25042  13.891  11.546  13.288  0.0659  0.0151 -0.4331
 8909W        W25043   0.384   5.373  13.444 -0.1604  0.0163  0.0152
 8910W        W25044   4.505   0.684   5.169  0.1452 -0.0334  0.0283
 8911W        W25045   2.309   6.428   4.194  0.0642 -0.2178 -0.1184
 8912W        W25046   9.577  13.977  13.246 -0.4778  0.0427 -0.0119
 8913W        W25047  17.263   6.488  16.870 -0.2276  0.1793  0.0053
 8914W        W25048   6.458   5.285  16.030 -0.3100  0.0779 -0.2630
 8915W        W25049  16.169   1.612   4.081  0.0772 -0.1109  0.0638
 8916W        W25050   3.999   3.465   5.179  0.0209  0.0929 -0.0398
 8917W        W25051   1.440   9.492   4.087  0.0051  0.2754  0.3106
 8918W        W25052   3.944  16.922   5.504 -0.1091 -0.2204  0.1462
 8919W        W25053  15.086   2.591   5.503 -0.2250 -0.0935  0.0410
 8920W        W25054  10.482   4.075  13.258  0.0903  0.0425 -0.0795
 8921W        W25055   4.360   9.814   6.115  0.0874 -0.0422 -0.1872
 8922W        W25056   8.083   1.011   2.387  0.0154 -0.0772 -0.4779
 8923W        W25057   3.825   7.160  14.471  0.3598 -0.0949  0.1251
 8924W        W25058   6.355  15.238  12.127  0.0452  0.2834 -0.0957
 8925W        W25059   5.881  13.110   1.704 -0.1812  0.0171  0.0473
 8926W        W25060  16.229   9.108   1.464 -0.1901  0.3610  0.2804
 8927W        W25061  10.325   5.295  15.529 -0.0554 -0.0139  0.2651
 8928W        W25062   7.913  13.323  15.033 -0.2584  0.0108  0.2411
 8929W        W25063   2.519   5.358   5.674 -0.1569  0.1666  0.1006
 8930W        W25064   6.564  14.527   5.468 -0.0241 -0.0494  0.1395
 8931W        W25065   2.148   9.173  13.808  0.2017  0.0006 -0.1183
 8932W        W25066  16.304  11.552  14.599 -0.0019  0.0386  0.2969
 8933W        W25067   1.711  12.826   0.655  0.0421  0.0018  0.1952
 8934W        W25068   5.160   9.824   0.703 -0.1352 -0.0447 -0.3266
 8935W        W25069   7.028  10.581  13.463  0.0044  0.0365 -0.0216
 8936W        W25070   7.872  11.562   4.858  0.1204  0.0022 -0.1278
 8937W        W25071   3.819   5.514  16.501  0.1480  0.0097  0.1385
 8938W        W25072   6.052  16.050   3.958 -0.0974 -0.0024 -0.0127
 8939W        W25073   6.837  17.147  13.814 -0.2911  0.0839  0.0078
 8940W        W25074   2.042   3.404  16.589 -0.0845  0.0333  0.1400
 8941W        W25075  13.475   1.081   2.233  0.0804  0.0930  0.2084
 8942W        W25076  15.283  12.355  16.101 -0.0163  0.0399  0.3449
 8943W        W25077   9.557   0.878   0.766 -0.2189 -0.5606 -0.4422
 8944W        W25078  14.729   3.969  17.172  0.1387 -0.1624 -0.0033
 8945W        W25079  16.343  10.575  15.451 -0.0929 -0.0357 -0.0631
 8946W        W25080   0.413  11.368   5.953  0.1323  0.0919 -0.0377
 8947W        W25081   1.981   8.264   4.744  0.0085  0.1387 -0.1057
 8948W        W25082   1.442   1.210  13.803  0.1926 -0.2403 -0.0140
 8949W        W25083   3.195   6.965   4.298  0.3067  0.0842 -0.2268
 8950W        W25084   0.988  15.987  14.391 -0.1108  0.0416  0.1319
 8951W        W25085   8.912   8.335  14.186  0.0921  0.0069  0.0505
 8952W        W25086  13.862   1.158   0.921  0.0224  0.1977  0.1286
 8953W        W25087  14.993   0.138   1.051 -0.0599 -0.2248  0.0852
 8954W        W25088   0.393   2.850  13.688 -0.1544 -0.0315 -0.1713
 8955W        W25089   0.143   6.029   2.199 -0.0126 -0.2580 -0.0657
 8956W        W25090   1.167   8.511  15.166  0.2555 -0.4031  0.1953
 8957W        W25091   1.803  12.784   2.995  0.0562  0.2782  0.1493
 8958W        W25092  12.991   5.986   2.955 -0.0240  0.2065  0.0141
 8959W        W25093   5.661  13.522   2.748  0.0255  0.0622  0.2674
 8960W        W25094  13.672  16.874  12.413 -0.1784 -0.0447  0.1189
 8961W        W25095   2.361   9.010   5.187  0.0672  0.1013 -0.0816
 8962W        W25096   9.280   3.106   2.252  0.0836  0.1878 -0.1984
 8963W        W25097   2.084  17.172  16.003  0.1112  0.1057 -0.0702
 8964W        W25098  13.990   3.892   2.705  0.4382 -0.3942 -0.0531
 8965W        W25099   5.654   6.488  15.828  0.2799  0.1446  0.1262
 8966W        W25100   1.040  15.036   3.784 -0.3421 -0.0748 -0.1337
 8967W        W25101   9.009   2.412   4.855 -0.1062  0.3005 -0.0038
 8968W        W25102  12.424   9.136  14.177  0.2564 -0.0228  0.1344
 8969W        W25103   1.627   0.424  13.706 -0.1234  0.0812  0.0896
 8970W        W25104  15.058   2.732  15.409 -0.0719 -0.0765 -0.1138
 8971W        W25105   1.496   1.597   2.900  0.3143  0.0306 -0.0841
 8972W        W25106   0.891  13.187   4.812 -0.0985 -0.2146  0.0585
 8973W        W25107   7.343  13.170  15.648 -0.0403  0.0431  0.2775
 8974W        W25108  13.499   9.060  12.465  0.2070  0.0198 -0.0139
 8975W        W25109   4.711  11.989  15.383  0.0132  0.2861 -0.0747
 8976W        W25110   8.338  13.254   4.803  0.0030  0.0551  0.2270
 8977W        W25111  16.476   0.549  15.141  0.0744 -0.2210  0.0361
 8978W        W25112   5.894   6.043  16.615 -0.0195 -0.2028  0.0899
 8979W        W25113   4.001  17.424   0.524 -0.0641  0.1842 -0.1267
 8980W        W25114   0.298  16.209   6.554 -0.3510  0.1577 -0.0349
 8981W        W25115  17.625  12.968   4.253 -0.0153 -0.0582  0.3035
 8982W        W25116  13.440  10.343   5.610 -0.0131  0.0451  0.0355
 8983W        W25117  13.269  13.128  12.567  0.1535 -0.0253  0.1080
 8984W        W25118  14.706  13.462  13.958  0.0414 -0.0024 -0.2201
 8985W        W25119   7.583   3.473   0.813 -0.1036  0.2547  0.2951
 8986W        W25120   8.884  13.980   3.795 -0.0995 -0.1143  0.4086
 8987W        W25121  12.752   5.465  12.563 -0.1138  0.3155 -0.0929
 8988W        W25122   6.454  11.494  14.406 -0.2620  0.2188  0.3122
 8989W        W25123   8.578   8.128   1.601 -0.1609 -0.1709 -0.2748
 8990W        W25124  12.898   0.848   0.959  0.0665 -0.0095 -0.0748
 8991W        W25125  17.056   1.647   3.491 -0.0511  0.0800  0.2198
 8992W        W25126  11.563  14.682   2.031 -0.0167  0.0767 -0.0916
 8993W        W25127   9.045  14.284   4.710  0.1326 -0.2672 -0.0509
 8994W        W25128   3.387  13.172  16.487 -0.1203  0.0808 -0.1727
 8995W        W25129  11.133  14.360   5.655 -0.0856  0.1681 -0.2226
 8996W        W25130   2.671   1.570   4.835 -0.1386  0.2242 -0.0646
 8997W        W25131   1.181   7.275  16.341  0.1096 -0.0838 -0.0332
 8998W        W25132   0.273   7.019  12.575  0.0914 -0.0645 -0.1331
 8999W        W25133  14.230  10.798   0.584  0.1285 -0.0735  0.2425
 9000W        W25134  14.389   7.389  13.987 -0.1862  0.0129  0.0845
 9001W        W25135  11.278  15.998   1.589 -0.1367 -0.1842 -0.5068
 9002W        W25136   2.370  10.765  11.350 -0.1219 -0.1920 -0.4934
 9003W        W25137   0.478   2.452  12.338 -0.0927  0.2253 -0.1300
 9004W        W25138  10.673  15.109   2.166  0.0263 -0.0448 -0.3611
 9005W        W25139  15.063   0.823   2.854 -0.0671 -0.0443  0.0610
 9006W        W25140   4.381  11.457   0.953 -0.1831  0.0660  0.1736
 9007W        W25141  11.539   5.936   0.962  0.0083  0.1162  0.0064
 9008W        W25142  17.445   4.015   3.825  0.3903 -0.0437  0.2787
 9009W        W25143  15.974   6.544   3.072 -0.1406  0.0169  0.1938
 9010W        W25144  13.925   7.854   2.696  0.1640 -0.1093  0.0762
 9011W        W25145  10.475   5.369   4.567 -0.1235  0.2747  0.0041
 9012W        W25146  13.949   8.948  15.420 -0.0989  0.1998  0.1597
 9013W        W25147   4.331  12.034  17.059 -0.3407  0.3565 -0.0589
 9014W        W25148  17.007   8.758  12.462 -0.1195 -0.3017  0.2251
 9015W        W25149  16.563  11.985   5.032 -0.0378  0.0167  0.0274
 9016W        W25150  16.134  11.756   4.015 -0.2572 -0.2541  0.1678
 9017W        W25151  17.592  13.317  12.773 -0.0534  0.3021  0.1264
 9018W        W25152   0.015  15.999  14.094  0.1921 -0.2410 -0.2038
 9019W        W25153  17.652  17.563  16.129 -0.0935  0.0570 -0.2136
 9020W        W25154   1.541   7.545  16.637  0.0994 -0.0808 -0.0706
 9021W        W25155  16.584  14.562   3.061 -0.1561  0.4908  0.0551
 9022W        W25156   9.205   2.767   1.412 -0.0717 -0.1914 -0.0385
 9023W        W25157  11.995   6.944   5.260  0.2357 -0.3458 -0.0815
 9024W        W25158  14.956   4.639  12.966 -0.0799  0.1494  0.0831
 9025W        W25159   2.796  14.226  17.050 -0.0321  0.2439 -0.2970
 9026W        W25160   5.706  15.546   4.753  0.1169  0.2338  0.1107
 9027W        W25161   3.266   0.278  16.288  0.2522  0.0167  0.1813
 9028W        W25162   0.928  14.258  13.925  0.0779  0.0435  0.1744
 9029W        W25163  15.642  14.363  13.534 -0.1735 -0.0628 -0.0541
 9030W        W25164   8.585  14.427   3.022  0.3494  0.2531 -0.2616
 9031W        W25165   7.275  17.535  16.005 -0.1815  0.1406 -0.0935
 9032W        W25166  15.542  14.455   3.284 -0.2360  0.1781  0.4669
 9033W        W25167   9.790   4.698  13.402 -0.2153 -0.0406  0.2924
 9034W        W25168   4.945   4.013  14.262  0.0340  0.0695  0.1251
 9035W        W25169   9.991   9.092  11.808 -0.0106 -0.1418 -0.1778
 9036W        W25170   1.064   8.512   3.335 -0.3699  0.1623  0.1552
 9037W        W25171   1.474  15.375  14.772 -0.0818  0.0266  0.0499
 9038W        W25172  17.344   4.602   5.661 -0.1516 -0.0242  0.2942
 9039W        W25173   9.368   3.999  11.711 -0.2388  0.0431  0.2246
 9040W        W25174  10.796   6.230  13.625 -0.2954  0.3316 -0.0698
 9041W        W25175   2.737  14.429   4.901 -0.1437  0.1008  0.2541
 9042W        W25176   6.535   1.409   0.849  0.1133  0.0783 -0.1769
 9043W        W25177   4.941  10.511  15.098 -0.1710  0.0381  0.1729
 9044W        W25178   8.473  12.515  14.127 -0.1323  0.0064  0.0119
 9045W        W25179   6.499   5.842   1.033  0.1535 -0.0260 -0.1748
 9046W        W25180  14.897   7.077   0.486  0.1266  0.2700 -0.0313
 9047W        W25181   3.696  15.669   4.123 -0.1666  0.4748  0.2349
 9048W        W25182   8.007  14.636  14.510  0.1009  0.1000 -0.1344
 9049W        W25183   8.395  14.231   0.233  0.0095 -0.0324 -0.1174
 9050W        W25184  12.070  16.437  13.466 -0.0232 -0.1865  0.0901
 9051W        W25185   1.860   8.767   3.010 -0.2020  0.1342  0.2995
 9052W        W25186   2.942  16.650   5.694  0.0533  0.1035 -0.1284
 9053W        W25187  17.026  16.331  13.510 -0.0033  0.1206 -0.3936
 9054W        W25188  13.663   1.828   0.548 -0.1379  0.1752 -0.0777
 9055W        W25189   7.707   7.808  15.112 -0.1196  0.0672  0.1951
 9056W        W25190  15.218   7.386   4.781  0.2395 -0.0206  0.0430
 9057W        W25191   3.623  16.288   0.107 -0.1804 -0.0030  0.1998
 9058W        W25192  12.774   7.272  12.858 -0.2985 -0.0601 -0.3995
 9059W        W25193  13.392   9.193   0.229 -0.0341  0.2079 -0.0621
 9060W        W25194   5.092   9.800  14.113 -0.1157 -0.1563 -0.3154
 9061W        W25195   1.037   6.864  14.902 -0.0254 -0.1182  0.0277
 9062W        W25196  12.775   4.554   3.667  0.3132  0.0672  0.1497
 9063W        W25197  13.965  16.920  14.404 -0.0311  0.1490  0.0255
 9064W        W25198  13.173   7.040   0.533  0.2832 -0.0704 -0.1426
 9065W        W25199  10.952   0.048   3.587  0.1562  0.1899  0.1386
 9066W        W25200  15.689   4.325  16.885 -0.0900 -0.1094 -0.2750
 9067W        W25201   0.838   3.631  16.080 -0.1003 -0.2127  0.0582
 9068W        W25202   1.480  14.430  14.034 -0.0371  0.0883 -0.3864
 9069W        W25203  14.381   2.339   2.616  0.0777  0.1493  0.2639
 9070W        W25204  16.740   3.549   1.702 -0.5288 -0.0951 -0.2719
 9071W        W25205   6.272   7.398   2.027 -0.2291  0.0583  0.3364
 9072W        W25206   4.631   4.631  13.663 -0.2549  0.0133  0.0070
 9073W        W25207   8.454   5.242   3.632  0.2652  0.2264 -0.2704
 9074W        W25208   4.580   0.077   3.513 -0.0272 -0.0719 -0.2491
 9075W        W25209  17.356   3.234  16.951  0.0328  0.0720  0.3122
 9076W        W25210   9.398  17.248   1.324 -0.3873 -0.0301 -0.1719
 9077W        W25211  12.901   1.651   2.343  0.1774 -0.0502  0.0948
 9078W        W25212  14.496  12.510   3.569 -0.1865  0.2758 -0.1556
 9079W        W25213  12.426   9.517  13.796  0.0113 -0.0280  0.1097
 9080W        W25214  15.746   7.816   1.913  0.1386  0.2396 -0.1021
 9081W        W25215  11.821  16.014  14.743 -0.0182  0.2106 -0.0164
 9082W        W25216   7.394   3.039  12.914  0.1498 -0.1763  0.4056
 9083W        W25217   6.319  12.765   3.991 -0.0960 -0.2817 -0.0555
 9084W        W25218   8.909  10.799   3.784  0.0030 -0.1773 -0.0693
 9085W        W25219  16.651  11.441  15.483 -0.0580 -0.2230 -0.0701
 9086W        W25220   5.725  11.609  13.316 -0.1799  0.0338  0.0894
 9087W        W25221  16.633   7.945   4.798  0.0024  0.1392 -0.2028
 9088W        W25222   0.777   4.099  16.530  0.1192  0.0848  0.2795
 9089W        W25223  16.748  14.193  13.401  0.1359 -0.0932  0.1062
 9090W        W25224  13.827   0.772   1.612 -0.1035  0.0278 -0.1263
 9091W        W25225  15.852   7.864   3.682 -0.1294 -0.0171 -0.2479
 9092W        W25226  12.945  16.933   4.252 -0.2743  0.0413 -0.0340
 9093W        W25227  13.971   1.532  13.677  0.2427 -0.1485  0.0731
 9094W        W25228  17.222  17.415   1.836  0.0580  0.1102  0.0241
 9095W        W25229  15.227  11.886   0.712  0.1916  0.0581  0.3119
 9096W        W25230   1.919   3.558  11.772 -0.1299  0.3501 -0.1979
 9097W        W25231  17.279   2.674   3.361 -0.0700  0.0026 -0.0898
 9098W        W25232  11.130  11.131  14.680 -0.2875 -0.0055 -0.2614
 9099W        W25233  14.783  15.168   4.072 -0.2028 -0.3505  0.0505
 9100W        W25234   4.160   6.903  14.767  0.2383  0.0767  0.0193
 9101W        W25235  14.327   7.452   4.205  0.2863  0.2665  0.3875
 9102W        W25236   7.392   9.000  13.128  0.0391  0.0224  0.1898
 9103W        W25237   9.928   8.769   2.078  0.2969  0.1318 -0.0746
 9104W        W25238  10.834  12.927  13.230 -0.0502  0.0564  0.1469
 9105W        W25239   4.611   7.660  13.768 -0.1743  0.0626 -0.0700
 9106W        W25240  10.193   0.462  11.744 -0.0374  0.0760 -0.0756
 9107W        W25241  17.444  11.718  13.308  0.0424  0.2497  0.3062
 9108W        W25242   4.408   2.705   4.622  0.2056  0.0314 -0.1019
 9109W        W25243  11.505   2.840  12.549  0.2237 -0.0994 -0.0822
 9110W        W25244   9.973   6.903  12.429  0.0848 -0.0966 -0.0704
 9111W        W25245   7.362  10.806  13.826 -0.0645 -0.1698  0.1395
 9112W        W25246  14.120  11.263   4.126  0.0289 -0.1541  0.0084
 9113W        W25247   5.053  12.753  10.772 -0.1391  0.0428  0.1966
 9114W        W25248   1.454   5.220  16.336  0.0101  0.0925 -0.1379
 9115W        W25249   0.513  14.500   2.850  0.1834  0.0013 -0.0350
 9116W        W25250   7.732   5.128  15.277 -0.0686  0.2239  0.2634
 9117W        W25251  11.729  12.307  16.445  0.1061  0.2087 -0.1964
 9118W        W25252   2.909   6.844   1.571 -0.1691  0.0327  0.0989
 9119W        W25253  10.773  12.073   0.382 -0.0698  0.2065  0.0800
 9120W        W25254  12.511  11.180  10.351 -0.0896 -0.5695  0.0318
 9121W        W25255  16.559   7.341   4.788  0.0168 -0.1348  0.3754
 9122W        W25256   6.303  10.827   4.278  0.0709  0.1578 -0.0351
 9123W        W25257  10.670   1.546  14.737 -0.0683  0.2353  0.0588
 9124W        W25258   1.357   6.765   3.321  0.1097  0.1423 -0.2048
 9125W        W25259  15.217   7.294   4.035 -0.0888 -0.0152 -0.0773
 9126W        W25260  10.264  17.325   2.970 -0.1515 -0.1025 -0.1878
 9127W        W25261  11.287  17.001  12.832  0.0517 -0.0254  0.0033
 9128W        W25262  17.113   7.880  14.001  0.4379  0.0927  0.0806
 9129W        W25263  14.774   9.144   5.210  0.3384  0.2954 -0.1031
 9130W        W25264   6.739  14.388   2.391  0.3322  0.0262 -0.0024
 9131W        W25265   1.458   6.888  16.117 -0.0683  0.0355  0.0949
 9132W        W25266   4.298  11.526   0.038 -0.0751 -0.0406  0.1735
 9133W        W25267   8.675   9.690   2.426  0.0947  0.0129 -0.1963
 9134W        W25268  10.388   2.031  12.631 -0.0529 -0.4621  0.1709
 9135W        W25269  15.650   0.661  14.987  0.0220 -0.1278 -0.1797
 9136W        W25270  14.315  17.471  12.103 -0.0387  0.0255 -0.0169
 9137W        W25271   6.243  10.607   5.222 -0.2354  0.0348 -0.0235
 9138W        W25272   3.282   1.136  12.178  0.2149  0.2865  0.1050
 9139W        W25273  16.447  12.860  12.589 -0.1366 -0.1712 -0.0709
 9140W        W25274   5.219   1.784   1.643  0.2872 -0.0981 -0.2852
 9141W        W25275  10.136   3.572   1.904  0.1619  0.1213  0.0613
 9142W        W25276  13.167   2.987  15.192 -0.2937  0.1226  0.0471
 9143W        W25277   0.782  13.504   5.948 -0.0146  0.1267  0.0730
 9144W        W25278   6.178  13.567  13.766  0.1417  0.1339  0.1389
 9145W        W25279  13.218  16.676  14.188  0.0566 -0.1100 -0.2500
 9146W        W25280   5.566  10.680  12.521  0.3035  0.2278 -0.1773
 9147W        W25281  14.919  10.658   4.983 -0.2213  0.2311  0.0805
 9148W        W25282  17.106  11.408   3.257  0.2266 -0.4792  0.0524
 9149W        W25283  13.154   1.041   1.811 -0.1088 -0.1539  0.4778
 9150W        W25284   4.464   0.219   4.992  0.0850  0.2587 -0.0162
 9151W        W25285  10.949   5.364   2.850 -0.0399 -0.3601  0.1487
 9152W        W25286   6.468   2.667   5.342 -0.2228 -0.4463  0.2318
 9153W        W25287  12.906  15.594  11.438  0.2867 -0.2087  0.1606
 9154W        W25288   2.160   9.899   4.616 -0.1277 -0.0931 -0.0541
 9155W        W25289   8.148   2.549   2.858  0.0927 -0.0639  0.0959
 9156W        W25290  16.309  13.445   6.172 -0.0264 -0.1635  0.3808
 9157W        W25291   5.909   8.572   2.783 -0.2323 -0.1816 -0.0020
 9158W        W25292   1.521  15.719  13.185  0.0760  0.2166 -0.1312
 9159W        W25293  13.528   5.031   5.016  0.0703 -0.2883  0.0626
 9160W        W25294   8.257   3.652  15.305 -0.2380  0.1187  0.0367
 9161W        W25295   3.499  17.083  15.184  0.2035  0.2097  0.0352
 9162W        W25296   5.963   2.645  13.710 -0.0048 -0.1758  0.0762
 9163W        W25297  12.893   0.816  13.554 -0.3189 -0.1209 -0.1416
 9164W        W25298   8.848   1.114   0.143 -0.1573 -0.4181 -0.0095
 9165W        W25299  13.041   2.890  13.157  0.3581  0.0994 -0.0580
 9166W        W25300   2.707  10.214   1.376  0.1860 -0.0414  0.0683
 9167W        W25301  17.439   7.617  12.262  0.0804 -0.2677  0.0057
 9168W        W25302   2.167   0.221   2.864  0.0274 -0.1657  0.0737
 9169W        W25303  17.578   3.738  12.497  0.3560 -0.1408  0.0562
 9170W        W25304   2.622   3.635  12.466 -0.0474  0.1114  0.1499
 9171W        W25305   4.768   3.024   0.027 -0.1794  0.2055 -0.0253
 9172W        W25306  16.643   6.578  12.654 -0.2553  0.2561 -0.0291
 9173W        W25307   3.510  13.833   5.923 -0.2166  0.2006  0.1517
 9174W        W25308  14.423   2.162  17.175 -0.2403 -0.1498  0.0797
 9175W        W25309   0.561   6.948   1.798  0.3167  0.2283 -0.1098
 9176W        W25310  13.206  14.534  12.291  0.1616  0.2522  0.1440
 9177W        W25311  12.463  13.738  16.874  0.3874  0.0418  0.0694
 9178W        W25312   5.767   5.126  14.435 -0.0669  0.1993 -0.1531
 9179W        W25313   1.588   5.585  15.008  0.1164  0.2533  0.0210
 9180W        W25314   6.868  11.848   6.106 -0.0996 -0.0310 -0.0956
 9181W        W25315  13.962   3.446  16.010  0.0911  0.1568  0.0766
 9182W        W25316  15.952   4.193   0.462  0.1878 -0.3024 -0.0607
 9183W        W25317   8.807  14.115   1.976 -0.1018  0.0699 -0.0896
 9184W        W25318  13.385   4.791  14.013 -0.0124 -0.2026  0.1048
 9185W        W25319   5.193  11.936  14.513 -0.1055  0.1079  0.1583
 9186W        W25320  13.623  13.249   0.150  0.2040 -0.1735 -0.0722
 9187W        W25321  17.261   3.509  14.421  0.2533 -0.0579  0.3259
 9188W        W25322   6.963  16.270  11.870 -0.0689 -0.1025  0.1802
 9189W        W25323   1.995   7.542  17.068  0.1798  0.2306  0.1033
 9190W        W25324  12.519  10.207  15.854  0.1465 -0.0541  0.1680
 9191W        W25325  14.162  14.982  13.108  0.1638  0.2063  0.1596
 9192W        W25326   7.124   9.360  13.837  0.0732  0.1206 -0.0445
 9193W        W25327   7.690  16.677  17.110 -0.1435 -0.0354 -0.0992
 9194W        W25328  10.320  13.649  16.806  0.2402 -0.1781 -0.3956
 9195W        W25329   8.805   3.868   6.395 -0.0022  0.2443 -0.0319
 9196W        W25330  11.821  14.044   5.393 -0.1770 -0.1366  0.2588
 9197W        W25331   7.445  15.028   5.377  0.1995 -0.4358  0.3059
 9198W        W25332  13.606   2.639  16.916  0.2577 -0.3391  0.0288
 9199W        W25333  13.241  14.394   3.370  0.0110 -0.1034  0.1367
 9200W        W25334   0.584  13.079   2.599 -0.2263 -0.0214  0.0074
 9201W        W25335   9.527   6.908  16.551 -0.0268 -0.2142 -0.0114
 9202W        W25336   0.733  14.785   2.503 -0.0849  0.0211  0.0112
 9203W        W25337  14.129   6.187  15.028  0.2152 -0.1062  0.3072
 9204W        W25338   7.392  10.406   3.976 -0.0564 -0.0100  0.0433
 9205W        W25339  12.885  10.425  12.911  0.0713  0.2126 -0.1470
 9206W        W25340   4.406   3.423  13.049 -0.1451  0.0376  0.1217
 9207W        W25341   7.473   2.855  11.979  0.2267  0.2321  0.0964
 9208W        W25342  17.163  10.176   4.094 -0.3118  0.1620 -0.0946
 9209W        W25343  16.490   3.256   3.771  0.1214  0.0283  0.0297
 9210W        W25344   1.280   4.749  16.098 -0.0307 -0.1194 -0.1876
 9211W        W25345   2.917  10.856  15.273 -0.1582  0.0914 -0.0517
 9212W        W25346   9.616   1.959  12.656 -0.0029  0.4196  0.0272
 9213W        W25347   4.412   0.692   1.982 -0.3136  0.0756 -0.1480
 9214W        W25348   5.790  17.637  13.643  0.0193  0.1076 -0.1706
 9215W        W25349   1.164   6.876  13.027  0.5323 -0.1586  0.0049
 9216W        W25350  11.848   8.686   3.775 -0.2137  0.2051  0.2442
 9217W        W25351   5.737   9.991   4.429  0.0431 -0.3263  0.1786
 9218W        W25352  16.940  16.022  14.471 -0.0881  0.1924  0.2391
 9219W        W25353   9.173   2.272  12.467 -0.1849  0.0592 -0.0146
 9220W        W25354   8.140   8.285  16.386 -0.1000 -0.0253 -0.0616
 9221W        W25355   9.531  14.560  14.193 -0.3012  0.2216  0.0302
 9222W        W25356  11.346   9.602  15.324  0.0914 -0.0197  0.1060
 9223W        W25357   9.534  14.770   2.023  0.3222 -0.1362  0.0144
 9224W        W25358  16.592   8.945  13.758 -0.2239  0.0020 -0.2212
 9225W        W25359   7.687   8.018  13.383 -0.0216 -0.2793 -0.2815
 9226W        W25360   8.220  17.381   4.515 -0.0733  0.0554  0.1524
 9227W        W25361   2.877   0.853   3.574  0.0890 -0.1026  0.2064
 9228W        W25362   2.744   9.802   3.150  0.1445  0.0410  0.0208
 9229W        W25363   5.318   0.097   4.856 -0.4649 -0.1299 -0.1285
 9230W        W25364  17.589   7.654   0.560  0.0909  0.2021 -0.2498
 9231W        W25365   4.652   4.080   4.946  0.2760  0.1725 -0.0841
 9232W        W25366   4.576  15.091  11.680 -0.0349  0.0138  0.0662
 9233W        W25367  16.441   6.591  14.917  0.1558  0.1238  0.0998
 9234W        W25368  10.879  11.037   1.633  0.0262 -0.1421 -0.0174
 9235W        W25369   2.654  10.320  14.174 -0.1735  0.0567 -0.0123
 9236W        W25370   5.614  11.189  14.126 -0.0514 -0.2539  0.1301
 9237W        W25371  16.855  15.789  12.793  0.0381 -0.2019 -0.1163
 9238W        W25372  12.192   1.771  12.336  0.2584 -0.3389  0.0639
 9239W        W25373   6.679  15.736   2.830 -0.0410 -0.0678 -0.1266
 9240W        W25374   3.799  10.797   1.791 -0.1017 -0.0204 -0.0613
 9241W        W25375   9.974  12.271  17.119 -0.1806 -0.0015  0.0447
 9242W        W25376  16.602  15.101  12.539  0.1865  0.4400 -0.1412
 9243W        W25377   3.753   3.016   5.057 -0.2299  0.1806  0.0458
 9244W        W25378   7.177   2.310  14.477 -0.1636  0.0450 -0.1473
 9245W        W25379   3.268   7.533   5.228 -0.0450 -0.1501 -0.1934
 9246W        W25380  12.397  13.130  13.271  0.0104 -0.2051  0.1874
 9247W        W25381  11.775   6.423   1.446 -0.0208  0.1171  0.0853
 9248W        W25382   9.458   6.947   5.302 -0.1407 -0.1124  0.3762
 9249W        W25383   2.278  12.912   3.211 -0.2464  0.0054 -0.0299
 9250W        W25384   1.639   9.699  15.142  0.0076  0.0356  0.0695
 9251W        W25385  11.666   1.135  13.719  0.2504  0.1593 -0.0944
 9252W        W25386   0.861   1.268  13.760 -0.1701  0.2044 -0.1013
 9253W        W25387  15.344  13.076  11.332 -0.0127 -0.0113  0.3057
 9254W        W25388  13.437   9.477  16.738  0.3226 -0.0352 -0.0779
 9255W        W25389  10.383   2.552   1.630 -0.2062  0.0435 -0.0198
 9256W        W25390  13.087  14.010  14.080 -0.0294  0.1253  0.0199
 9257W        W25391   9.104  13.606   2.563 -0.1571 -0.2785  0.1723
 9258W        W25392   4.414  17.235   0.910 -0.1020  0.2701  0.0882
 9259W        W25393   8.899  14.777  13.352  0.0022  0.3394 -0.1680
 9260W        W25394   0.573  14.215  15.643 -0.2838 -0.0936  0.1701
 9261W        W25395  15.324  11.056   1.483  0.0353  0.0931  0.3942
 9262W        W25396   1.484   9.083   1.220 -0.2236 -0.1508 -0.0412
 9263W        W25397   4.436   8.835   2.130  0.3786 -0.0130  0.4454
 9264W        W25398  15.937  13.505   5.212  0.0090 -0.3399 -0.0102
 9265W        W25399  11.925  15.770   3.440 -0.1625 -0.1043 -0.0210
 9266W        W25400   2.119  12.448  13.269  0.0594 -0.0218 -0.2057
 9267W        W25401   1.399   8.670  14.039 -0.1496 -0.0402 -0.1206
 9268W        W25402   7.827  11.690  14.504  0.0793  0.0824  0.1982
 9269W        W25403   0.539   0.492  17.019 -0.1941 -0.3538  0.1725
 9270W        W25404   5.391   6.937   5.726  0.2586 -0.4336  0.1893
 9271W        W25405   9.179  12.540  14.859 -0.0505 -0.2637  0.1067
 9272W        W25406  10.272   7.370   5.765 -0.3079 -0.2964 -0.2026
 9273W        W25407   2.180   1.832  16.250  0.0851 -0.0268 -0.1188
 9274W        W25408   4.037   3.744  14.436  0.4577 -0.0907  0.1206
 9275W        W25409  12.273   9.925  15.487 -0.0689 -0.2645 -0.2359
 9276W        W25410   6.160  15.168  15.858  0.0667 -0.1513 -0.1358
 9277W        W25411   2.409   2.304  12.007  0.1219 -0.1145  0.0850
 9278W        W25412  11.933  15.491   2.808  0.0093  0.1221  0.3065
 9279W        W25413  15.892  10.167  13.097  0.5505  0.0444  0.1502
 9280W        W25414   2.681   3.071   0.569 -0.1210 -0.0515  0.0393
 9281W        W25415   9.661  12.958  14.122 -0.0771  0.0289 -0.1281
 9282W        W25416  14.336   4.410  15.905 -0.0434 -0.2066  0.0296
 9283W        W25417  13.385   7.490   0.428 -0.3206 -0.0739 -0.0378
 9284W        W25418   7.644   6.539  17.056  0.1745  0.2860 -0.3951
 9285W        W25419   1.869   5.068  13.868 -0.0998  0.3603 -0.0224
 9286W        W25420  14.415  16.946   3.932 -0.0341  0.0567  0.0093
 9287W        W25421   0.504   2.457  14.601  0.0178 -0.3038 -0.1682
 9288W        W25422   5.427   5.870   4.375 -0.1606  0.4464  0.0448
 9289W        W25423   2.869   9.337   1.159  0.0575 -0.2347  0.4476
 9290W        W25424   3.425  13.704   4.017 -0.0875  0.0106  0.0324
 9291W        W25425  14.664   5.327  15.082  0.2326 -0.1469 -0.0640
 9292W        W25426  17.394   0.969   4.153  0.2879  0.1541 -0.0978
 9293W        W25427   0.618   1.495   4.063  0.3061  0.0492  0.2373
 9294W        W25428   8.589   9.215  12.979 -0.3911  0.0841  0.3371
 9295W        W25429   2.621   9.878  14.776  0.2497 -0.0610 -0.0117
 9296W        W25430  12.914   4.528   0.994  0.1413  0.2122  0.0701
 9297W        W25431  13.924  14.185   0.381 -0.0911 -0.1925 -0.4755
 9298W        W25432   9.242  13.501   5.049  0.1898  0.0563  0.3614
 9299W        W25433   4.508  14.253  13.212  0.1515 -0.3360 -0.0593
 9300W        W25434  11.711  11.660   4.978  0.0089  0.3838  0.2142
 9301W        W25435   6.838   2.192  15.276  0.3461  0.1819  0.0758
 9302W        W25436  15.031   3.729   4.866 -0.0049  0.2329 -0.0441
 9303W        W25437  15.566   9.194   0.165 -0.1526 -0.0965 -0.3728
 9304W        W25438  10.445  15.673  14.274  0.2626  0.2301  0.2055
 9305W        W25439  12.355  11.214   2.328 -0.0393 -0.1898  0.1363
 9306W        W25440  12.014   1.261  12.083  0.0430 -0.1258 -0.3773
 9307W        W25441   5.239   8.533  12.030  0.0683  0.0066 -0.0704
 9308W        W25442   0.955   6.405   3.421 -0.1578  0.1466 -0.1387
 9309W        W25443   5.167  15.775   0.737  0.1362  0.0819  0.0825
 9310W        W25444  15.064   2.917  13.033  0.2016 -0.2672 -0.3094
 9311W        W25445  14.307   2.666   4.986  0.0245 -0.1576  0.2020
 9312W        W25446   0.734   9.156  13.428  0.0845  0.0799  0.2136
 9313W        W25447   6.056   0.284   1.365  0.0637  0.2394  0.1670
 9314W        W25448   3.283  14.986   4.273  0.1626 -0.0977 -0.0743
 9315W        W25449   0.453  11.887  11.878  0.0773 -0.1458  0.0246
 9316W        W25450   9.100   6.422   1.005  0.2122  0.1406 -0.0665
 9317W        W25451  13.643   9.643  14.743 -0.0874 -0.0017  0.0634
 9318W        W25452  14.382  12.466   6.228  0.1544 -0.0905 -0.2033
 9319W        W25453  10.278   5.665   4.981 -0.1530 -0.0385  0.2454
 9320W        W25454   3.925   6.485   1.922 -0.0767 -0.0922 -0.0896
 9321W        W25455  17.316  10.587   3.371 -0.1720  0.0138 -0.1077
 9322W        W25456  16.539  14.491  12.478  0.1991  0.1900 -0.1578
 9323W        W25457   0.666   5.554  12.982  0.1514 -0.0115 -0.1462
 9324W        W25458  10.381  11.249   4.056  0.0605  0.0257 -0.0226
 9325W        W25459   7.894   3.358   1.652 -0.1411 -0.0049  0.0047
 9326W        W25460  12.726   9.524   1.652  0.2286  0.1746  0.0374
 9327W        W25461   9.105   5.618  11.674  0.0351 -0.0915  0.1939
 9328W        W25462  16.319  12.364  16.878  0.1519  0.1537  0.2919
 9329W        W25463   4.574   3.646  11.679 -0.0774  0.3357 -0.1621
 9330W        W25464   8.286  11.400   5.077  0.0163  0.0918 -0.2630
 9331W        W25465   4.874  12.556  13.841  0.0113 -0.0119  0.0172
 9332W        W25466  12.392  16.301   3.183  0.1737  0.2162 -0.0275
 9333W        W25467  15.139   5.616   1.910  0.2781 -0.2872  0.0391
 9334W        W25468  15.833  17.128  13.948  0.1366 -0.0325  0.0832
 9335W        W25469  12.507   4.718  13.023 -0.1861 -0.1396  0.2880
 9336W        W25470   6.317  13.888  12.891 -0.0324 -0.0883 -0.1309
 9337W        W25471   8.357   0.550   6.260  0.0328  0.3256  0.0767
 9338W        W25472   7.310   3.483  14.787 -0.2112 -0.1559  0.2692
 9339W        W25473   9.816   2.301  11.818  0.1821 -0.2169 -0.1635
 9340W        W25474   5.706  13.057  15.493  0.3089 -0.0573 -0.3194
 9341W        W25475  14.942  10.088  16.787  0.2529  0.2255  0.0692
 9342W        W25476  13.194   9.392  13.442 -0.2209  0.2812  0.2653
 9343W        W25477  14.087  17.131   4.311 -0.1932  0.0768  0.4164
 9344W        W25478   9.698  10.589   4.329 -0.0070  0.0671 -0.1544
 9345W        W25479   5.175   2.352  12.576 -0.1078  0.0999 -0.0991
 9346W        W25480   7.222   1.316   3.858 -0.0254  0.0017 -0.0045
 9347W        W25481   7.741   9.275  12.848 -0.1988  0.0690 -0.2440
 9348W        W25482   8.279  14.793   0.795 -0.1181  0.2210  0.0319
 9349W        W25483   7.526  16.005   0.651 -0.2286  0.1954 -0.0113
 9350W        W25484  14.698  14.703  14.298  0.1637 -0.0439 -0.1077
 9351W        W25485   5.654   8.188  13.177 -0.0911  0.3279 -0.0104
 9352W        W25486   1.791  11.142  14.758 -0.0260 -0.1778  0.0088
 9353W        W25487   2.783  12.354   1.895  0.3722 -0.1097  0.0587
 9354W        W25488  13.359   0.624   4.402  0.1277 -0.0387 -0.2286
 9355W        W25489  16.158  15.622   1.916  0.3183  0.3328  0.0254
 9356W        W25490   8.377   3.220   2.769  0.0643  0.1904 -0.1358
 9357W        W25491   6.642   5.814  12.919  0.2952 -0.0620 -0.1426
 9358W        W25492   6.781   1.673  15.584  0.0503  0.2208  0.4405
 9359W        W25493   5.000   4.547  13.368  0.1911 -0.1168 -0.1257
 9360W        W25494   0.061  16.283   7.080 -0.0140  0.1793 -0.1601
 9361W        W25495   4.743  13.326  12.796  0.0228  0.0398 -0.0459
 9362W        W25496   3.502   7.701  11.883  0.3104  0.0406  0.1291
 9363W        W25497   7.001  12.081  14.888 -0.3386  0.2578  0.2966
 9364W        W25498   3.179  12.053   1.775  0.2462 -0.3123  0.1931
 9365W        W25499  17.105   9.830   0.877  0.0371  0.0138 -0.0124
 9366W        W25500  10.967   2.029   2.890  0.0106 -0.0604 -0.0124
 9367W        W25501  10.923   7.226   4.383  0.0911 -0.1396 -0.2108
 9368W        W25502  11.615  14.203   2.090  0.0749 -0.0638  0.1545
 9369W        W25503   2.594   1.356   0.337 -0.0608  0.0488 -0.0341
 9370W        W25504   1.310   9.589   5.210  0.0478  0.1294  0.2660
 9371W        W25505   3.762  14.968   4.117  0.2962  0.1262  0.0404
 9372W        W25506   5.521   7.382  14.036  0.0931 -0.0538 -0.0444
 9373W        W25507  15.642   1.418  16.500  0.1855  0.0424  0.1990
 9374W        W25508  13.925   9.181  12.239 -0.1582  0.0186 -0.0620
 9375W        W25509   2.544  16.252   5.379 -0.2029 -0.4756  0.3726
 9376W        W25510  15.748   7.998   0.970 -0.0977  0.0292 -0.0254
 9377W        W25511   7.402  15.285   3.267 -0.0564 -0.2040  0.0761
 9378W        W25512   8.153  15.326  11.650  0.2092  0.1083 -0.0335
 9379W        W25513  15.244  15.162  15.795  0.1400 -0.1807  0.1174
 9380W        W25514  11.769   9.770   2.983 -0.0864  0.3162  0.2070
 9381W        W25515  13.466   6.908   1.752 -0.0109 -0.1850  0.3633
 9382W        W25516  12.211   4.648   5.614  0.1064  0.0076 -0.1183
 9383W        W25517   4.812   5.106  14.534 -0.1512 -0.2584 -0.2399
 9384W        W25518   1.002   6.218  14.493 -0.1252  0.2311 -0.2947
 9385W        W25519   7.958  10.429   2.574  0.2181  0.0200  0.0108
 9386W        W25520  11.104  12.063  12.086 -0.1022 -0.0076 -0.3693
 9387W        W25521  14.877  15.545  12.087  0.0950  0.1450 -0.1207
 9388W        W25522   0.013  16.017  17.107  0.0187  0.0972  0.1953
 9389W        W25523   7.504  13.409  14.507 -0.0029  0.1054  0.2749
 9390W        W25524   3.796  13.165   5.952 -0.0217  0.1618 -0.1305
 9391W        W25525   4.765   2.074  12.716 -0.0658 -0.2530 -0.1511
 9392W        W25526   4.104   1.756  15.321 -0.0751  0.0856  0.2283
 9393W        W25527  14.435   1.861  12.662 -0.2312  0.1175  0.3018
 9394W        W25528   0.361  16.451   4.690 -0.0963  0.2409 -0.0142
 9395W        W25529   6.510  13.453  11.658 -0.1319  0.2010 -0.2063
 9396W        W25530   3.989   1.893   0.104 -0.3169  0.0685  0.4141
 9397W        W25531  17.392  11.916   4.427 -0.2195 -0.2989 -0.0742
 9398W        W25532   5.869  17.646   5.290  0.3514 -0.0518  0.0881
 9399W        W25533  12.768   7.180  16.400  0.0374 -0.2859  0.1145
 9400W        W25534  15.544   6.362   3.768 -0.1462 -0.0789  0.1191
 9401W        W25535   2.514   1.920  15.775  0.0148 -0.3093 -0.0842
 9402W        W25536   2.910   7.778   3.639  0.0425 -0.2041  0.3204
 9403W        W25537   0.653  11.304  13.365 -0.3556  0.0989  0.1488
 9404W        W25538   3.765   8.883   4.634 -0.0554  0.2717  0.0893
 9405W        W25539   3.594  10.977   6.160  0.0439 -0.0363  0.3953
 9406W        W25540   5.363   7.365  17.092 -0.3514 -0.0641 -0.1560
 9407W        W25541  11.900  13.516   2.948  0.2896  0.1169 -0.3092
 9408W        W25542   4.218   7.518   1.801  0.1588 -0.0404 -0.1419
 9409W        W25543   7.714   0.082   4.272 -0.0269 -0.1705 -0.1277
 9410W        W25544  10.087   8.629  12.181  0.3175 -0.0087 -0.3381
 9411W        W25545  11.883   3.852   3.461 -0.2580 -0.1519 -0.0637
 9412W        W25546   6.161   7.959  15.191 -0.0152 -0.0068  0.0128
 9413W        W25547  10.510   3.834   3.952 -0.0885  0.2718 -0.0916
 9414W        W25548  14.096  13.359   3.505  0.0586 -0.1871 -0.3545
 9415W        W25549   9.919  10.992   1.353 -0.0663 -0.0976  0.0642
 9416W        W25550  10.035  10.848  17.168  0.0774 -0.1286  0.0943
 9417W        W25551  10.707   1.997  13.577  0.0587  0.0669 -0.3689
 9418W        W25552   4.164  14.990  15.694 -0.0878 -0.0022  0.0551
 9419W        W25553   9.315   3.471  14.899 -0.2001 -0.2427  0.1803
 9420W        W25554   3.419  15.304   3.855 -0.2192 -0.1164  0.2426
 9421W        W25555   6.208   1.775  13.072  0.2233 -0.1271  0.1677
 9422W        W25556   9.847  12.008   0.434 -0.5160  0.0723  0.0946
 9423W        W25557   8.594   8.328  16.273 -0.1550 -0.0442  0.1554
 9424W        W25558  13.425   6.519   4.256  0.1417 -0.0455 -0.1312
 9425W        W25559  16.948   9.083   1.765  0.0124 -0.0259  0.0494
 9426W        W25560   4.032   1.655  16.802 -0.2046 -0.0183  0.1793
 9427W        W25561   7.161   5.465  13.572 -0.1841  0.0915  0.1494
 9428W        W25562   9.987  11.767   0.015 -0.1571 -0.2205 -0.0493
 9429W        W25563   8.184  13.018  13.136 -0.2359 -0.0037 -0.4758
 9430W        W25564   3.129   3.686   1.823 -0.1032  0.1666 -0.1685
 9431W        W25565  13.960   3.917  16.803 -0.1775 -0.3261  0.2008
 9432W        W25566   5.327   7.394  12.097 -0.1491  0.3246 -0.2141
 9433W        W25567   3.018  11.012   2.709 -0.0852  0.1955  0.0329
 9434W        W25568  10.220   4.312   0.872 -0.1179  0.0570  0.2477
 9435W        W25569  10.672   5.602   1.033  0.0694  0.1524 -0.1840
 9436W        W25570   8.894   0.703  11.750 -0.0341 -0.2498 -0.0712
 9437W        W25571   6.840   2.088  13.678 -0.1686 -0.4368 -0.0832
 9438W        W25572   8.449  12.577  13.164 -0.1977 -0.2611  0.1704
 9439W        W25573   0.654   6.504   0.381  0.1298  0.1344 -0.2786
 9440W        W25574  16.074   7.607   6.074 -0.2531  0.1980 -0.2889
 9441W        W25575   7.139  15.888   3.810  0.0302  0.0109  0.1383
 9442W        W25576  16.417  10.450  11.267  0.0598  0.1870  0.2145
 9443W        W25577   6.308   5.674   4.586 -0.0599 -0.2260 -0.1004
 9444W        W25578  14.375   8.478  13.257  0.2419  0.2518  0.0177
 9445W        W25579  16.357  15.021  13.751  0.1640  0.1714 -0.1290
 9446W        W25580  10.131  11.175   3.082 -0.0320  0.5023  0.0284
 9447W        W25581  16.085  10.768  13.905 -0.0977 -0.0484  0.0381
 9448W        W25582  15.118  14.132   1.501 -0.2425 -0.1264  0.1425
 9449W        W25583  14.966   5.681  11.111  0.1058  0.0105  0.0396
 9450W        W25584  15.798   3.162  12.419  0.0490 -0.0326 -0.0732
 9451W        W25585  16.638   6.300  16.835  0.0261 -0.0387 -0.2135
 9452W        W25586  15.486   0.761  17.155 -0.0236  0.1532  0.0811
 9453W        W25587   4.022  11.352  12.664 -0.0419 -0.1207 -0.2086
 9454W        W25588   9.818  10.975  16.512 -0.2271  0.2832  0.0605
 9455W        W25589  12.647  15.407   3.620 -0.2513 -0.1304 -0.0122
 9456W        W25590   5.225   4.080   0.735  0.2661  0.0683  0.1086
 9457W        W25591   1.899   2.177   6.033  0.0970 -0.0936  0.0802
 9458W        W25592  11.282   9.315   5.397  0.0243  0.2396  0.2426
 9459W        W25593   7.036  17.433   4.699 -0.2602  0.2537 -0.3932
 9460W        W25594   4.106  16.180   5.396 -0.2017  0.0942  0.0260
 9461W        W25595  16.023  15.983   1.533  0.1305  0.0320 -0.2097
 9462W        W25596   6.701   3.578   2.150  0.2578  0.1848  0.0168
 9463W        W25597   1.666  13.227  11.351 -0.1373 -0.0284  0.0390
 9464W        W25598  14.892  15.279  12.523  0.0451  0.0894  0.0122
 9465W        W25599   1.619  14.441   2.149  0.3362  0.1451 -0.0089
 9466W        W25600  16.624  15.243   0.875 -0.1172 -0.0154 -0.1785
 9467W        W25601  10.041   0.944  16.524 -0.1666  0.0731 -0.1474
 9468W        W25602   6.051  14.177  17.038 -0.0390  0.1434  0.1619
 9469W        W25603   7.195  15.019   2.292 -0.0137 -0.0684 -0.1419
 9470W        W25604   6.758  13.130   3.194  0.0159 -0.1872  0.0366
 9471W        W25605  13.513  14.412   0.196  0.2818 -0.0109  0.1112
 9472W        W25606  11.113   9.897  11.706 -0.0913  0.1264 -0.2246
 9473W        W25607  14.000   4.885   1.552  0.1989 -0.0192 -0.1759
 9474W        W25608   7.375  10.004  13.325  0.0272  0.0598 -0.1782
 9475W        W25609  12.749   1.332  16.529  0.0047  0.0105  0.0435
 9476W        W25610  14.506   4.723   3.145 -0.1267 -0.1726 -0.2910
 9477W        W25611  10.805   4.961  13.515  0.1788  0.0983 -0.4349
 9478W        W25612   5.627   9.171   2.653  0.1698  0.1830  0.3280
 9479W        W25613  15.001  15.501   5.696  0.0295  0.2546 -0.0506
 9480W        W25614  10.146   7.827   4.050 -0.1635 -0.4545 -0.0296
 9481W        W25615  14.427   3.925  13.914  0.1040  0.4021  0.0979
 9482W        W25616   0.391   3.865  14.777 -0.0545 -0.1553 -0.1253
 9483W        W25617  12.126   6.572   5.620 -0.2125 -0.2282 -0.2929
 9484W        W25618   8.720   9.922  16.865 -0.1182 -0.0167 -0.0973
 9485W        W25619   0.808  12.248   1.570 -0.0072  0.1543 -0.1238
 9486W        W25620  15.574   1.640   4.302 -0.0523 -0.1252 -0.1827
 9487W        W25621   6.086  10.905  13.175  0.2136  0.4130 -0.1703
 9488W        W25622   9.834  16.487  12.123  0.0399 -0.4562 -0.1574
 9489W        W25623  10.300  14.154  15.891  0.4435 -0.0255  0.3253
 9490W        W25624  17.084   8.854  17.093 -0.1358  0.1937 -0.2598
 9491W        W25625  11.815   2.544  14.389 -0.0567  0.0524 -0.2546
 9492W        W25626   4.172  13.475  14.457 -0.2797 -0.0381 -0.0324
 9493W        W25627   9.287   4.846  16.991 -0.0285  0.0792 -0.0169
 9494W        W25628  16.159  15.156   0.695 -0.0036  0.1298 -0.0467
 9495W        W25629  15.320   0.314  14.037 -0.0305 -0.0687 -0.1331
 9496W        W25630  15.540   2.787   5.573 -0.1373 -0.1769  0.0492
 9497W        W25631   5.864   0.470   5.499  0.4480  0.3495  0.1286
 9498W        W25632   9.928  16.681   2.900 -0.1647 -0.1392 -0.1280
 9499W        W25633  17.045  15.328  12.671 -0.0408  0.0646  0.1405
 9500W        W25634  16.606   5.613  14.151  0.2493  0.1410  0.1184
 9501W        W25635  10.423   4.411  12.377  0.1531  0.1881 -0.2067
 9502W        W25636  14.068   8.611  13.674  0.0751  0.0824  0.2188
 9503W        W25637  12.397   1.097   1.086 -0.2369  0.2229  0.2376
 9504W        W25638   5.802  15.537  17.096  0.2303  0.2901  0.1107
 9505W        W25639  10.891  13.566  14.463 -0.0760  0.1524 -0.0815
 9506W        W25640  11.975  10.889  13.685 -0.1576  0.0160  0.0277
 9507W        W25641   9.029  10.923  11.906 -0.0877  0.0219  0.0311
 9508W        W25642   2.769  11.047  16.294  0.0754 -0.0232  0.2895
 9509W        W25643   5.475   9.749  15.160 -0.0609  0.0053  0.3778
 9510W        W25644  17.412   1.100   0.989  0.0442 -0.1243  0.1351
 9511W        W25645  14.880   1.948   3.526 -0.0835 -0.0103  0.2266
 9512W        W25646  17.052   1.212  13.665 -0.3962  0.0530 -0.0977
 9513W        W25647  10.916   1.177  16.594 -0.1362 -0.1727  0.1153
 9514W        W25648   5.651  11.392   4.365  0.1238 -0.0664 -0.0706
 9515W        W25649  16.743   4.269   0.730 -0.0582  0.1515  0.0535
 9516W        W25650   6.995  13.520   4.541  0.2610  0.2522 -0.0151
 9517W        W25651  12.853  15.617  16.014  0.2100 -0.0299 -0.0977
 9518W        W25652   5.043   4.445   1.075  0.2566  0.0164  0.0084
 9519W        W25653   1.786   9.023  14.136 -0.0480  0.1785  0.2529
 9520W        W25654   7.865   0.908  16.678 -0.1654 -0.0053  0.0459
 9521W        W25655   7.346  10.574   1.462 -0.1619  0.0976 -0.0297
 9522W        W25656  10.872  11.801   3.112 -0.2217  0.0519  0.0011
 9523W        W25657   1.396   3.562   3.076 -0.0708 -0.0440  0.1579
 9524W        W25658   9.565   4.550   1.099 -0.1776  0.1508 -0.3132
 9525W        W25659   5.935  12.337  12.327  0.1370  0.2172 -0.0328
 9526W        W25660   9.429   9.851   1.809  0.1754 -0.0480  0.1274
 9527W        W25661   1.726   9.294  15.546 -0.1379  0.3729 -0.0931
 9528W        W25662   9.775  13.206   2.725  0.0464 -0.3706  0.2078
 9529W        W25663  16.582   8.703   4.790  0.2320  0.1939  0.0017
 9530W        W25664  11.840  10.553  14.206 -0.1981  0.2101 -0.0028
 9531W        W25665   5.538  12.160  13.215  0.1899  0.1574  0.1339
 9532W        W25666   8.569   8.357  13.251  0.2466  0.0832  0.3474
 9533W        W25667  15.284  15.181  12.131 -0.2894 -0.0605  0.0605
 9534W        W25668   3.596   3.262  13.123  0.0388  0.1066  0.4674
 9535W        W25669  10.229   7.717  14.762  0.0637 -0.1937 -0.0031
 9536W        W25670   0.806   9.917  11.973  0.0534  0.0005  0.0843
 9537W        W25671  15.655   7.039  10.784 -0.0234  0.1351  0.1846
 9538W        W25672   0.942  13.394   2.732 -0.2058 -0.2806 -0.1510
 9539W        W25673   4.783  14.346   4.815 -0.0960 -0.0623 -0.0831
 9540W        W25674   1.391   7.659   3.578  0.3132 -0.0084 -0.2654
 9541W        W25675   3.451   5.736  13.557 -0.1803  0.1590 -0.0136
 9542W        W25676   4.328   8.158   4.407  0.1779 -0.1315  0.1181
 9543W        W25677   7.771   0.517  13.199 -0.2453  0.3040 -0.1955
 9544W        W25678   9.954  14.423   3.842 -0.0918  0.1755 -0.0286
 9545W        W25679   8.480  16.353   5.672  0.1243 -0.0176  0.0348
 9546W        W25680   4.146  16.098   0.321  0.1366 -0.2222  0.0581
 9547W        W25681   0.821   1.488   0.622  0.0203  0.5708 -0.1231
 9548W        W25682  13.014   7.460   2.941  0.2174 -0.0740 -0.0012
 9549W        W25683   4.857  11.754  13.660  0.1221  0.1071  0.1012
 9550W        W25684   5.028   8.843   1.408  0.1620 -0.1342 -0.0318
 9551W        W25685   1.387   3.708   2.419 -0.1765  0.3869  0.3214
 9552W        W25686   1.848   3.100  15.557 -0.2388 -0.4066 -0.0526
 9553W        W25687  15.527   8.068   1.462 -0.0619  0.1557  0.1648
 9554W        W25688   0.983   5.842   0.990 -0.0324 -0.0809  0.1560
 9555W        W25689   6.854   2.748  17.084  0.2361 -0.2516  0.0727
 9556W        W25690   8.966   4.611  16.154  0.1648 -0.2406 -0.1484
 9557W        W25691  11.127  16.081   3.550  0.2388 -0.1906 -0.0702
 9558W        W25692   5.638  11.106  13.201  0.2382 -0.0852  0.2267
 9559W        W25693  10.040   3.039   2.774 -0.1781  0.3002  0.2907
 9560W        W25694   8.932   1.572   1.008 -0.3606  0.0562  0.0165
 9561W        W25695  10.430   7.897   1.233 -0.2405  0.0146 -0.0924
 9562W        W25696   4.208   6.752   2.881  0.3150 -0.0053 -0.0093
 9563W        W25697  15.561  16.528  12.541 -0.0014 -0.0967  0.0916
 9564W        W25698  14.612   2.815  13.788 -0.0573  0.1975  0.1234
 9565W        W25699  11.117  12.995  16.669  0.3316  0.0024 -0.0064
 9566W        W25700  12.448   6.083   0.598  0.0944 -0.0784 -0.1784
 9567W        W25701   9.086  15.712   2.534  0.3180  0.3083  0.0898
 9568W        W25702  15.354   7.447  17.116 -0.3461  0.1576  0.2084
 9569W        W25703  15.614  16.211   0.021  0.1837 -0.0898 -0.1321
 9570W        W25704   9.057   7.010  16.700 -0.0042 -0.0866 -0.0641
 9571W        W25705  10.595  17.255  14.424  0.0981  0.1826 -0.1298
 9572W        W25706  11.303  15.810  14.803  0.2145  0.0181 -0.1054
 9573W        W25707   7.404   4.097   0.120  0.1224  0.2529 -0.1802
 9574W        W25708   4.046   4.628  15.652  0.3173  0.0610  0.1132
 9575W        W25709   2.890   9.727   2.188  0.2882  0.0176  0.0382
 9576W        W25710   4.634  13.975   2.601 -0.0700  0.0739  0.1055
 9577W        W25711  12.477  11.521   4.437  0.1888 -0.2229 -0.2365
 9578W        W25712  10.415   7.451   4.496  0.1476 -0.1659  0.1509
 9579W        W25713   0.433   4.723   2.827 -0.3179 -0.1027 -0.0183
 9580W        W25714   0.115   0.611   0.174 -0.1190  0.0108  0.0441
 9581W        W25715  10.167   0.776  14.839 -0.3182 -0.1119  0.2023
 9582W        W25716   7.016   8.128   4.911 -0.2066  0.1933  0.2425
 9583W        W25717   6.859  15.157  16.534 -0.3667  0.1950  0.1736
 9584W        W25718   3.530   4.073  12.423  0.0412  0.1655  0.2204
 9585W        W25719   4.625  14.916  15.906  0.2620 -0.1358 -0.1255
 9586W        W25720  12.093  10.576   1.055  0.0180  0.2647 -0.0542
 9587W        W25721   3.812   4.774  14.515 -0.0655  0.2589  0.0395
 9588W        W25722   3.346   2.849  15.231 -0.0765  0.0093  0.1897
 9589W        W25723  16.864   7.419   5.187  0.0856 -0.1911  0.0382
 9590W        W25724   5.087   7.697  13.895  0.0938 -0.5361 -0.0407
 9591W        W25725   4.026   3.672  16.483 -0.1871 -0.0336 -0.0500
 9592W        W25726   4.392  16.477  16.838 -0.0533  0.0767  0.0978
 9593W        W25727  17.369  15.510   3.372  0.0698 -0.2797 -0.2190
 9594W        W25728  10.570  16.120   0.216  0.2283 -0.2644 -0.1998
 9595W        W25729   0.266   8.500  16.024  0.0280  0.0715 -0.0905
 9596W        W25730   5.435   0.781   1.882 -0.1005 -0.0472  0.1934
 9597W        W25731  14.608  10.210  12.646  0.0773 -0.1332  0.0344
 9598W        W25732  11.535  13.866   4.135 -0.1609 -0.0555 -0.0964
 9599W        W25733  16.102  13.087   0.827 -0.3143 -0.2664 -0.0764
 9600W        W25734   9.369   4.957  13.669  0.0686  0.3284 -0.0788
 9601W        W25735   5.742   4.794  11.647  0.1908 -0.0967  0.0483
 9602W        W25736  15.804   2.615  13.298  0.1186 -0.1282  0.1543
 9603W        W25737   2.316  13.241  12.659 -0.1570 -0.4525 -0.0225
 9604W        W25738  12.540  13.643   4.973 -0.0599  0.0599 -0.0432
 9605W        W25739   6.736   2.009  16.298  0.0462  0.0486 -0.0963
 9606W        W25740  12.365   0.088  13.820  0.1226  0.0620 -0.1491
 9607W        W25741   8.686  10.748  12.875  0.1772  0.2651 -0.0086
 9608W        W25742  14.203  13.883  13.230 -0.1632 -0.0547  0.3413
 9609W        W25743  15.896   4.648  15.577  0.1950  0.0017 -0.0945
 9610W        W25744  15.071  11.311  16.375 -0.0099  0.4447 -0.0384
 9611W        W25745  11.351  13.375  14.382 -0.0759  0.1083 -0.2342
 9612W        W25746  17.465   7.788   4.383 -0.1377  0.0985  0.0786
 9613W        W25747   3.597  12.222   2.548  0.3164  0.0054 -0.0406
 9614W        W25748  12.894  14.522  14.315  0.0149  0.1119  0.0756
 9615W        W25749   6.978   2.777  14.653  0.0464  0.1322  0.4174
 9616W        W25750   6.719   3.639  11.908  0.0391 -0.0709  0.0756
 9617W        W25751   9.136   6.455   3.935 -0.1582 -0.0947  0.2526
 9618W        W25752   0.238  10.072   4.519  0.2238  0.1150  0.0516
 9619W        W25753  10.397  14.194   3.708  0.0287  0.0875  0.0217
 9620W        W25754   2.422   3.328  14.791  0.2861 -0.3666 -0.0481
 9621W        W25755   3.170  14.596  14.194 -0.0937 -0.1860  0.0094
 9622W        W25756  11.184   2.223  14.978 -0.0951 -0.0590 -0.0109
 9623W        W25757   6.099   3.108  13.331 -0.2088 -0.1372  0.1298
 9624W        W25758  14.041  12.946  15.783 -0.2398 -0.0181  0.0403
 9625W        W25759  10.572  11.018  15.171  0.0623  0.0109  0.3438
 9626W        W25760  12.224   2.482  13.269  0.0698 -0.2027  0.0122
 9627W        W25761   2.279  16.153  16.015  0.1730  0.1899 -0.2166
 9628W        W25762   3.452  10.576   2.088  0.0743 -0.0538 -0.0961
 9629W        W25763  10.332   1.489  14.362  0.3350 -0.1191  0.0332
 9630W        W25764  15.033   5.873   3.624 -0.1188  0.3133 -0.1199
 9631W        W25765  10.292   9.990  14.884  0.1561  0.0573 -0.5445
 9632W        W25766  16.377   5.384  11.961  0.2229 -0.1540  0.1244
 9633W        W25767   5.918   5.689   0.256  0.0434  0.0024 -0.1111
 9634W        W25768  11.877   7.963   4.832  0.1519 -0.2146 -0.1320
 9635W        W25769  12.141  17.372  15.374  0.1146  0.0080  0.2790
 9636W        W25770  15.767   7.227  16.848  0.0776  0.1987 -0.0981
 9637W        W25771   8.710   0.870   5.707  0.2045 -0.1935  0.0350
 9638W        W25772  16.279   9.752   1.493  0.0261 -0.1181  0.1179
 9639W        W25773  11.784  14.714   3.591  0.0059  0.1332  0.1173
 9640W        W25774   0.065  12.098  14.764  0.1958 -0.1244 -0.1198
 9641W        W25775  12.935  14.458   2.938  0.3893  0.1427  0.0031
 9642W        W25776  15.139   4.235  12.760 -0.2004  0.1543  0.0626
 9643W        W25777  16.905  14.847   0.814 -0.1396  0.2274  0.3608
 9644W        W25778  10.473   0.153   3.820  0.1920  0.0759 -0.2005
 9645W        W25779  10.467   5.563   2.892 -0.0287  0.0342 -0.0643
 9646W        W25780   4.455   8.272  13.738  0.0027 -0.0226 -0.2303
 9647W        W25781   5.450   8.507   1.170 -0.1276  0.0490 -0.1573
 9648W        W25782  14.944   3.614   0.640  0.3545 -0.0478 -0.0390
 9649W        W25783   3.022  12.687  16.924 -0.0298 -0.2516 -0.1196
 9650W        W25784   1.135   9.572  16.800 -0.0143 -0.0722 -0.0232
 9651W        W25785  10.099  16.957   5.624  0.1147 -0.2034  0.0157
 9652W        W25786   4.188   3.430  11.426 -0.1127  0.4860 -0.0185
 9653W        W25787  15.213   4.072   1.029  0.0325  0.3128 -0.0422
 9654W        W25788   2.055   3.999   0.061 -0.0087 -0.4618 -0.3130
 9655W        W25789  14.778  15.778   1.702 -0.0278 -0.2438  0.0263
 9656W        W25790   3.176   6.940  15.214 -0.3302  0.1119 -0.2781
 9657W        W25791  13.696  14.360   4.190 -0.0247  0.2817  0.2060
 9658W        W25792   8.550   6.764  11.812 -0.2648 -0.2470  0.2772
 9659W        W25793  13.553   0.367   0.753  0.1924 -0.0008 -0.2098
 9660W        W25794  14.746  12.617   2.026 -0.0678 -0.0467  0.0612
 9661W        W25795   6.214   5.088  12.917 -0.0507 -0.0376 -0.1594
 9662W        W25796   5.835   4.951   1.803 -0.4262 -0.3615 -0.0692
 9663W        W25797   7.502   4.194   1.506  0.2144 -0.2094 -0.0892
 9664W        W25798   7.687   6.795   2.677  0.0698  0.0924  0.1131
 9665W        W25799  17.184   0.305   1.575 -0.1856 -0.1327 -0.0582
 9666W        W25800   2.909   8.734   4.840  0.1128  0.2242 -0.2070
 9667W        W25801  13.346   7.497   3.733  0.3518 -0.1210 -0.1085
 9668W        W25802   3.110   8.582   1.935  0.0931  0.3083 -0.1033
 9669W        W25803   3.760   2.908   1.673 -0.1888 -0.2061  0.2057
 9670W        W25804   5.861   1.021  11.751  0.1549 -0.1457  0.1139
 9671W        W25805  11.641   5.043   1.420 -0.0876  0.1106  0.2462
 9672W        W25806   5.326   9.797   3.439 -0.2686 -0.0980 -0.2273
 9673W        W25807   1.810   5.753   1.587  0.0896  0.1766  0.0367
 9674W        W25808   8.197   4.902  16.026  0.2187  0.2056 -0.2070
 9675W        W25809  13.878  15.536  15.223  0.0780 -0.1454 -0.0410
 9676W        W25810   5.406   0.894   2.609  0.1117 -0.3918  0.2853
 9677W        W25811   3.668  11.292   2.079  0.0396 -0.0847  0.0357
 9678W        W25812   2.401   7.414   4.561 -0.6319 -0.1268  0.0694
 9679W        W25813   6.964  15.529   3.477  0.0539 -0.0108 -0.1846
 9680W        W25814  15.797   5.859   0.694 -0.0180 -0.0218 -0.4108
 9681W        W25815  13.211  17.386   4.581  0.0497 -0.3406  0.0922
 9682W        W25816  10.300   4.887   5.347  0.3291 -0.3727  0.1173
 9683W        W25817  17.203   5.597  13.319  0.1720 -0.0637  0.0055
 9684W        W25818  10.252  15.570  15.452 -0.3097  0.3139 -0.2071
 9685W        W25819   6.572   8.907   0.314 -0.0303  0.0623 -0.1210
 9686W        W25820  17.438   4.338   0.161  0.1075  0.1025  0.1513
 9687W        W25821   2.547   0.918   1.770  0.2119 -0.0928  0.1873
 9688W        W25822   3.678   2.071  15.254  0.1592  0.0867 -0.3394
 9689W        W25823  12.572   4.792  15.620  0.2732 -0.0588  0.0384
 9690W        W25824  14.801  10.665  12.648  0.1263  0.2617  0.3859
 9691W        W25825  13.509   5.009   0.365 -0.0709 -0.3979 -0.0247
 9692W        W25826  14.091   3.915  14.457 -0.3646 -0.2330  0.4219
 9693W        W25827   7.818   8.189   0.286 -0.1973 -0.1129 -0.6469
 9694W        W25828  11.374   8.062   5.082 -0.0423  0.1566 -0.2061
 9695W        W25829  13.236   0.179   4.187 -0.0548 -0.1839 -0.3219
 9696W        W25830  17.051  15.230   0.424 -0.3189 -0.1142  0.0054
 9697W        W25831   3.089  17.457  14.893  0.1105  0.1652 -0.1329
 9698W        W25832  10.949  16.968   5.544  0.2099  0.0057  0.0505
 9699W        W25833  15.620  10.647  13.173 -0.1290  0.1349  0.1786
 9700W        W25834   0.392   7.351  13.070 -0.1032  0.2873  0.3648
 9701W        W25835   1.149   7.553   1.015  0.1624  0.2000  0.2889
 9702W        W25836   7.119   1.803   2.415 -0.3320 -0.0547 -0.1342
 9703W        W25837   5.468  17.123   1.005  0.1457  0.2108 -0.0478
 9704W        W25838   2.136   4.145  15.878 -0.1006 -0.1050  0.0164
 9705W        W25839  14.406  12.303   0.746 -0.0860  0.1636 -0.2380
 9706W        W25840   0.148   1.748  15.757  0.2580 -0.1394  0.0348
 9707W        W25841   1.554  12.604  15.346  0.1830 -0.0610 -0.1678
 9708W        W25842   3.867  16.651  17.012 -0.0073 -0.1857  0.3133
 9709W        W25843  16.184   5.556   4.937 -0.0828 -0.0549  0.1561
 9710W        W25844  16.615  16.425   3.642 -0.1115  0.1944 -0.0738
 9711W        W25845  17.003  17.278   2.793 -0.0533  0.0272  0.0185
 9712W        W25846   1.177  15.705   0.370 -0.1046 -0.2236 -0.0323
 9713W        W25847   9.232   0.536  13.001 -0.3689  0.0464  0.0205
 9714W        W25848   4.835   4.862  11.421 -0.0771 -0.0943 -0.0422
 9715W        W25849   4.084   3.487   5.691 -0.0966 -0.1836  0.2732
 9716W        W25850  16.206   1.899  13.013  0.1057 -0.5973  0.3225
 9717W        W25851  10.120   1.623  17.105 -0.2356  0.0727 -0.0373
 9718W        W25852   9.559  16.342   4.611 -0.1563 -0.0399 -0.1955
 9719W        W25853   8.200  16.073  13.610 -0.0603  0.1980  0.1334
 9720W        W25854  17.618  17.095  16.259  0.1746  0.1484 -0.1990
 9721W        W25855  11.649  13.545  11.937  0.1798  0.2646  0.1265
 9722W        W25856  10.701  11.185  17.043 -0.0915 -0.0264 -0.0038
 9723W        W25857   0.096  10.796   3.925  0.2251 -0.2022 -0.0714
 9724W        W25858   5.300   1.912   5.042  0.1158 -0.0564 -0.5415
 9725W        W25859  16.258  10.612   4.950 -0.0989  0.0583 -0.0431
 9726W        W25860  10.593  10.325  16.212 -0.0825  0.1178  0.1564
 9727W        W25861   9.891   8.760   1.470 -0.0561 -0.1210 -0.0142
 9728W        W25862  10.923  11.363   5.568 -0.2157  0.0367  0.1771
 9729W        W25863  13.050   8.938  13.545  0.0113  0.3439 -0.2835
 9730W        W25864   0.166  15.767  13.671  0.3918 -0.0725 -0.0604
 9731W        W25865   6.662   1.171  15.244 -0.1141 -0.0294 -0.2249
 9732W        W25866   1.134   5.437  15.145  0.1099  0.1816  0.0222
 9733W        W25867  15.144   4.270   4.658 -0.2056 -0.1346 -0.1344
 9734W        W25868  15.374  11.081  13.297 -0.0877  0.0495 -0.3082
 9735W        W25869   6.937   3.272   1.801  0.0430 -0.0513  0.1459
 9736W        W25870   8.482  12.189   4.918  0.0517 -0.2053 -0.1193
 9737W        W25871  10.930   4.861   4.534 -0.2979  0.0444 -0.3373
 9738W        W25872  15.136   9.509  12.038 -0.1422 -0.0977 -0.0786
 9739W        W25873   5.252  17.517   0.589 -0.0909 -0.1028 -0.1494
 9740W        W25874  14.199  17.348  15.141 -0.0830 -0.2997 -0.3493
 9741W        W25875   8.520   1.347  15.525 -0.5351  0.0552 -0.2424
 9742W        W25876   2.142  11.499  17.080  0.0686 -0.0567  0.1944
 9743W        W25877  16.450   3.237  13.393 -0.0306 -0.0058  0.0251
 9744W        W25878   7.542   5.060  16.968 -0.2500 -0.0467 -0.1389
 9745W        W25879   1.531  12.141   0.101 -0.1275 -0.1753 -0.3084
 9746W        W25880  14.625  10.427  16.928  0.1494  0.0943 -0.0275
 9747W        W25881   5.962   0.826   2.685 -0.0047  0.2126 -0.2136
 9748W        W25882  10.611   7.893  13.192  0.0339 -0.3605 -0.1149
 9749W        W25883   1.885   3.879   3.162 -0.0546  0.0403  0.1477
 9750W        W25884   7.951   0.393  12.449 -0.0435  0.2260 -0.0038
 9751W        W25885   5.920  16.492  16.431 -0.0001 -0.0770 -0.1958
 9752W        W25886   3.787   7.324  13.524  0.0241 -0.0188  0.0165
 9753W        W25887   4.103   4.117  14.841  0.1547  0.3372 -0.0342
 9754W        W25888  12.625  16.476   5.647 -0.0979  0.0065 -0.0583
 9755W        W25889   1.383   0.389   2.206  0.2629 -0.0324 -0.0705
 9756W        W25890   5.479  13.254   3.511  0.0254 -0.0347 -0.1130
 9757W        W25891  16.616  16.539   1.756  0.0284 -0.0936  0.0236
 9758W        W25892   5.817   9.451   5.121 -0.0088 -0.3149  0.0936
 9759W        W25893   1.333  17.532   0.260 -0.0265 -0.1789  0.0670
 9760W        W25894   5.838  13.022  14.142  0.4156 -0.0070  0.0920
 9761W        W25895   0.231  15.388   0.097 -0.0648 -0.1056 -0.0065
 9762W        W25896   3.303   8.838  16.956 -0.0382  0.0558  0.0236
 9763W        W25897   5.960  16.164  14.658  0.0514 -0.2624  0.1220
 9764W        W25898   2.907   9.952   5.483 -0.0706 -0.4336  0.2399
 9765W        W25899   6.532  10.354   4.278 -0.1462  0.0448  0.0098
 9766W        W25900  17.323   9.922   1.436 -0.0108  0.3253  0.1701
 9767W        W25901   8.838  12.499  12.076  0.2560 -0.0677  0.0752
 9768W        W25902   7.613  12.662   0.544  0.3480  0.1058 -0.2757
 9769W        W25903   3.480   4.559  13.044 -0.0576  0.0975  0.2307
 9770W        W25904   2.365   8.510  13.147  0.1806  0.0044  0.0841
 9771W        W25905  12.436  17.119   1.623 -0.1733 -0.0836 -0.0885
 9772W        W25906  15.701  12.926   1.645  0.0268 -0.1777  0.0685
 9773W        W25907  10.827  11.789   2.587  0.1079 -0.1298 -0.0883
 9774W        W25908  11.884   4.157   0.152 -0.1496 -0.0088  0.0335
 9775W        W25909   2.477   5.539  15.297 -0.0531 -0.0039  0.0010
 9776W        W25910  16.176   8.750   5.210 -0.2386 -0.0512  0.0840
 9777W        W25911   3.341   9.365   3.917  0.0311 -0.0916  0.0506
 9778W        W25912  12.234  15.408   3.220  0.0520  0.0658  0.0714
 9779W        W25913  14.911   3.675  16.809 -0.1065  0.1347 -0.0315
 9780W        W25914  13.467   2.583   0.161  0.2551 -0.1621  0.0142
 9781W        W25915  11.476  14.267  13.245  0.1009 -0.1758  0.1097
 9782W        W25916  14.510   9.774  12.440 -0.2215 -0.0123 -0.0755
 9783W        W25917  10.040   2.101   5.058  0.2692  0.0104 -0.0718
 9784W        W25918   4.520  16.804  12.024 -0.0589 -0.2971  0.0091
 9785W        W25919  12.583   6.826   2.508 -0.0666  0.0049  0.1608
 9786W        W25920   2.755   1.930   6.082  0.3887 -0.0595 -0.1221
 9787W        W25921  13.421  12.791  13.474 -0.1964  0.2850 -0.0064
 9788W        W25922  15.286   5.604   5.200  0.2035  0.1479 -0.2420
 9789W        W25923   1.078   9.787   4.823 -0.0055  0.2810  0.0304
 9790W        W25924   5.930  17.362  16.309 -0.2348  0.1259  0.1556
 9791W        W25925   7.384   3.366   3.782 -0.0533 -0.0552 -0.0968
 9792W        W25926  16.854   8.544   1.419 -0.2407 -0.0838  0.1063
 9793W        W25927  15.419   1.884  16.518 -0.1645 -0.3152  0.1137
 9794W        W25928   0.756  13.519  12.894  0.1371  0.2203 -0.3246
 9795W        W25929  16.134  10.223  11.681 -0.2149  0.2793 -0.0413
 9796W        W25930   5.138  11.279  16.166 -0.0856  0.0505  0.1356
 9797W        W25931   7.306   0.794  13.636 -0.1897 -0.0726  0.2002
 9798W        W25932   9.300   3.908   0.187 -0.1169  0.1475  0.0159
 9799W        W25933  15.532  13.004  16.875 -0.2925  0.0459  0.0458
 9800W        W25934  12.151  15.134   2.048 -0.0802  0.1250  0.1546
 9801W        W25935   5.387   7.799   3.147 -0.0269 -0.1604 -0.4322
 9802W        W25936  13.941   6.102  12.888 -0.0421  0.0424 -0.0822
 9803W        W25937   5.342   8.201   2.828 -0.1195 -0.2398  0.0503
 9804W        W25938  13.869   3.763   5.555 -0.1528 -0.0199  0.2239
 9805W        W25939   3.211  15.615   1.503 -0.0985  0.0575 -0.1576
 9806W        W25940  17.035   9.456  13.113  0.3326 -0.1675  0.4385
 9807W        W25941  16.846   6.487   3.671  0.2960 -0.1674 -0.2407
 9808W        W25942  14.667   3.864   5.314  0.0935  0.0246 -0.1495
 9809W        W25943   5.324  10.186  15.404  0.4061  0.2492  0.4310
 9810W        W25944  10.341   7.847   5.821 -0.1690 -0.2896  0.4957
 9811W        W25945  11.000  11.104   0.408  0.4322  0.0772 -0.2831
 9812W        W25946   1.714  11.016   0.110 -0.3548 -0.0499 -0.0886
 9813W        W25947   0.846   2.154   1.795  0.1601 -0.0434  0.4429
 9814W        W25948   6.516   4.522  15.584  0.2408 -0.0393 -0.1050
 9815W        W25949   6.266  10.167   0.612  0.0125  0.0448 -0.3886
 9816W        W25950   2.670  12.316  12.598 -0.0466 -0.0718 -0.1623
 9817W        W25951   4.598   4.291   3.712 -0.0546 -0.5097 -0.2213
 9818W        W25952   6.844   8.936  15.211  0.0843  0.0110 -0.2560
 9819W        W25953   2.637   8.188   2.698  0.0624  0.1703 -0.0640
 9820W        W25954  13.784   8.535  15.207 -0.2285 -0.3575  0.0652
 9821W        W25955   5.028  17.031  15.126 -0.0800  0.3308 -0.0859
 9822W        W25956  10.865   8.829  16.290 -0.3391 -0.1649 -0.1796
 9823W        W25957  15.751   2.309  16.453  0.0104  0.0973 -0.4036
 9824W        W25958  16.736   3.053   4.735 -0.1862 -0.0516 -0.0704
 9825W        W25959   4.698  14.176  13.749 -0.2399  0.0237  0.3270
 9826W        W25960   0.989   5.311  12.379 -0.0002 -0.1884 -0.0117
 9827W        W25961   8.434   0.586  16.385  0.1120 -0.1366 -0.0760
 9828W        W25962   0.090   1.712   4.062  0.0367  0.0286 -0.0993
 9829W        W25963  11.970  10.582  16.128 -0.1757 -0.1342 -0.3320
 9830W        W25964   8.199  17.453   1.932 -0.0419  0.3410 -0.0082
 9831W        W25965  11.637   3.723   1.538  0.0412 -0.1321  0.1369
 9832W        W25966  11.447   8.456  11.539  0.0252  0.0979 -0.0116
 9833W        W25967   3.807  11.474   4.141  0.1739 -0.1601  0.0242
 9834W        W25968   6.411   5.951  14.839 -0.0084 -0.0981 -0.0038
 9835W        W25969   1.614   7.357  12.667 -0.3325 -0.0492 -0.0981
 9836W        W25970   5.418   6.725   4.598 -0.0915  0.0942 -0.2877
 9837W        W25971   3.480   4.461   5.339  0.2149 -0.1330 -0.0725
 9838W        W25972  12.859  11.602  15.637  0.5838 -0.3775 -0.2181
 9839W        W25973  16.327   0.169   4.822  0.1642 -0.2094 -0.2673
 9840W        W25974  16.249   0.059   2.954 -0.0979 -0.1509  0.0731
 9841W        W25975   7.310  11.055  13.351 -0.0748  0.3681  0.2343
 9842W        W25976  14.735  12.744  11.888 -0.0841 -0.2692  0.1218
 9843W        W25977   5.288  14.685   2.559 -0.2322 -0.1102 -0.2663
 9844W        W25978   7.250   7.306   1.470 -0.4125 -0.2100  0.2812
 9845W        W25979   5.223  10.667  15.490 -0.1334 -0.1851  0.1288
 9846W        W25980  12.773  11.556  15.164  0.0395  0.2801  0.2158
 9847W        W25981   7.104   4.845  16.802 -0.2121  0.0878 -0.0603
 9848W        W25982   9.801  11.364  14.103  0.1200  0.0068 -0.1013
 9849W        W25983  14.892  16.265   1.528  0.1916 -0.1029  0.3517
 9850W        W25984  13.541  10.738   0.030 -0.2998  0.2132 -0.1687
 9851W        W25985   3.991  14.066   5.884 -0.1173  0.3410 -0.2198
 9852W        W25986  12.963   9.674  16.655 -0.0384  0.0828 -0.0237
 9853W        W25987   0.905   9.087  12.459  0.0070 -0.1853 -0.3522
 9854W        W25988   2.974   0.400  13.187  0.0991 -0.1509  0.1278
 9855W        W25989  13.341   7.253   5.529 -0.1881  0.1340  0.0737
 9856W        W25990   3.784   5.948  15.182  0.1213  0.0665 -0.1571
 9857W        W25991  16.963   3.983  14.114  0.0114 -0.0710  0.2153
 9858W        W25992  12.741   7.436  15.912 -0.2446  0.0679 -0.1036
 9859W        W25993   6.458   3.733  12.900  0.2010  0.1535 -0.0171
 9860W        W25994   0.128  15.853   1.480 -0.0047  0.0491 -0.1258
 9861W        W25995  14.459   8.770  12.799  0.3132 -0.0951 -0.2918
 9862W        W25996   8.099  16.419  15.585 -0.3432 -0.4343 -0.1468
 9863W        W25997   6.064   1.768   4.617 -0.1240  0.2796  0.4498
 9864W        W25998  16.806   4.024  16.601  0.0591  0.3109  0.1145
 9865W        W25999   4.651  17.479  13.753 -0.1369  0.0108  0.1650
 9866W        W26000   5.140  16.837  16.940  0.1366 -0.0577  0.0213
 9867W        W26001  15.570   1.090  13.802  0.1841 -0.0109 -0.0435
 9868W        W26002   5.744   5.383  13.047  0.0786  0.3227  0.0653
 9869W        W26003  10.669   4.576  13.124  0.1748  0.0126  0.2479
 9870W        W26004  11.462  11.348  15.541 -0.1425  0.1323  0.2389
 9871W        W26005  11.946   8.206   1.862 -0.2761  0.0835  0.1546
 9872W        W26006  11.715   2.966   5.534 -0.0069 -0.4630  0.3491
 9873W        W26007   1.516  15.373   3.890 -0.1051 -0.1353 -0.0600
 9874W        W26008   7.206  16.775   0.678  0.0279 -0.0230  0.2752
 9875W        W26009   7.802  12.181   3.993 -0.1546 -0.0533  0.0863
 9876W        W26010   8.696   1.966   4.983 -0.1958 -0.1034  0.3225
 9877W        W26011   3.497   1.772   0.821 -0.2047 -0.0581 -0.0491
 9878W        W26012   0.245  13.435  13.876  0.1673 -0.2589 -0.2976
 9879W        W26013   1.572   0.955   0.299 -0.1258 -0.0032  0.2079
 9880W        W26014  14.090   5.653   4.431  0.0813  0.2089 -0.2909
 9881W        W26015  16.873  12.864   5.888  0.2884 -0.1186  0.1144
 9882W        W26016   2.392   9.586  15.610  0.2972  0.0118 -0.0840
 9883W        W26017  14.069  11.382  13.757  0.1985 -0.0823 -0.2753
 9884W        W26018  17.153   6.927  12.979  0.2095  0.0395 -0.0745
 9885W        W26019   2.945   3.326  14.905  0.0713  0.0101  0.1466
 9886W        W26020  15.546  11.367   0.758  0.1055  0.0600  0.2459
 9887W        W26021  16.655   2.563   2.527  0.0666  0.1504 -0.4582
 9888W        W26022   5.649  12.108   1.606  0.0752  0.1941  0.2714
 9889W        W26023  14.832   4.310   2.292 -0.0838 -0.2122  0.1608
 9890W        W26024   0.954  14.882   0.139  0.0978  0.0370 -0.1472
 9891W        W26025  10.450  13.657   0.751 -0.0016  0.2977  0.2017
 9892W        W26026  16.384   3.121   3.309 -0.1349 -0.0149 -0.2537
 9893W        W26027   5.056  16.630   2.243  0.0337  0.1471  0.3839
 9894W        W26028   6.047  16.062  11.813  0.1676 -0.0771  0.0193
 9895W        W26029  12.505  17.533   2.528  0.1323  0.0600 -0.1139
 9896W        W26030  11.717   3.655   1.046  0.0546 -0.0053  0.1938
 9897W        W26031   7.749  15.614   5.831  0.4265  0.0089  0.1595
 9898W        W26032   9.874   5.153  16.588 -0.2151  0.1044  0.3631
 9899W        W26033  14.150  15.127   5.690  0.3605  0.1954 -0.3627
 9900W        W26034  14.083  16.370  17.093  0.2675  0.4766 -0.0922
 9901W        W26035  16.022   7.942  12.594  0.2474 -0.1072  0.0577
 9902W        W26036   6.146   4.245  12.362  0.0139 -0.1281 -0.0051
 9903W        W26037   8.368  11.457  15.700  0.2927  0.2765  0.0244
 9904W        W26038  11.377   1.571  16.613  0.1273  0.0044 -0.1898
 9905W        W26039  16.003   7.907   1.467 -0.0013 -0.2236  0.0016
 9906W        W26040  11.248   6.841   0.625  0.0862  0.0269  0.2318
 9907W        W26041   8.291  17.015   1.618 -0.0773 -0.1998  0.0609
 9908W        W26042   9.852   2.205   2.556  0.0582  0.0118 -0.2215
 9909W        W26043  15.890  10.405  11.292 -0.0732 -0.3164  0.0699
 9910W        W26044   0.631   6.560  15.837  0.3748  0.2225  0.1811
 9911W        W26045   6.572   0.502  12.114 -0.1834  0.1608 -0.0501
 9912W        W26046  16.274   0.161  12.291  0.1484 -0.1542 -0.1160
 9913W        W26047  16.836  15.477   4.135  0.2903 -0.0780 -0.2467
 9914W        W26048  12.836   4.080  12.376 -0.2464  0.0937 -0.0161
 9915W        W26049  15.369   2.592  11.878 -0.0005  0.2560  0.2686
 9916W        W26050  13.061   0.154   5.389 -0.0878  0.2477 -0.0849
 9917W        W26051  16.941   9.804  12.350 -0.3476 -0.0085  0.0221
 9918W        W26052  15.702   9.153  12.679  0.0957 -0.2418 -0.1864
 9919W        W26053  14.401  16.385  15.112  0.1041 -0.3498 -0.2646
 9920W        W26054   9.686  16.967  14.852  0.2162 -0.0836  0.0504
 9921W        W26055   8.155   5.194  14.500 -0.0089 -0.0436  0.2054
 9922W        W26056  11.571  16.294  12.788  0.2364 -0.2540  0.0592
 9923W        W26057  11.933  12.659  15.295 -0.0593  0.2895  0.0144
 9924W        W26058   5.763  17.123   1.423  0.1494  0.1445 -0.0449
 9925W        W26059  15.418  16.083  16.768  0.0419  0.3809  0.0810
 9926W        W26060   9.169   7.817   5.134 -0.1159 -0.2426  0.2517
 9927W        W26061   3.067  16.593   0.848  0.1143  0.0151 -0.1998
 9928W        W26062   8.321   6.030  16.035  0.0788 -0.3895  0.1018
 9929W        W26063  15.403  13.173   0.531  0.1385  0.0183  0.1822
 9930W        W26064  16.086   6.708   1.646  0.1770 -0.0265  0.0760
 9931W        W26065  17.252   1.122  12.025  0.1465 -0.0700 -0.0828
 9932W        W26066  14.049   1.252   1.503 -0.0779 -0.1036 -0.3956
 9933W        W26067  15.492   9.914  12.157 -0.1619  0.1890  0.0457
 9934W        W26068   4.356  12.753  12.497 -0.2113 -0.0246  0.0298
 9935W        W26069  13.312   8.666   3.023 -0.2062 -0.1278 -0.1700
 9936W        W26070  13.080  11.439   2.701 -0.1063 -0.0086 -0.2612
 9937W        W26071   8.656   9.332   0.365  0.1452  0.1423  0.2243
 9938W        W26072  14.272  17.638  14.032  0.1761 -0.0860  0.2646
 9939W        W26073  16.379   4.668   5.391 -0.2904  0.2554 -0.1228
 9940W        W26074  11.367   5.397   4.159 -0.1045  0.0235 -0.1963
 9941W        W26075  14.588  11.463   0.362 -0.1822 -0.0486  0.0027
 9942W        W26076   7.949   7.707   3.965  0.2733 -0.2541  0.0224
 9943W        W26077   7.223   4.733  12.127  0.1193 -0.1443  0.2097
 9944W        W26078  12.870  17.472  12.883  0.2589 -0.0704  0.1589
 9945W        W26079  12.837   9.258  13.861 -0.1768 -0.2335  0.1360
 9946W        W26080   1.753   5.233   2.555  0.1890 -0.0906 -0.1104
 9947W        W26081   0.957   0.249  16.225  0.0660 -0.0237  0.0575
 9948W        W26082   1.534   0.568   3.980 -0.1594 -0.0666 -0.2889
 9949W        W26083  16.300   2.855  15.397 -0.1189  0.0404 -0.2606
 9950W        W26084   0.299   6.895  14.039 -0.3729  0.0262 -0.0327
 9951W        W26085   5.623  14.518   4.069  0.1692 -0.1164  0.0352
 9952W        W26086   2.180   5.909   4.258  0.1633  0.0677 -0.0380
 9953W        W26087   4.179   3.294  14.496 -0.1334 -0.1871 -0.1163
 9954W        W26088  15.449   7.622   1.152  0.3430  0.1140 -0.1329
 9955W        W26089   3.418  14.959  13.321  0.2969 -0.3033  0.2103
 9956W        W26090  15.792   3.493   1.587 -0.0908  0.1089 -0.1830
 9957W        W26091   3.696   1.058  12.845 -0.0474  0.1243 -0.1501
 9958W        W26092   8.756   7.831  14.116  0.0286  0.0567 -0.2304
 9959W        W26093   6.489   9.968   5.565 -0.0608  0.0891 -0.1759
 9960W        W26094   3.470   5.082   2.880  0.3513 -0.0110  0.1108
 9961W        W26095  17.320   1.482  12.423 -0.2609  0.1102 -0.1370
 9962W        W26096   2.127   0.206   3.502  0.2306  0.0156  0.0566
 9963W        W26097   5.636   5.122  16.793  0.0844  0.1140 -0.1819
 9964W        W26098   7.342   0.590   6.243  0.0586  0.2223 -0.1456
 9965W        W26099  11.717   4.003  15.980  0.2255  0.1635 -0.0299
 9966W        W26100  12.093   2.798  14.979  0.2612  0.1238 -0.3116
 9967W        W26101  13.885  12.298   6.030  0.1785  0.0291  0.0924
 9968W        W26102  10.235   2.534   2.652 -0.1925 -0.0420 -0.1326
 9969W        W26103   4.528   5.624   0.017  0.1318  0.0953 -0.0784
 9970W        W26104  10.909   3.307   1.617  0.1510 -0.1323  0.1835
 9971W        W26105   4.249  15.795   4.971  0.3115 -0.2975 -0.1009
 9972W        W26106  16.461  16.578  12.754 -0.2625 -0.0213  0.2394
 9973W        W26107   2.860   2.904  12.891 -0.1189  0.3092 -0.1099
 9974W        W26108   1.957   1.776  10.877  0.0471 -0.3300 -0.1512
 9975W        W26109   8.963   8.960   3.371 -0.1699  0.0159 -0.0610
 9976W        W26110   1.726   8.916   0.256  0.1344 -0.0750  0.0764
 9977W        W26111  11.492   4.123  11.664  0.2520 -0.1169 -0.0169
 9978W        W26112  11.950  13.754   4.368 -0.1724 -0.1882 -0.1841
 9979W        W26113  13.062  15.263  12.672  0.1357 -0.1612  0.0748
 9980W        W26114  11.091  14.944   1.348 -0.0939  0.0120 -0.1015
 9981W        W26115   4.741  11.253  15.820 -0.0624  0.0232 -0.2540
 9982W        W26116   2.883  17.151  13.220 -0.2745 -0.1158  0.0794
 9983W        W26117   2.291   8.503  12.359  0.2247 -0.0540  0.0939
 9984W        W26118   3.062  11.031   3.924 -0.0414 -0.1409 -0.1715
 9985W        W26119  11.302   8.051  14.197 -0.0204  0.0482 -0.2897
 9986W        W26120   3.074   7.290  14.826 -0.0132  0.0370 -0.1962
 9987W        W26121   3.416   0.909   1.857 -0.1563 -0.0935 -0.1639
 9988W        W26122  16.501   6.817   1.925  0.1639 -0.0528 -0.2658
 9989W        W26123   0.404  15.150   4.383  0.3030  0.2165 -0.0892
 9990W        W26124  10.870  13.583  15.455 -0.1860  0.1565 -0.0480
 9991W        W26125   3.779  10.081   3.296  0.3010 -0.0235  0.1098
 9992W        W26126   9.534   0.433   3.685  0.3389 -0.2596  0.0946
 9993W        W26127  16.335  15.245  14.208 -0.0431 -0.0653 -0.0160
 9994W        W26128   8.138   3.799   1.738  0.0855  0.1200  0.0988
 9995W        W26129   5.634   3.528  11.855  0.0647  0.1769  0.0454
 9996W        W26130   1.622  14.372   4.405  0.2692 -0.1886 -0.2696
 9997W        W26131   7.049   8.932  12.278 -0.2307 -0.2908  0.0019
 9998W        W26132   1.701  11.119  16.764  0.0533  0.3069 -0.2152
 9999W        W26133   2.694  13.525  15.737 -0.0043 -0.3003 -0.1097
10000W        W26134   6.301   4.085   5.295  0.1025 -0.2131 -0.2098
10001W        W26135  14.457  10.965  16.332 -0.0583 -0.2975  0.0905
10002W        W26136  11.741  13.253   5.025  0.0176 -0.0689 -0.0479
10003W        W26137   5.508   2.754  16.120 -0.0084 -0.1189 -0.0401
10004W        W26138   4.051   3.431   3.367 -0.0157  0.1404 -0.2465
10005W        W26139   1.801  13.114   3.894  0.2572  0.3024  0.2212
10006W        W26140   3.440   9.510   1.007  0.0484  0.1665 -0.0493
10007W        W26141   1.399   9.184  17.159  0.3100  0.0483 -0.1586
10008W        W26142   4.804  12.672   0.534 -0.3449 -0.4956 -0.2078
10009W        W26143   8.685  13.682  15.790  0.2418  0.1879  0.1084
10010W        W26144  17.114   2.414  13.666 -0.0498  0.1719  0.1286
10011W        W26145   7.982   5.410   3.474  0.0224  0.0614  0.0015
10012W        W26146  16.048  15.796   2.975 -0.1717  0.1318  0.1038
10013W        W26147   7.988  11.350   0.948  0.1295 -0.0432  0.0499
10014W        W26148   9.697  12.886   0.508  0.1743 -0.4526  0.1508
10015W        W26149  13.512   3.038   4.040  0.0676  0.1032  0.1364
10016W        W26150  10.946   6.366  12.693  0.1525  0.0876  0.1785
10017W        W26151   8.033  14.443  12.192 -0.2638 -0.2349 -0.0013
10018W        W26152   1.176  10.424   0.436 -0.1600 -0.0475 -0.0504
10019W        W26153   9.385   1.330  16.527  0.0036 -0.0399 -0.1978
10020W        W26154   4.349   9.446  14.414 -0.3485 -0.1390  0.2032
10021W        W26155  16.468  11.819   3.692 -0.0608  0.4052 -0.1787
10022W        W26156   5.807   3.128   3.665  0.2599  0.3272  0.2282
10023W        W26157  13.681  16.668   4.888 -0.0786  0.0668  0.0929
10024W        W26158  14.431   5.234   4.417 -0.0145 -0.1987 -0.4746
10025W        W26159  17.225  10.800   5.706 -0.2163  0.1700 -0.0615
10026W        W26160   7.129   9.049   4.974 -0.0164  0.0675  0.1620
10027W        W26161  12.597   7.101   1.321  0.1524  0.0880 -0.2511
10028W        W26162  15.255   9.045   5.309  0.1673 -0.1432 -0.0786
10029W        W26163   2.578   4.384  16.772  0.0056  0.1518  0.0737
10030W        W26164   3.919   3.877  15.302 -0.0078 -0.0744 -0.0560
10031W        W26165   7.129  13.186   2.723  0.2272 -0.3641  0.2358
10032W        W26166  11.613   3.529  11.738  0.0614 -0.1208 -0.1622
10033W        W26167   3.901   1.864  13.003 -0.1597 -0.0911  0.0606
10034W        W26168  11.006  10.370  11.882  0.1175  0.1758 -0.1111
10035W        W26169   2.684   6.878  13.495 -0.2215 -0.0760  0.1709
10036W        W26170   6.450   8.970  11.363 -0.0205  0.0989  0.1470
10037W        W26171   1.128   1.115   3.827  0.1857 -0.1736  0.0236
10038W        W26172   8.390   3.241   1.630  0.0582  0.0998  0.1180
10039W        W26173  15.890  16.411   1.726 -0.0193  0.1830  0.1672
10040W        W26174   5.464  12.218   1.135  0.2223 -0.1162 -0.1581
10041W        W26175  11.255   6.156   1.994 -0.1430 -0.0404  0.0720
10042W        W26176  13.196   4.437   1.480  0.0153 -0.2248  0.0498
10043W        W26177  11.429  13.753   2.147 -0.1192  0.0431  0.1631
10044W        W26178  11.486  10.944  14.992 -0.1114  0.0111 -0.3675
10045W        W26179  14.688  15.048   4.542 -0.0442 -0.0289 -0.1664
10046W        W26180   4.928   7.704  14.671  0.0238  0.2591  0.0938
10047W        W26181   7.126   0.252  14.348  0.1970 -0.0299  0.0455
10048W        W26182  16.378   9.908  12.018 -0.4535 -0.0740  0.0705
10049W        W26183   5.005   6.263   2.818 -0.2572  0.0356 -0.2232
10050W        W26184   8.579  14.415   0.648 -0.2374 -0.0757 -0.2282
10051W        W26185  11.710  12.540   4.507  0.4153 -0.0635 -0.2023
10052W        W26186  17.328   1.726  16.007 -0.0726 -0.0730  0.1728
10053W        W26187   4.096  11.491   5.408  0.3293 -0.0802 -0.1796
10054W        W26188   7.253  13.520   1.532 -0.2190  0.0419  0.1643
10055W        W26189   9.479   1.994  12.187 -0.0687 -0.1165  0.0385
10056W        W26190   3.635   3.980  13.890  0.2816 -0.3513 -0.0269
10057W        W26191   0.659   2.934  14.563  0.0118  0.0860  0.1947
10058W        W26192   0.837   5.268  11.602  0.0402 -0.0546  0.1431
10059W        W26193   4.787  16.295   1.937  0.1200 -0.0857 -0.3491
10060W        W26194  11.384  16.835  12.369 -0.1566 -0.0049 -0.0678
10061W        W26195   3.399  11.539   0.171  0.0979 -0.2034  0.1930
10062W        W26196  11.367   3.233   5.720 -0.0758  0.0642 -0.1569
10063W        W26197   1.366   5.015  12.092  0.2433  0.3489 -0.1084
10064W        W26198   4.383  14.662   0.073  0.0614 -0.2313  0.0634
10065W        W26199   2.147   9.773   0.223  0.1523  0.1394 -0.3704
10066W        W26200   2.927  16.379  13.651 -0.0442 -0.0209  0.1543
10067W        W26201  13.845  11.959  14.616 -0.2697  0.2722  0.0988
10068W        W26202  16.986  14.888   2.289  0.1254 -0.0344 -0.0353
10069W        W26203   1.761  10.077  12.309 -0.1164  0.3633 -0.1004
10070W        W26204  17.619  15.205  16.454  0.1952 -0.0564  0.0370
10071W        W26205   6.795   0.001   4.022  0.0449  0.0049 -0.1069
10072W        W26206  15.568   4.860   2.204  0.0472 -0.1011  0.3399
10073W        W26207  14.636  13.939   1.507 -0.0054 -0.2005 -0.0663
10074W        W26208  12.758   9.770   1.174 -0.2259  0.3371  0.2685
10075W        W26209   6.890   9.971   6.382  0.1485  0.0487  0.0099
10076W        W26210   3.552   6.570  14.025  0.2490 -0.1476 -0.2198
10077W        W26211   7.786  15.766  16.501 -0.1903  0.1233 -0.0303
10078W        W26212   0.643  10.731  15.611 -0.3723 -0.0350  0.0897
10079W        W26213  10.296   9.109  14.459  0.3286  0.1922  0.2705
10080W        W26214   6.385  13.631   5.097  0.0831 -0.1026 -0.1282
10081W        W26215   5.201   6.004  15.413 -0.0422  0.0281 -0.0171
10082W        W26216   8.539   5.648   2.134 -0.0261  0.2363  0.1878
10083W        W26217   5.585  10.511   3.234  0.2999  0.3136  0.2149
10084W        W26218   0.274  10.839  14.772 -0.2479 -0.1864 -0.3306
10085W        W26219   7.834  11.813   2.843 -0.1346 -0.5045 -0.0363
10086W        W26220   6.446   0.264  13.766  0.1244 -0.4492  0.0719
10087W        W26221   2.389   4.686   4.117 -0.0661  0.0808  0.0355
10088W        W26222  17.573   0.176  14.360 -0.3210 -0.1415 -0.1124
10089W        W26223  10.082   1.116  17.008  0.0114 -0.0057 -0.0475
10090W        W26224  13.461   2.743  14.749 -0.0946  0.0436 -0.0601
10091W        W26225   1.675   4.912  11.539  0.0632 -0.5178  0.1156
10092W        W26226  10.756   2.190   0.512 -0.0872  0.0083  0.1499
10093W        W26227   1.666   9.649  12.701  0.1911 -0.0543  0.2493
10094W        W26228  13.218   8.207   3.663  0.0045  0.3259  0.2792
10095W        W26229  17.388   8.237   4.646  0.2088 -0.4015  0.1082
10096W        W26230   9.469  16.476  14.811 -0.1130  0.1144  0.0730
10097W        W26231  15.554  12.695   2.199 -0.0297 -0.0113 -0.0967
10098W        W26232  12.977   3.924   4.172  0.0504 -0.2641  0.0139
10099W        W26233  14.490  12.567  12.783  0.0748  0.2730 -0.2213
10100W        W26234   4.512  13.530   0.732 -0.1255 -0.0173 -0.0917
10101W        W26235  12.953   6.047   4.703  0.0550  0.1757  0.1171
10102W        W26236  17.588   7.044  13.101 -0.1389  0.1776  0.3551
10103W        W26237  17.508  13.807   0.200  0.1289 -0.0802 -0.1772
10104W        W26238   1.697   1.071  16.000  0.1604 -0.0706 -0.0498
10105W        W26239   9.525   5.976   2.985 -0.1920 -0.2146 -0.0116
10106W        W26240  14.329   8.932   4.310  0.2581 -0.0638 -0.0236
10107W        W26241   3.003   5.468  14.415 -0.0463  0.0353 -0.2182
10108W        W26242   3.159  12.803  11.945  0.1515 -0.0150  0.1797
10109W        W26243  10.919   6.272   2.440 -0.2966  0.1230  0.1804
10110W        W26244   1.398  14.622  15.868 -0.0989  0.1057 -0.1957
10111W        W26245   8.397   1.345   0.205 -0.0492  0.0259 -0.0656
10112W        W26246   0.631   9.253  14.577 -0.1028 -0.0595  0.2212
10113W        W26247  11.062   3.622   0.764 -0.1374 -0.0317  0.1230
10114W        W26248   1.068  17.539  16.871 -0.2241  0.2016  0.0560
10115W        W26249  15.432   9.122  13.159  0.2956  0.1816  0.0815
10116W        W26250   0.782   1.245   1.203 -0.0333  0.1537  0.2008
10117W        W26251   0.559   9.319   3.004 -0.4068  0.1175  0.2268
10118W        W26252  12.776   9.782  15.487 -0.0706  0.3911 -0.0327
10119W        W26253   8.758  15.728  12.489 -0.0470 -0.2589  0.0759
10120W        W26254   7.458   2.301  16.601 -0.1595  0.2132 -0.0433
10121W        W26255   8.512   0.132  14.461 -0.0849  0.0872 -0.2117
10122W        W26256   8.071   8.225   1.334 -0.0556  0.2677  0.0448
10123W        W26257  15.490   1.346  15.657  0.1892  0.0773 -0.0433
10124W        W26258  16.279   4.462  12.213 -0.3376 -0.0230 -0.0571
10125W        W26259  12.341  10.816   1.438  0.2957  0.0792 -0.0466
10126W        W26260   0.536  13.505   3.032  0.2376  0.0757  0.0774
10127W        W26261   5.835  13.962  12.246  0.0057 -0.3201  0.1189
10128W        W26262   0.964   1.506  16.844  0.1498 -0.1371 -0.2686
10129W        W26263  14.470   3.328   3.215 -0.1784  0.0092 -0.0168
10130W        W26264   2.970   5.513  12.697 -0.3505  0.0459 -0.1962
10131W        W26265   4.687  13.073   2.327  0.2621 -0.3398 -0.1756
10132W        W26266  16.406  12.477  12.943  0.1505  0.1095 -0.0175
10133W        W26267   3.285   9.793  13.817  0.1583  0.1243 -0.0025
10134W        W26268  11.298   1.121   1.703 -0.1427 -0.2938  0.2358
10135W        W26269  12.443   7.890  16.024 -0.1830  0.0800 -0.4290
10136W        W26270  17.535   0.387   2.978  0.0781 -0.0476  0.0263
10137W        W26271  13.627  13.589   4.781 -0.0104 -0.3133 -0.2839
10138W        W26272   3.974   9.952   2.803 -0.0281  0.1651  0.2074
10139W        W26273   8.594  10.761   0.031  0.0695  0.0127  0.0926
10140W        W26274   6.198   9.425   0.122 -0.0119  0.1614 -0.1644
10141W        W26275   7.378   9.787   4.577  0.2232 -0.2915  0.0427
10142W        W26276   2.716   5.155   6.149  0.0201 -0.2445  0.2037
10143W        W26277   2.686  14.654   2.552  0.0686  0.0787 -0.1044
10144W        W26278  14.351  11.507  15.782  0.3917 -0.1627  0.1994
10145W        W26279  17.023   9.575   1.807  0.1265  0.0108 -0.1114
10146W        W26280  13.940   6.027  14.495  0.0152 -0.4174  0.1798
10147W        W26281  11.038  15.341  16.798 -0.1468 -0.0395 -0.1206
10148W        W26282  12.308   3.219  14.812  0.0486 -0.0189  0.2549
10149W        W26283   6.051  10.520  15.709 -0.1791  0.1241 -0.2293
10150W        W26284  13.337   2.631  11.972  0.2138  0.2150 -0.3574
10151W        W26285  16.834   7.211   1.763 -0.0189  0.0368  0.0664
10152W        W26286   9.869   5.921  14.577 -0.0739 -0.0469  0.1331
10153W        W26287   9.872  15.459   4.296  0.0748 -0.0028 -0.0584
10154W        W26288  11.654   1.532  13.351  0.1164 -0.0558  0.1067
10155W        W26289   1.188   7.016  13.581  0.0129 -0.1134  0.0403
10156W        W26290   3.395   0.525   4.458 -0.1177 -0.2801  0.0642
10157W        W26291  12.644  16.068   2.101  0.3271 -0.2557 -0.2177
10158W        W26292   0.846  16.690   5.485 -0.2069  0.0852  0.3830
10159W        W26293  14.262   5.887  17.103 -0.0417 -0.0222  0.1374
10160W        W26294   8.466   7.807  13.686 -0.0121 -0.1246  0.2066
10161W        W26295   1.019   6.181   5.040  0.1022 -0.2436  0.2922
10162W        W26296   3.540   5.440   5.819 -0.2667  0.0943 -0.2850
10163W        W26297   6.096   2.675   3.723  0.1075  0.2924  0.3163
10164W        W26298   6.556   4.430  15.088  0.1081 -0.6929 -0.1265
10165W        W26299   5.177   5.552   5.257 -0.0848  0.1222  0.0162
10166W        W26300  13.310  13.423   3.264 -0.2153 -0.0278  0.0728
10167W        W26301   7.810  10.675   5.247 -0.1242  0.2002 -0.0317
10168W        W26302   4.480   8.741  11.710  0.4176  0.2959 -0.0429
10169W        W26303  11.563   8.866  14.683  0.0321  0.0261 -0.0031
10170W        W26304  15.067  14.730   4.631 -0.2605  0.1153  0.0661
10171W        W26305   6.280   1.242   4.755 -0.2462  0.2035 -0.0169
10172W        W26306   4.727  12.102  11.667  0.2745 -0.2154 -0.0658
10173W        W26307   9.988  12.671   2.621 -0.1405  0.0118 -0.0688
10174W        W26308  14.396   6.055   2.739  0.2611  0.1942  0.0310
10175W        W26309   7.439   1.172   0.285  0.0236  0.1877 -0.3486
10176W        W26310   6.023  15.287  13.467 -0.2951  0.0306  0.1839
10177W        W26311  13.389  13.254  13.398  0.1605 -0.1191  0.0699
10178W        W26312  10.947   7.633   2.028  0.0259 -0.2428  0.0933
10179W        W26313  12.133  14.150   3.544 -0.4346 -0.0303  0.0134
10180W        W26314   9.529   3.132   1.293  0.1473  0.1546 -0.1452
10181W        W26315   9.165  12.374  12.612  0.1667  0.0876  0.1594
10182W        W26316   4.976   1.388   4.374 -0.3395 -0.3378 -0.1710
10183W        W26317   4.849  14.699   4.342  0.0252 -0.1153  0.1534
10184W        W26318   5.397   9.374  12.438  0.0178  0.1040  0.2474
10185W        W26319   5.782   1.912  15.653 -0.0092 -0.0263 -0.1411
10186W        W26320   5.696   6.822  15.372 -0.3213  0.0774  0.1794
10187W        W26321   6.770  14.911  12.129 -0.1205  0.2057  0.1026
10188W        W26322   3.116  12.592   1.388 -0.2424  0.2515  0.1598
10189W        W26323  15.722  11.061   1.194  0.2055 -0.0097 -0.0278
10190W        W26324  15.940   3.023  12.894  0.1490 -0.2052  0.0168
10191W        W26325  12.221   7.737   2.228  0.1409  0.0614 -0.1019
10192W        W26326  11.123  12.329   4.813  0.0525  0.1981 -0.0173
10193W        W26327   3.015   7.979  15.936 -0.2436 -0.3139  0.1703
10194W        W26328  15.111   6.768  13.997  0.0247 -0.2545  0.1537
10195W        W26329   3.018  13.295  14.930  0.0444  0.0521 -0.2335
10196W        W26330  15.822  15.401  16.552 -0.0052  0.1892  0.1521
10197W        W26331   2.063  16.602  15.980  0.2156  0.0940 -0.2949
10198W        W26332   8.479   2.596   5.237  0.0819  0.0064  0.0246
10199W        W26333  12.143   2.620   2.205  0.3363 -0.0930 -0.1218
10200W        W26334   1.851   5.595  15.727 -0.0142 -0.3470 -0.2284
10201W        W26335   3.178   7.509  12.220 -0.2595  0.2338 -0.0018
10202W        W26336   5.601  14.067   5.017  0.1494 -0.1697 -0.0457
10203W        W26337   1.879   0.178   0.717 -0.2914 -0.1376  0.1385
10204W        W26338   7.216   8.685   2.602 -0.0901 -0.0883  0.1620
10205W        W26339  12.465   1.377   4.396 -0.3562 -0.0416  0.0446
10206W        W26340  16.494   0.759   5.680  0.2605  0.1379  0.3471
10207W        W26341   9.436  15.678  13.833  0.0466  0.2993  0.0086
10208W        W26342  14.618  17.400  13.024 -0.1705  0.0647 -0.0792
10209W        W26343   9.201  16.894   3.923 -0.0845 -0.2176 -0.1795
10210W        W26344  10.680   8.913   0.850 -0.1884 -0.3127 -0.2196
10211W        W26345   8.288   1.741  17.112  0.2074  0.0013  0.1356
10212W        W26346  13.854   2.816   0.423 -0.0351  0.0553 -0.1284
10213W        W26347  14.256   4.304   2.926  0.2824  0.0109  0.0830
10214W        W26348   7.472   6.614  11.902 -0.1323  0.1193  0.1383
10215W        W26349   7.326   5.277  12.288 -0.0020 -0.1634  0.0535
10216W        W26350  14.936   0.976  12.850 -0.1312 -0.0367  0.2756
10217W        W26351  17.271   3.381   0.701 -0.0337 -0.1174 -0.0351
10218W        W26352   4.675   3.000   1.970 -0.1969  0.0165 -0.1389
10219W        W26353   1.603   9.196   5.365  0.0187  0.5200 -0.0458
10220W        W26354   4.733  15.382  12.048 -0.1738 -0.1870 -0.0006
10221W        W26355   8.534  17.469  12.307 -0.1193 -0.0596  0.0988
10222W        W26356   7.663   0.006  13.560  0.1643  0.0339  0.2065
10223W        W26357   0.710   7.603   1.299 -0.0133  0.0417 -0.0291
10224W        W26358   8.490  11.181  15.303  0.0561 -0.1524 -0.1102
10225W        W26359   2.091   1.504  15.832 -0.1346  0.1830  0.0177
10226W        W26360   7.170   6.301  16.987 -0.1181 -0.1674  0.1666
10227W        W26361   9.187  10.529  16.556 -0.1512  0.2673 -0.1163
10228W        W26362   9.969   3.183  11.661  0.4902  0.0855 -0.0440
10229W        W26363   6.894  14.810   2.723  0.2262 -0.1106  0.1549
10230W        W26364   6.551   8.242  16.012 -0.2961  0.1982  0.0712
10231W        W26365   4.784   9.902   1.420  0.0378  0.1584 -0.0169
10232W        W26366   1.739   1.828   0.510 -0.1745 -0.1399  0.1862
10233W        W26367   0.777   6.502   1.718 -0.6366  0.3475  0.2436
10234W        W26368  13.061   6.285   5.508  0.2061 -0.1306 -0.3219
10235W        W26369   3.499  11.710  11.771  0.0328 -0.1881  0.0783
10236W        W26370  17.404  14.267   0.862  0.2562 -0.0090 -0.0997
10237W        W26371  13.124  11.970  15.093 -0.0577 -0.0838 -0.0825
10238W        W26372  15.764  14.009  15.596  0.0819  0.5653 -0.2147
10239W        W26373   1.149  13.783  14.998 -0.1686  0.0398 -0.0410
10240W        W26374   7.849  15.219   1.486  0.0354 -0.0479  0.0607
10241W        W26375   7.846  15.041   3.124  0.2727  0.0119  0.0893
10242W        W26376  10.354   9.260   1.070 -0.1666  0.1738 -0.2365
10243W        W26377   8.567  16.837   2.085  0.1335  0.2869 -0.1745
10244W        W26378   1.124  16.049  16.553 -0.1512 -0.0076  0.0495
10245W        W26379   9.346  11.161  16.395 -0.1226  0.0744 -0.0032
10246W        W26380  12.664  16.382  15.704 -0.0632  0.0588  0.0834
10247W        W26381   7.157  10.307   0.723 -0.0018 -0.0802 -0.0082
10248W        W26382  11.335  14.677   4.412  0.0059 -0.2299  0.1249
10249W        W26383  14.049   1.599   1.163  0.1932  0.0095 -0.1115
10250W        W26384   3.556   0.897  15.658 -0.0476  0.3835 -0.2018
10251W        W26385  15.634   4.641  14.227  0.2032  0.0175  0.0685
10252W        W26386  12.467  14.794   2.288  0.1786 -0.0319 -0.0199
10253W        W26387  11.668  15.786   4.580  0.2161  0.1487 -0.2099
10254W        W26388   6.120  10.344   5.590  0.1287 -0.0504  0.2068
10255W        W26389   2.267   2.564   4.908 -0.1348  0.1823  0.0816
10256W        W26390   9.031  12.806   5.796 -0.1600  0.1344 -0.0464
10257W        W26391   9.256  17.614   4.594 -0.1170  0.1808  0.1356
10258W        W26392  11.442   8.393   3.703 -0.1794  0.1085  0.1689
10259W        W26393   9.183  11.709   5.411  0.2400 -0.0846 -0.0102
10260W        W26394   2.320  14.047  12.010  0.0107  0.0110  0.0851
10261W        W26395   5.195  12.127  15.525  0.3504 -0.1280  0.2351
10262W        W26396   5.298   8.740   2.939 -0.0295 -0.1295 -0.0443
10263W        W26397   0.727  11.421  14.244 -0.0264 -0.0026  0.0820
10264W        W26398   3.186  10.231  13.964 -0.2544  0.0565  0.2811
10265W        W26399  11.535  11.796   4.032  0.0066 -0.0729  0.1211
10266W        W26400   5.701  13.785  11.765  0.2609  0.0429  0.0495
10267W        W26401  10.371  17.187  15.379 -0.0098 -0.0611  0.1648
10268W        W26402   8.912   2.559  12.003 -0.0988  0.0517 -0.1543
10269W        W26403  15.927   7.023   2.571 -0.0659  0.1658  0.1321
10270W        W26404  13.534  11.574  16.078  0.0182  0.1355  0.1487
10271W        W26405   9.952  11.441   0.527 -0.0289  0.0647 -0.2431
10272W        W26406  11.237   1.084   0.165 -0.1834 -0.1092  0.2756
10273W        W26407  15.621   3.540  12.731  0.2822  0.0216 -0.2812
10274W        W26408  11.655  13.540   1.286 -0.1673 -0.1037  0.0116
10275W        W26409   4.452   7.495   2.239  0.2459  0.0256  0.1985
10276W        W26410  12.220   8.326   0.370 -0.1105 -0.1533  0.0413
10277W        W26411   8.005   4.142  11.934  0.1046  0.1963 -0.6013
10278W        W26412   6.125  17.048   2.330  0.1233  0.0233  0.2499
10279W        W26413   2.752   6.779   0.683  0.0150  0.0479  0.0325
10280W        W26414  11.792   9.955  15.465  0.0452  0.2936  0.0862
10281W        W26415   7.786   3.405  16.969  0.0800  0.1181  0.1297
10282W        W26416   1.374   2.238   4.790 -0.0731 -0.2005  0.2951
10283W        W26417   0.237  12.692  15.112 -0.1292  0.0257 -0.2370
10284W        W26418   8.615  16.274  13.256 -0.2287  0.3095 -0.2978
10285W        W26419  12.586   3.974  14.366 -0.0921 -0.1191  0.0254
10286W        W26420   7.321   8.069   3.178 -0.2782 -0.0599 -0.0199
10287W        W26421   1.004  16.100   6.997  0.4766  0.1436  0.1123
10288W        W26422   4.234  13.537   0.255  0.2043  0.1817 -0.0930
10289W        W26423   3.721   2.399   5.851  0.0716 -0.0244  0.1016
10290W        W26424   8.935  12.514  16.423 -0.0589  0.0932  0.2989
10291W        W26425   5.739  13.171   0.573  0.2542 -0.1273 -0.1623
10292W        W26426   0.173   1.507   6.243  0.4973 -0.3112 -0.0021
10293W        W26427   4.296   4.549  16.518  0.2098 -0.1720  0.1211
10294W        W26428   7.144   2.301   2.385 -0.0502  0.2140 -0.0390
10295W        W26429   7.680  16.904   5.581 -0.2502 -0.0542 -0.1519
10296W        W26430   9.469   8.559   4.966  0.1931 -0.1251 -0.2006
10297W        W26431   1.732  17.504   3.604 -0.1709  0.1800  0.1230
10298W        W26432   9.747   4.658  13.882 -0.4068 -0.0249 -0.0248
10299W        W26433   1.179   9.865  12.542 -0.0039 -0.0033 -0.0605
10300W        W26434   7.104   4.279  15.110  0.0115 -0.0658  0.0442
10301W        W26435  11.546   1.953   5.098 -0.0896  0.2034 -0.0185
10302W        W26436  17.529  15.175  14.451 -0.1050  0.0963  0.0332
10303W        W26437   3.630  11.156  12.393  0.3569 -0.2842  0.2713
10304W        W26438   4.540  15.402   1.980 -0.1419 -0.0114 -0.1419
10305W        W26439  17.191   3.445  13.489  0.0427  0.1394  0.2133
10306W        W26440   0.829   5.377   5.144 -0.3003 -0.2255  0.1319
10307W        W26441   6.206   2.288   0.402 -0.1610 -0.1467  0.1637
10308W        W26442  12.598  15.182  15.813  0.2991  0.0368  0.1082
10309W        W26443   2.149  14.338  16.746 -0.3315  0.0538 -0.2541
10310W        W26444   4.961   4.429  16.963  0.4377  0.0538  0.3016
10311W        W26445   1.551  16.322   5.863 -0.0934  0.3680  0.0966
10312W        W26446  16.750  13.167  13.403 -0.0022  0.2094  0.0673
10313W        W26447   7.329   2.727   0.342  0.0850  0.0837  0.0789
10314W        W26448  16.080   3.488  13.722 -0.0229 -0.1272  0.0329
10315W        W26449   8.917   3.561  17.083 -0.0095 -0.1480 -0.0984
10316W        W26450  10.936  10.279   0.992 -0.2336  0.0094 -0.1816
10317W        W26451  11.457  10.228   2.918  0.0170 -0.0382 -0.1102
10318W        W26452   8.011  10.873   0.786  0.1128  0.2084  0.0168
10319W        W26453  13.403  15.338  15.237  0.4628  0.1497  0.0777
10320W        W26454   9.223   5.153  11.477  0.1407 -0.0496  0.0672
10321W        W26455  15.766   2.976   5.069 -0.2478 -0.0982  0.0897
10322W        W26456   4.449   9.570  16.697  0.0542  0.0127  0.1019
10323W        W26457  14.253  13.605   2.415  0.2319  0.2835  0.0285
10324W        W26458   5.973   1.108  12.636  0.1175  0.1802 -0.0483
10325W        W26459  12.938   4.007  15.812 -0.1259  0.3516 -0.0400
10326W        W26460  17.412   9.467   1.055  0.1328  0.1219  0.0683
10327W        W26461   1.710   2.779  12.107 -0.3903 -0.0615  0.1033
10328W        W26462   1.073   6.274   0.103  0.2231  0.0433  0.3893
10329W        W26463   7.581  17.144   1.308 -0.2625  0.2654 -0.1514
10330W        W26464   4.887   1.600  15.893 -0.0756  0.1489 -0.2395
10331W        W26465  12.165   7.651  15.246  0.0798  0.2560 -0.1649
10332W        W26466   1.037   6.601   5.644 -0.0666 -0.2624  0.0071
10333W        W26467  10.391  11.450   5.314  0.3394  0.1559  0.0083
10334W        W26468  13.285   7.822   1.927  0.1037  0.2112 -0.0479
10335W        W26469   6.764  13.249  13.376 -0.3876 -0.1457  0.0729
10336W        W26470  17.613   9.833  11.059  0.0846  0.2368  0.1321
10337W        W26471  13.979   8.727  16.848  0.0749 -0.1235  0.1669
10338W        W26472  15.653   1.400   1.390  0.3834  0.0631 -0.1690
10339W        W26473   1.649   3.428   4.002  0.0201  0.0514 -0.0684
10340W        W26474  13.328   6.067   0.061  0.0285 -0.2468  0.2141
10341W        W26475   8.912   4.778  12.228 -0.0258 -0.0007 -0.2127
10342W        W26476  16.367  17.038   3.019 -0.0902 -0.0203 -0.3136
10343W        W26477  12.051  12.390   2.514 -0.1862  0.0605 -0.1458
10344W        W26478   6.512  16.397   5.683  0.0588  0.0530 -0.1274
10345W        W26479  16.198   8.033  11.648  0.2742 -0.2115 -0.1840
10346W        W26480   7.503   4.952   5.029  0.1577  0.0897  0.0267
10347W        W26481   3.873   6.780  13.449 -0.2009 -0.2055 -0.1379
10348W        W26482   1.314   4.482   4.127  0.2125  0.0995 -0.1075
10349W        W26483   4.690   0.447   3.888 -0.1578 -0.1559  0.1338
10350W        W26484  10.165  13.134   0.467 -0.2200  0.0577  0.0747
10351W        W26485  10.291  14.209  14.901  0.0144 -0.2740  0.1825
10352W        W26486  13.757   4.084   1.200 -0.1749 -0.0382 -0.3702
10353W        W26487   7.286   2.148   3.780 -0.0899  0.0446  0.0219
10354W        W26488   8.007  16.378   5.459 -0.2142  0.1972  0.2299
10355W        W26489   2.716  16.258   3.694 -0.1878 -0.1602 -0.0273
10356W        W26490   6.490  11.106   0.653 -0.1048 -0.0884  0.0461
10357W        W26491   3.303  16.666   4.208 -0.0681  0.0694 -0.1009
10358W        W26492  16.572  11.611  11.972 -0.1894  0.0265 -0.1826
10359W        W26493  11.457   4.222   1.593 -0.0365 -0.0942  0.2568
10360W        W26494  12.368  12.490  15.151  0.0162  0.0914  0.1967
10361W        W26495  14.384   5.796  12.914  0.2252 -0.0124  0.2731
10362W        W26496   5.278  16.752  13.222  0.1648 -0.0122 -0.2046
10363W        W26497  13.246   7.890  14.409 -0.0003 -0.2131 -0.2804
10364W        W26498  10.047  17.162  16.379  0.1480  0.0601 -0.0668
10365W        W26499   9.893  15.837  13.019 -0.1879 -0.0441 -0.0788
10366W        W26500   7.117  15.457   2.520  0.1183 -0.1545 -0.0065
10367W        W26501   1.538   5.437   0.576  0.0028 -0.0215  0.0188
10368W        W26502   7.620  14.730   2.164 -0.0345  0.1076 -0.1885
10369W        W26503   5.875   4.309   6.571 -0.2123  0.0079  0.0047
10370W        W26504  12.543  12.531   1.726 -0.2365 -0.0406  0.1098
10371W        W26505  16.761  13.900   1.532 -0.0798 -0.0415  0.0656
10372W        W26506  14.617   4.522   1.820  0.2493 -0.0711  0.0972
10373W        W26507   1.442   4.893   3.769 -0.0756  0.2952 -0.0244
10374W        W26508  10.210   0.900  13.260 -0.1248  0.0982 -0.0117
10375W        W26509  12.367   1.252  15.274  0.0724 -0.2285 -0.0011
10376W        W26510   9.499  13.366  16.280  0.2008  0.3154  0.1525
10377W        W26511   0.979  15.474  15.939 -0.2293  0.1091 -0.0882
10378W        W26512   9.905   5.574  15.481  0.3222 -0.0361 -0.2845
10379W        W26513   3.753   4.586   5.738 -0.0440  0.1902  0.0530
10380W        W26514   5.360   4.466   2.777 -0.2555 -0.0024  0.1921
10381W        W26515  17.070  15.804  16.283  0.3463  0.1535 -0.0015
10382W        W26516   6.840  14.553  14.292  0.0792 -0.3740  0.3913
10383W        W26517  11.656   3.091  11.499  0.1182  0.0256 -0.0967
10384W        W26518   1.491  11.364   0.481 -0.2227 -0.1392 -0.1469
10385W        W26519   4.206   2.563   3.908 -0.1919 -0.0268  0.4165
10386W        W26520   3.463   7.361   2.360 -0.3947  0.1348 -0.0470
10387W        W26521   0.350   7.661  15.364 -0.0396 -0.0914  0.1225
10388W        W26522  15.904   5.896  15.329 -0.2030  0.1238 -0.0937
10389W        W26523   5.626  13.779   3.648  0.0901  0.0139  0.0341
10390W        W26524   2.735  14.455   3.043 -0.0260 -0.0186  0.1554
10391W        W26525  12.579  17.528   0.763  0.1056 -0.2950  0.0198
10392W        W26526  12.916  13.118   2.978 -0.0802 -0.2104 -0.1991
10393W        W26527   7.367   2.801   2.969 -0.1458 -0.1189  0.0166
10394W        W26528   8.228  12.257  12.803  0.0005 -0.3140  0.0313
10395W        W26529   2.040  11.401  14.302  0.2167 -0.0180 -0.4763
10396W        W26530   8.298   3.945  17.050  0.0185  0.0607 -0.1632
10397W        W26531  11.577   0.037   5.940 -0.0009 -0.0642  0.4908
10398W        W26532   2.680  16.409  12.252 -0.1375  0.1397  0.0220
10399W        W26533   9.744   1.896  14.127 -0.0290  0.0634  0.3157
10400W        W26534  14.023   9.135   5.462  0.1790 -0.0805  0.0959
10401W        W26535  13.247  17.592  15.432  0.0145  0.0918  0.1436
10402W        W26536   7.461   7.019  16.223  0.3807  0.2047 -0.1249
10403W        W26537  13.735  12.844   1.355  0.3505  0.2117 -0.0209
10404W        W26538   5.573  11.379   0.175 -0.1979  0.1444 -0.2676
10405W        W26539   0.480   6.078   4.041  0.1139  0.3174 -0.0606
10406W        W26540  13.117   5.487  12.903  0.2353 -0.2236  0.0464
10407W        W26541   3.243   1.162  16.991  0.1388  0.1342 -0.2254
10408W        W26542  10.637   4.545   1.760  0.1697 -0.0919  0.0617
10409W        W26543   5.086   2.879  13.589 -0.0679  0.0177 -0.0376
10410W        W26544  13.534  14.337  16.099 -0.0200 -0.0853  0.0493
10411W        W26545  15.311  13.014  10.803 -0.0147 -0.1869 -0.2065
10412W        W26546   9.291   2.146  13.548 -0.0731 -0.0660  0.0653
10413W        W26547   5.212   4.847  11.860 -0.1973 -0.2281  0.0547
10414W        W26548   5.453   7.744  10.653 -0.1771  0.2087 -0.1682
10415W        W26549   6.755  11.965   1.023 -0.0548 -0.1212  0.1567
10416W        W26550   5.592  14.177   2.493 -0.0669  0.1243  0.1590
10417W        W26551  11.642   2.335   2.712 -0.2965 -0.2602 -0.1951
10418W        W26552   6.395   0.593  16.743 -0.1542 -0.0078  0.1869
10419W        W26553   5.987   5.375   2.170 -0.1123 -0.0093 -0.1216
10420W        W26554   9.561  15.082   3.601 -0.0699  0.0279  0.0806
10421W        W26555   5.645  13.696  14.614  0.1116  0.2295  0.0461
10422W        W26556   3.996   3.036  15.393 -0.0475  0.1428 -0.0878
10423W        W26557   8.060   1.096   1.910 -0.2625  0.0870  0.1662
10424W        W26558   0.904   3.597   0.762 -0.1662  0.2951  0.0053
10425W        W26559  15.613   2.910  15.198 -0.1723  0.0294  0.1848
10426W        W26560   7.393   7.256   2.301 -0.3142 -0.0054 -0.2576
10427W        W26561   0.475   5.003   0.037 -0.0646 -0.4115 -0.0271
10428W        W26562   5.439  11.928  15.934  0.2019 -0.3439 -0.1659
10429W        W26563   6.003  14.203   2.780  0.0032  0.0637  0.0034
10430W        W26564   3.265   4.575   2.880 -0.0785 -0.2045  0.2138
10431W        W26565   7.775   3.462  15.526  0.0150 -0.1085 -0.2060
10432W        W26566   0.971   2.558   1.477 -0.3788 -0.1100 -0.3567
10433W        W26567   5.581  10.484  11.878 -0.0091 -0.1778 -0.2258
10434W        W26568   9.453  13.355   0.934  0.5900  0.0936 -0.2334
10435W        W26569   0.437   1.491  13.554 -0.1330  0.0119 -0.0478
10436W        W26570   3.826  10.673   3.581  0.2632 -0.0100  0.1203
10437W        W26571  15.868  11.241   0.390  0.1923 -0.4904  0.1251
10438W        W26572  16.503   4.059  14.882 -0.1207  0.2053  0.3333
10439W        W26573  17.559   8.845  13.324 -0.2391 -0.0066  0.0089
10440W        W26574  17.233   2.999  12.228  0.3348  0.0128 -0.0014
10441W        W26575  14.416   7.565  11.967  0.1120  0.2175 -0.0788
10442W        W26576  15.626  10.135   2.224 -0.0797  0.1821  0.2094
10443W        W26577   6.520  16.053  14.966  0.4203 -0.3390  0.1679
10444W        W26578  16.287   1.817   3.107 -0.2781  0.3213 -0.1058
10445W        W26579   6.249   8.556  12.583  0.0916  0.1784 -0.4749
10446W        W26580  16.174   7.790   4.123 -0.0714  0.0525  0.1413
10447W        W26581   4.234  13.903   0.936  0.1481 -0.1175 -0.0895
10448W        W26582  14.402   0.021   3.154  0.1379 -0.1635 -0.0275
10449W        W26583   4.682   9.313  15.277 -0.2428  0.1976  0.0414
10450W        W26584   6.529  13.253   2.725  0.2046  0.1281  0.1109
10451W        W26585  17.216  13.690  12.833 -0.1613  0.1159 -0.1075
10452W        W26586  12.246   4.904   2.229  0.0916 -0.1102  0.0019
10453W        W26587   1.572   9.436   0.849  0.2324 -0.0831  0.0210
10454W        W26588  17.230   1.115  16.905 -0.1132 -0.1577  0.3611
10455W        W26589   7.611  16.479  15.498 -0.2015  0.0007  0.1865
10456W        W26590  10.503  11.851   1.628 -0.1801  0.0598  0.3025
10457W        W26591   3.511  17.462  16.135 -0.0135 -0.3007 -0.0014
10458W        W26592  12.521   0.225  12.924 -0.2722 -0.4833  0.2578
10459W        W26593  15.410   5.037  12.303  0.3808 -0.1171 -0.1206
10460W        W26594  16.150  11.500   5.641 -0.0695 -0.1979 -0.0100
10461W        W26595   2.144   2.751  13.514 -0.1100  0.0213  0.0982
10462W        W26596  13.196  13.230   1.407  0.0925  0.2285  0.3083
10463W        W26597  13.453  15.656   0.440  0.0254 -0.2307 -0.2092
10464W        W26598   2.989   7.054  13.848  0.0194  0.2911 -0.0739
10465W        W26599   6.941  16.222  17.068 -0.0816  0.2493 -0.0454
10466W        W26600  10.112  10.284  12.958  0.1229  0.0568 -0.1340
10467W        W26601   4.152  11.258  13.470 -0.1069  0.2688 -0.1021
10468W        W26602   1.176  16.205   2.677  0.2188  0.3750 -0.1377
10469W        W26603   3.070   3.437   5.408  0.0910 -0.2315 -0.1141
10470W        W26604   3.747   7.929   5.369  0.2540 -0.3500  0.2676
10471W        W26605   4.808  12.212   5.875 -0.0082  0.2486 -0.2123
10472W        W26606  15.268  16.583   2.745 -0.3013 -0.0060  0.0135
10473W        W26607  11.900   0.339   1.591 -0.3906 -0.0564  0.0386
10474W        W26608   7.711   0.109  16.278  0.1954 -0.0964 -0.2312
10475W        W26609   5.875  14.359   5.316 -0.0199  0.2080  0.1825
10476W        W26610   9.817   7.566   5.784 -0.3909  0.1986 -0.0001
10477W        W26611   8.801   4.165  15.775 -0.0093  0.1875 -0.2105
10478W        W26612  13.131   4.166   3.764  0.1345 -0.0623 -0.2564
10479W        W26613   1.320   6.428  16.346 -0.1697 -0.2403  0.0585
10480W        W26614   8.841   2.097   0.906 -0.0920  0.1174  0.0458
10481W        W26615   5.958  17.486   2.896  0.2765  0.0083 -0.0211
10482W        W26616   2.169   0.139  12.910 -0.0087  0.0310  0.0480
10483W        W26617  12.300   3.346   2.038 -0.3234  0.3084 -0.0109
10484W        W26618  16.902  10.127  15.070 -0.1018 -0.0931 -0.2477
10485W        W26619   6.285  14.369   0.264 -0.1410  0.1393 -0.3091
10486W        W26620   5.027   3.238  16.566 -0.0179  0.0232 -0.2233
10487W        W26621   0.153   0.781  13.222 -0.2254  0.0577  0.0313
10488W        W26622   4.602  11.664   3.508 -0.1168  0.1795  0.0629
10489W        W26623   3.523   2.868   5.892  0.2162  0.1614 -0.2087
10490W        W26624   4.581   5.933   2.949 -0.0061 -0.3000 -0.0623
10491W        W26625  15.417   6.605  12.102 -0.1295  0.0499  0.1165
10492W        W26626   9.170  10.550   0.158  0.2755  0.1487  0.2384
10493W        W26627  12.622   6.491   2.892  0.0763  0.4564 -0.0590
10494W        W26628  14.707  10.056   4.695  0.0312  0.0229 -0.1992
10495W        W26629  15.575   4.061  11.944 -0.0491  0.2018 -0.0355
10496W        W26630   1.895   1.317   2.477  0.0946  0.1099 -0.2666
10497W        W26631   0.971   8.781   4.658 -0.2468 -0.1046  0.2560
10498W        W26632  12.976  13.629  14.405  0.0104 -0.3814 -0.0456
10499W        W26633  13.421  13.880   0.283 -0.1011  0.0435  0.2205
10500W        W26634   9.005   5.760   0.349 -0.3906  0.0434 -0.2584
10501W        W26635  11.996   1.178  11.586  0.1188 -0.0456  0.0784
10502W        W26636   4.048  17.384   1.540  0.1673 -0.1683  0.0636
10503W        W26637  16.256  11.583  11.205  0.0665 -0.0023  0.1150
10504W        W26638  12.711   5.218  11.660 -0.1541  0.0972  0.1370
10505W        W26639  17.290   8.888  13.737 -0.0244 -0.1393 -0.2322
10506W        W26640   3.442  12.370   0.894  0.0610 -0.1980  0.0215
10507W        W26641   5.517  11.509   3.449  0.0084  0.2343 -0.1036
10508W        W26642  11.217   0.994  12.936  0.1190  0.2338 -0.1299
10509W        W26643   8.758  13.326   5.041  0.1906 -0.0754  0.0046
10510W        W26644   2.342   8.723  16.899 -0.2364 -0.0247  0.3104
10511W        W26645   3.298   9.687   4.295  0.1226  0.0363 -0.1983
10512W        W26646  15.034   8.668  14.808 -0.0481 -0.3393 -0.1900
10513W        W26647  10.205   8.535  14.437  0.0365  0.0114  0.0223
10514W        W26648   0.628   1.167  14.495 -0.0023 -0.1400 -0.3091
10515W        W26649   5.525  16.397  12.904  0.0361  0.0030 -0.1548
10516W        W26650  16.562  12.799   5.458  0.0531  0.2788 -0.2418
10517W        W26651   9.708  11.004  12.644  0.0346 -0.1094 -0.3421
10518W        W26652  12.259   9.787   6.141  0.1985 -0.0585  0.1325
10519W        W26653  16.661   6.743  13.555  0.1663 -0.0715  0.0338
10520W        W26654   7.051   8.991  16.198 -0.0071  0.0994  0.2033
10521W        W26655   8.877   5.223  11.027 -0.1338 -0.0102 -0.1020
10522W        W26656   9.736  10.990   5.965  0.1700 -0.2919 -0.1379
10523W        W26657  14.150   4.745  12.610 -0.2894 -0.1898 -0.1253
10524W        W26658   2.258  16.196   1.168  0.1128  0.3060  0.1354
10525W        W26659   2.486   0.740   2.627  0.0523 -0.0489 -0.1383
10526W        W26660   4.479   0.897   3.760 -0.0463 -0.1966  0.0971
10527W        W26661  15.147  11.741  11.835  0.3494 -0.0820  0.0223
10528W        W26662   6.303   4.340  13.650 -0.2663 -0.0379 -0.3697
10529W        W26663   9.630   5.548  15.909 -0.0849  0.0675  0.3839
10530W        W26664   2.858  16.858   1.512 -0.1483 -0.0715  0.1724
10531W        W26665   1.170   8.099  12.195  0.1684  0.0962  0.0792
10532W        W26666  14.993   2.171  14.223 -0.2238  0.0638 -0.2535
10533W        W26667   2.756   8.945  17.028  0.0911  0.1682  0.0779
10534W        W26668   0.850   1.381   3.507  0.1858 -0.0029  0.2652
10535W        W26669  12.234  11.437   1.881  0.0135 -0.1352  0.0943
10536W        W26670   0.284   6.628  12.970  0.0914  0.1059  0.2731
10537W        W26671  16.259   5.500   4.027  0.0325 -0.3382  0.0445
10538W        W26672  11.465  15.667  12.083  0.0170  0.0632  0.1807
10539W        W26673  10.315  16.708   5.238 -0.2155 -0.2261 -0.0096
10540W        W26674  11.105  16.098   0.089  0.1205  0.1205  0.2107
10541W        W26675   1.810   3.716  14.981 -0.0153  0.1005  0.2381
10542W        W26676  15.971  12.271   4.056 -0.6003 -0.1441  0.1161
10543W        W26677   4.649  11.355   2.453  0.1169 -0.1054 -0.0219
10544W        W26678   6.709   8.845   3.441 -0.3064  0.2253  0.0412
10545W        W26679  15.442  11.428  14.106  0.2561 -0.0783 -0.1916
10546W        W26680  13.605   9.622  12.173  0.2683 -0.1600 -0.0181
10547W        W26681   8.922   7.163  11.759  0.0404 -0.0166  0.1097
10548W        W26682  11.945   6.490   3.539  0.1839  0.0733 -0.0044
10549W        W26683   8.298   3.644  14.112  0.2363 -0.5194 -0.0778
10550W        W26684  11.448   6.006  11.571  0.3118 -0.2046 -0.2301
10551W        W26685   9.319   9.397   5.087 -0.1050  0.3269 -0.1286
10552W        W26686  13.258  10.330  13.636 -0.0237  0.3164 -0.2682
10553W        W26687  17.538  15.653  11.727 -0.2364  0.0935 -0.4019
10554W        W26688   0.929   8.864  17.058 -0.0013 -0.2163  0.0857
10555W        W26689  13.786  14.282   2.662  0.3650  0.1114  0.0636
10556W        W26690   8.090   7.565  11.674  0.1250 -0.1823  0.0245
10557W        W26691  11.097   3.795   1.616 -0.1534  0.1551  0.0304
10558W        W26692   1.219   2.428  14.063  0.0403  0.0651  0.1594
10559W        W26693   1.015  15.143   2.233 -0.4266  0.1405  0.0103
10560W        W26694   6.214  14.632  15.631  0.2821 -0.0798  0.4007
10561W        W26695  10.381  16.186   1.991 -0.3310  0.3214  0.2598
10562W        W26696  13.897  10.356   4.782  0.2907 -0.0702  0.0463
10563W        W26697   1.163  16.183   5.547 -0.1256  0.0633 -0.0044
10564W        W26698  13.847  14.933   2.016  0.1376  0.0253  0.0861
10565W        W26699   5.316   4.736  10.882  0.1552  0.0376  0.2273
10566W        W26700   3.950   0.422   6.620  0.3168 -0.0220  0.2147
10567W        W26701  17.420  17.075  14.764  0.1329  0.1185  0.1441
10568W        W26702  14.167   7.407   5.770 -0.2573  0.0837  0.1036
10569W        W26703   4.705   3.213   0.494 -0.0600  0.2178  0.1411
10570W        W26704   9.781   0.027   5.078  0.0306 -0.0618  0.0581
10571W        W26705   1.524  11.043  13.718 -0.0012 -0.3496 -0.2079
10572W        W26706   9.439  13.982  16.312 -0.1955 -0.0067  0.0903
10573W        W26707   1.690   7.077  11.757 -0.1215 -0.1651  0.0304
10574W        W26708  14.399  10.025  12.006  0.0017  0.1735 -0.1319
10575W        W26709  16.117   7.513   2.729 -0.1410 -0.0136  0.0636
10576W        W26710  17.068  13.418   0.083  0.1770  0.1807  0.0554
10577W        W26711   3.491  15.801  14.412 -0.1173  0.3790 -0.2433
10578W        W26712   3.282  10.865  13.926  0.0376 -0.4735 -0.1913
10579W        W26713  12.241   4.492  12.643  0.1305 -0.2553 -0.1780
10580W        W26714  16.483  15.580   3.172  0.3181  0.0749  0.0847
10581W        W26715   0.731  13.814  14.216  0.1440 -0.2933 -0.0572
10582W        W26716   8.894  13.536  14.737  0.2463 -0.4056 -0.1301
10583W        W26717  11.137   5.949  12.329  0.2003  0.0593 -0.0452
10584W        W26718   6.724   6.218  13.262  0.1143  0.1152  0.2372
10585W        W26719   0.311   0.243  13.142  0.0395  0.0716  0.0322
10586W        W26720   3.469   8.530   4.878 -0.1152  0.0497 -0.0333
10587W        W26721   4.870   1.474   1.841 -0.4880 -0.2325 -0.0051
10588W        W26722  12.133   0.506  12.604  0.2867 -0.0105 -0.1352
10589W        W26723  10.011   7.597  16.588 -0.1532  0.0399  0.2568
10590W        W26724   4.150   5.319   2.328  0.0559  0.0806 -0.0407
10591W        W26725  15.782  15.623  12.248 -0.0964 -0.2482 -0.0435
10592W        W26726   1.794   1.453  12.329 -0.0818  0.4329 -0.4713
10593W        W26727   4.021  17.482   3.646 -0.1031  0.0773 -0.2420
10594W        W26728   0.306  13.391   1.712 -0.3567 -0.1624 -0.2903
10595W        W26729   0.843   3.018  15.607 -0.0235 -0.0508  0.1195
10596W        W26730  15.345   3.374   5.052 -0.0027  0.0451 -0.0517
10597W        W26731   7.070  14.440  15.979 -0.0632 -0.0034 -0.0796
10598W        W26732  10.209  17.342   2.039  0.1165 -0.0394 -0.1116
10599W        W26733   8.672  10.668   1.899 -0.1170 -0.0051  0.0636
10600W        W26734   6.224   5.940   0.594  0.4147 -0.3860 -0.0663
10601W        W26735   3.542  12.646  15.544  0.2096  0.3967 -0.1596
10602W        W26736  12.050  15.248  11.442  0.0412  0.1655  0.0754
10603W        W26737  17.582  11.975  16.692  0.1156 -0.0987  0.0021
10604W        W26738  15.426   6.187  12.493  0.0090 -0.2967 -0.0037
10605W        W26739  11.706  10.423  16.535 -0.1566 -0.0086  0.4409
10606W        W26740   6.228   4.847  16.893 -0.0165 -0.0195 -0.0277
10607W        W26741   2.864   3.025   3.032  0.0430  0.2443 -0.1419
10608W        W26742   4.743  11.254  17.105 -0.1930  0.1840 -0.1748
10609W        W26743   6.431   5.520   0.590  0.0678  0.1959 -0.0101
10610W        W26744  13.312  15.199   2.334  0.2765 -0.4314 -0.3430
10611W        W26745  15.410   9.489   4.064 -0.2198 -0.2333 -0.1531
10612W        W26746  12.294   7.363  12.791 -0.1776 -0.1658 -0.2383
10613W        W26747  10.916  15.747   0.430  0.1754  0.1100 -0.2411
10614W        W26748  10.456   6.665  14.324 -0.0295  0.0764  0.0995
10615W        W26749   2.082   2.015  11.725 -0.1140  0.0205  0.0960
10616W        W26750  13.146   0.465   1.786 -0.3025  0.0517 -0.4466
10617W        W26751   2.219  17.083   1.058 -0.2131  0.1169 -0.2706
10618W        W26752  11.963   6.329  16.582  0.0363  0.0682  0.0384
10619W        W26753  13.121   8.493  16.742 -0.0830 -0.2958 -0.0248
10620W        W26754  12.140  12.294  11.860 -0.1317  0.0904  0.2272
10621W        W26755   6.212   0.282  15.596  0.0320  0.0559 -0.1672
10622W        W26756   0.302   5.461  16.526  0.0980  0.0765 -0.1593
10623W        W26757   7.961   6.159   4.078 -0.4508  0.2879 -0.1092
10624W        W26758   5.627   0.794  13.353 -0.0572 -0.2637  0.3081
10625W        W26759   4.634   0.644  15.011  0.0877  0.1085  0.0814
10626W        W26760   9.485  11.866   4.250  0.2426  0.1061  0.0546
10627W        W26761   0.583   9.349   5.190  0.1840 -0.0434  0.0566
10628W        W26762  11.401  13.372   0.875  0.3456  0.2349 -0.1473
10629W        W26763   4.944   9.079   5.361  0.1566  0.0475 -0.0003
10630W        W26764  12.275  16.386   4.557 -0.3315 -0.2660  0.0025
10631W        W26765   1.500   1.121  12.599 -0.1208  0.2079  0.2892
10632W        W26766   1.425  16.744   0.888  0.1843 -0.1803 -0.1693
10633W        W26767   5.126  15.887   2.074  0.0822  0.0907  0.0811
10634W        W26768   1.498   0.676  12.356  0.2777  0.1004  0.0723
10635W        W26769   3.680  14.072   4.180 -0.0165 -0.0468 -0.1795
10636W        W26770  15.248   2.870   5.146 -0.1119  0.1502 -0.3063
10637W        W26771  14.317  14.041   1.898  0.1475 -0.1064  0.2383
10638W        W26772   9.356  10.181   0.455  0.1164 -0.0039  0.2295
10639W        W26773   9.866   0.791   0.115 -0.0178 -0.2868  0.1625
10640W        W26774  15.080  14.678   0.479  0.0922  0.1393  0.1032
10641W        W26775   9.276   2.569  15.157  0.1923  0.3781 -0.1166
10642W        W26776   9.381  16.508   3.586  0.1174  0.1381  0.0446
10643W        W26777   5.791  10.882   4.237  0.4071  0.1448 -0.1800
10644W        W26778   3.320   7.839  12.698  0.1846  0.0440  0.3808
10645W        W26779  14.014  15.965  14.408  0.1725 -0.0176  0.1965
10646W        W26780   1.388   2.357  12.001  0.1596  0.1598 -0.2166
10647W        W26781  11.336   2.759  11.695 -0.2014 -0.1631  0.1770
10648W        W26782  10.936   3.667   3.249 -0.0030  0.3190 -0.0744
10649W        W26783  11.933   5.381   3.614  0.1426  0.0440 -0.1228
10650W        W26784   7.459  14.469  16.763  0.0631 -0.0352  0.0226
10651W        W26785   7.834  16.016   1.064  0.1570  0.0881  0.2082
10652W        W26786  13.016   0.010   5.862 -0.2411 -0.2040 -0.0681
10653W        W26787   7.054   3.086   1.166  0.3701 -0.1102 -0.1436
10654W        W26788   7.113   3.689   2.790 -0.1179  0.3342  0.0449
10655W        W26789   8.709   0.990   5.198  0.2282 -0.1945 -0.0085
10656W        W26790   1.132  12.917   3.557 -0.0715 -0.0450  0.3826
10657W        W26791  12.514  10.302   1.223  0.0060 -0.0122  0.0827
10658W        W26792  15.179  15.756   3.501  0.0112 -0.3394  0.1074
10659W        W26793  16.554   6.295  13.097 -0.1745  0.1684  0.0926
10660W        W26794   5.531   9.399  13.957 -0.1350  0.0450  0.1595
10661W        W26795   9.165   5.092  14.183  0.1764 -0.0245  0.2304
10662W        W26796   8.207  17.363   2.485 -0.0433 -0.0518 -0.0509
10663W        W26797   6.933   4.076  14.064 -0.0830  0.2212 -0.0560
10664W        W26798  14.776   9.856   3.358 -0.1201  0.2056  0.0947
10665W        W26799  16.757  10.472  12.805  0.3476  0.1029  0.0484
10666W        W26800  12.902  16.413   3.457 -0.0858 -0.1589  0.1811
10667W        W26801  14.567   9.655   1.665 -0.0450 -0.1047 -0.1035
10668W        W26802  16.676   0.536  16.597 -0.1866  0.3030 -0.2686
10669W        W26803   7.707   1.343  12.245 -0.1574  0.1721 -0.1181
10670W        W26804  11.905  17.327  13.094  0.1412 -0.2745 -0.0550
10671W        W26805   7.734   2.363  11.280  0.1241  0.1149 -0.2258
10672W        W26806   5.287   9.768   5.865 -0.1304  0.1054  0.0034
10673W        W26807  13.069  16.305   2.561 -0.1600  0.0564 -0.0546
10674W        W26808  16.943   2.009  11.853 -0.0325  0.1498  0.1595
10675W        W26809   0.350   3.392   5.185  0.0699 -0.0796 -0.2935
10676W        W26810  14.419  17.307   3.591 -0.1981  0.1953  0.1535
10677W        W26811   6.799  14.344   0.186  0.0497 -0.2327 -0.3816
10678W        W26812   8.646  15.650   5.027  0.0251  0.2562  0.1168
10679W        W26813   0.466  15.080  15.430  0.0585  0.3492 -0.0398
10680W        W26814  15.439   4.990  14.611 -0.0035  0.0172 -0.2195
10681W        W26815   0.030   3.635  13.502 -0.1377 -0.0393  0.1944
10682W        W26816   5.259  14.009  14.735  0.0824 -0.0744  0.0349
10683W        W26817  12.862   3.065  15.877  0.1962 -0.1987  0.0797
10684W        W26818   8.636   5.793  15.205  0.0877  0.2174  0.1543
10685W        W26819   2.587  10.293   2.230  0.1197  0.1932  0.2148
10686W        W26820   9.269  15.718   0.390 -0.3036  0.2621 -0.0830
10687W        W26821   6.471   3.355   3.699  0.1726  0.1447 -0.1465
10688W        W26822  11.817   4.643   2.497  0.0171 -0.2069 -0.2792
10689W        W26823   9.220   6.032  14.031  0.3866 -0.0972 -0.1719
10690W        W26824  10.086  14.562   0.839 -0.0875 -0.0277 -0.1875
10691W        W26825   3.300  11.054   2.289 -0.0165  0.0187 -0.0174
10692W        W26826  12.690  14.525   5.268 -0.3191 -0.2491  0.0470
10693W        W26827   3.288   5.123   1.628 -0.0142 -0.1148 -0.1577
10694W        W26828   5.603  11.710   2.164  0.1532  0.2194  0.5093
10695W        W26829   2.049  14.907  16.620  0.3462  0.1642 -0.1928
10696W        W26830   1.425  14.624   5.006 -0.1082  0.1025 -0.2118
10697W        W26831   3.488   2.608   3.169 -0.0736  0.1321  0.2504
10698W        W26832   2.123   9.717  16.861  0.0405 -0.0741 -0.1868
10699W        W26833  15.995  13.852   2.444  0.1634 -0.1616 -0.1635
10700W        W26834  12.163   6.133   2.219 -0.1901  0.0150  0.2709
10701W        W26835   0.228   0.952   1.755  0.0762 -0.0167  0.1904
10702W        W26836   5.152   0.037   0.091 -0.0275 -0.1326 -0.3590
10703W        W26837   4.635  11.214   1.960 -0.1406 -0.0992 -0.3402
10704W        W26838  10.617   3.745  11.897 -0.1407  0.0178 -0.0862
10705W        W26839   9.554  11.047   1.824 -0.2600 -0.0209  0.0836
10706W        W26840   0.836  17.640  12.391 -0.1453 -0.1099 -0.1572
10707W        W26841  16.160  17.137   4.581 -0.3632  0.1636 -0.1438
10708W        W26842   2.886   2.164   5.594  0.1806  0.0492 -0.1797
10709W        W26843   0.957   8.846  16.151 -0.1744 -0.0486 -0.1540
10710W        W26844   4.684   6.349   1.274 -0.1461  0.0655  0.1209
10711W        W26845   0.767   4.239  12.509  0.0746  0.4393 -0.1585
10712W        W26846  16.506   8.092   4.362  0.0912 -0.1270 -0.3044
10713W        W26847   4.182   3.742  17.001 -0.2122  0.0841  0.0941
10714W        W26848   8.976   9.618   4.125  0.0835  0.4086  0.4514
10715W        W26849  13.263   8.207  14.798  0.0319 -0.0583 -0.2025
10716W        W26850   3.287  10.023   5.168 -0.0571  0.0968  0.2807
10717W        W26851   6.301  11.769  13.767 -0.0836 -0.1025  0.1828
10718W        W26852  10.639  12.343  10.910 -0.1235 -0.2179  0.1331
10719W        W26853  13.491   0.877   3.546 -0.1283 -0.0913  0.1636
10720W        W26854  11.451  13.206  17.111  0.3116 -0.1820  0.1422
10721W        W26855  13.618   2.557   4.004 -0.0738  0.2791  0.0780
10722W        W26856   8.996   9.929  12.784 -0.2694  0.1563 -0.1183
10723W        W26857   0.358  12.392   1.733  0.0443  0.1476  0.2008
10724W        W26858  14.804   2.839   2.526  0.3556  0.3179 -0.0366
10725W        W26859   9.644   4.068   3.516 -0.1886  0.0703  0.2840
10726W        W26860  16.481   6.060   2.927 -0.1597  0.1928 -0.1348
10727W        W26861  11.028   0.443  15.884 -0.0667 -0.0044  0.1471
10728W        W26862   8.919  12.984  14.084  0.0440  0.0921  0.0207
10729W        W26863   7.436  11.034   3.310 -0.2404  0.1879 -0.0692
10730W        W26864   6.667  12.956  15.052 -0.0704  0.3274 -0.0193
10731W        W26865  11.420   1.644   0.054 -0.1676  0.0115 -0.0592
10732W        W26866   8.503   5.021  12.261 -0.0523 -0.0360  0.1304
10733W        W26867  13.746   5.491   0.512 -0.0819 -0.0764  0.0495
10734W        W26868   4.535  17.206  14.238  0.2094 -0.2093  0.0367
10735W        W26869   9.894   9.485   0.425  0.1433  0.1338 -0.1393
10736W        W26870  15.526  12.251  15.626 -0.1519 -0.2955 -0.0349
10737W        W26871   5.762   0.291  13.083  0.1361 -0.0882 -0.1226
10738W        W26872   5.368  13.872   1.526  0.0049  0.0250 -0.2025
10739W        W26873   0.574   8.603   2.935  0.3576  0.1089 -0.0813
10740W        W26874  12.171   7.883   3.119  0.0062 -0.0337 -0.1603
10741W        W26875  12.566   0.274   2.122 -0.0551  0.2184 -0.0993
10742W        W26876  16.497  15.530   5.443 -0.0032  0.2076  0.1848
10743W        W26877   1.323   7.391  13.065 -0.1149 -0.2024 -0.0633
10744W        W26878   1.854  13.051   1.190  0.0776 -0.0413  0.0580
10745W        W26879   3.632   0.501   2.052 -0.0915  0.2877 -0.0844
10746W        W26880  15.431   5.334  13.539  0.1738 -0.1301 -0.2356
10747W        W26881  10.937   4.701  11.500 -0.1378  0.3237  0.4440
10748W        W26882  11.715   0.178   1.115  0.1160  0.2678  0.1136
10749W        W26883   3.373   0.776   3.367  0.3562  0.4840  0.0463
10750W        W26884   2.142   3.822  16.293  0.1444 -0.2503 -0.0973
10751W        W26885  11.496   7.946   3.913 -0.0657  0.0276 -0.1078
10752W        W26886   3.012  12.577   3.064 -0.1091 -0.3662  0.2481
10753W        W26887  14.407   3.534   0.175  0.1072 -0.0542  0.1020
10754W        W26888  12.683  15.831   2.588 -0.1214 -0.2478  0.0895
10755W        W26889   0.432   6.131   0.646  0.0639 -0.0682  0.1116
10756W        W26890  14.372   6.639   1.110 -0.0959 -0.0895 -0.1041
10757W        W26891   4.571   1.437  13.256  0.1866 -0.1224 -0.0757
10758W        W26892  11.818   7.306  15.310  0.2022 -0.2177 -0.2631
10759W        W26893  14.327   0.412  16.677 -0.0163  0.1538 -0.2292
10760W        W26894  15.788   4.301  12.353  0.1780  0.2769  0.1464
10761W        W26895  14.469  15.435  15.104 -0.0389 -0.2192  0.1511
10762W        W26896   0.463   3.432  14.549 -0.3476 -0.1925  0.1732
10763W        W26897   2.907   4.420  12.035 -0.2335  0.2002  0.1158
10764W        W26898  10.096   7.941   1.708  0.3082  0.3488  0.3531
10765W        W26899   6.120  10.463   2.986 -0.1743  0.1581  0.3235
10766W        W26900   4.048   0.618   5.767 -0.1908 -0.0348 -0.0441
10767W        W26901   6.579   4.511  16.913 -0.1490 -0.0869  0.1945
10768W        W26902  17.314   6.042   1.102  0.0532  0.1358 -0.1051
10769W        W26903   8.056  10.204  12.195  0.0284 -0.1868  0.2828
10770W        W26904   0.721  16.405  14.475  0.1119 -0.3168 -0.0867
10771W        W26905   5.123  11.343   3.711 -0.1075 -0.2718 -0.2881
10772W        W26906   8.515   4.903   0.712  0.2333 -0.1828  0.0349
10773W        W26907   6.414   3.410   2.685 -0.2138 -0.1009 -0.0602
10774W        W26908  15.463  14.403   1.237 -0.1112 -0.0156 -0.3072
10775W        W26909   8.054   2.492  14.322  0.2204  0.2714  0.2732
10776W        W26910   5.249  12.133   4.035  0.2938 -0.0714  0.2772
10777W        W26911   2.340   2.402   2.096  0.0814  0.1594  0.4416
10778W        W26912   7.391   3.756  13.175 -0.1498 -0.0423  0.1320
10779W        W26913   0.236   7.276   0.314 -0.0110  0.5608  0.3194
10780W        W26914   3.303  11.969   6.351 -0.0986  0.3467 -0.1307
10781W        W26915  14.964   9.110   2.658  0.0683  0.3358 -0.0421
10782W        W26916  12.008   7.432   0.847 -0.3033 -0.0682 -0.2267
10783W        W26917  14.092   5.485   0.862  0.0779  0.0563 -0.4923
10784W        W26918  14.623   8.280  16.503  0.2281  0.2649 -0.1155
10785W        W26919   9.372   9.421   5.631 -0.2358  0.1743 -0.0061
10786W        W26920   8.714   3.350  16.514  0.2499 -0.1264  0.2001
10787W        W26921   3.764  12.273  13.017 -0.0616  0.1536  0.2730
10788W        W26922   6.746  17.538   3.467  0.2979 -0.1819  0.0384
10789W        W26923   1.533   3.906  11.791  0.0202 -0.1506 -0.0074
10790W        W26924  14.263  11.780   0.906  0.2332  0.1955 -0.1372
10791W        W26925  15.029  14.948  11.076 -0.2865  0.0092  0.0909
10792W        W26926  10.609   6.003  14.433 -0.0373  0.3080  0.3193
10793W        W26927   0.967  16.391   1.259  0.1819  0.2818  0.0252
10794W        W26928   6.056   7.891  11.323  0.0930  0.0048  0.1475
10795W        W26929  11.782   2.541   5.759 -0.0120  0.0749  0.0968
10796W        W26930  16.281  10.155  15.850  0.5079 -0.4135 -0.0837
10797W        W26931   7.995  10.817   3.876  0.3460  0.0452  0.0552
10798W        W26932   5.941   3.917  13.841  0.0332  0.2129  0.1861
10799W        W26933   4.392   9.030  15.565  0.0013 -0.0160  0.2357
10800W        W26934   2.743  15.260   3.386 -0.1444 -0.0838 -0.1089
10801W        W26935  10.841   0.037   4.112  0.0530  0.0464 -0.2157
10802W        W26936   6.928  16.367   3.799  0.0086  0.1325  0.1309
10803W        W26937   0.379   6.345   3.175 -0.1840  0.1331 -0.0415
10804W        W26938   1.011   7.487  13.591  0.2649  0.1686  0.1444
10805W        W26939   1.947   4.152   0.922  0.1048  0.1597 -0.1513
10806W        W26940   9.697   8.720   0.986  0.1439 -0.0224 -0.0685
10807W        W26941  15.852  11.173  15.966  0.2573  0.1326  0.1591
10808W        W26942   2.101  12.663   4.215  0.1610  0.0379  0.1075
10809W        W26943  13.075  12.121  15.587 -0.0030  0.0459 -0.2818
10810W        W26944  16.189  10.643  16.797 -0.4718 -0.1557 -0.1444
10811W        W26945   1.732   8.375   6.531  0.2406  0.1744  0.3446
10812W        W26946   1.051   0.602  15.712 -0.2548 -0.1686 -0.1823
10813W        W26947  12.284  11.698  14.989  0.0036  0.1703 -0.0218
10814W        W26948  16.618  11.933  16.307 -0.0188 -0.0211  0.3369
10815W        W26949   4.018   9.756   5.757 -0.0977  0.1286 -0.2716
10816W        W26950  17.063   7.201  10.700  0.0267  0.0332  0.0532
10817W        W26951   5.586   8.815   1.638  0.2864  0.1363 -0.1292
10818W        W26952   2.476   9.562   0.561 -0.0080  0.0210  0.2056
10819W        W26953  16.286   9.978  13.583 -0.2734  0.2681  0.0266
10820W        W26954   0.577  12.190   5.748 -0.0839 -0.1434  0.1749
10821W        W26955  10.997  17.561   0.503 -0.0945  0.2996 -0.1620
10822W        W26956   0.669   8.725  12.824 -0.1873 -0.2499 -0.1474
10823W        W26957   6.828   6.307   5.171 -0.1172 -0.0885  0.1870
10824W        W26958   8.129   9.911  15.331 -0.0205 -0.0978  0.1137
10825W        W26959  10.088  15.053   0.356 -0.4373 -0.4070 -0.1461
10826W        W26960   2.174   8.358   5.287 -0.1407  0.0837  0.1037
10827W        W26961  14.789   0.646  12.116  0.0946  0.5387  0.0499
10828W        W26962  13.088   5.525  11.458  0.1246 -0.0019 -0.0737
10829W        W26963  12.152   3.731  13.927 -0.2645  0.0954  0.0045
10830W        W26964   5.515   3.058   1.798  0.1325 -0.2711  0.2212
10831W        W26965   7.812   5.987  13.971 -0.1505  0.2941 -0.2359
10832W        W26966   8.586   5.414   4.607 -0.2445 -0.0607  0.0593
10833W        W26967  16.332   9.536  15.553 -0.0421  0.0658 -0.2690
10834W        W26968   5.757  12.444   6.291 -0.0572 -0.0280  0.0271
10835W        W26969   9.644  10.945   3.696 -0.2364  0.0804  0.3656
10836W        W26970   3.459   5.537  14.048  0.0106 -0.0490  0.0909
10837W        W26971   0.440  10.365   2.647 -0.2637  0.0112 -0.0268
10838W        W26972  10.353   5.114   0.270  0.0706 -0.0781 -0.2263
10839W        W26973   2.275  13.864   0.744 -0.3839  0.0198  0.1255
10840W        W26974  10.264  15.274  16.260  0.0160 -0.0681 -0.6293
10841W        W26975   1.027   2.492  13.158 -0.0443 -0.1094  0.1614
10842W        W26976  13.408   8.207  17.091 -0.2843  0.2372  0.2753
10843W        W26977  11.050   4.268   0.185 -0.0124  0.2846 -0.0727
10844W        W26978   5.398  11.146   2.552  0.0680  0.0985  0.0502
10845W        W26979   5.844  14.230   2.040 -0.0767  0.1044 -0.2432
10846W        W26980   7.815  14.574   3.317 -0.3315  0.0311  0.0000
10847W        W26981  14.260   7.272   4.664  0.1344 -0.1030  0.1969
10848W        W26982   6.242   0.738  14.511 -0.0349  0.2616  0.0189
10849W        W26983   2.203  10.822  14.799 -0.1312  0.0482 -0.0838
10850W        W26984   5.624   2.980   0.244  0.1525 -0.0463 -0.2055
10851W        W26985   0.986   2.568  14.690 -0.0814  0.1564 -0.0565
10852W        W26986  10.127   6.790   1.580  0.0274  0.4707 -0.1688
10853W        W26987  15.524   6.568  14.773  0.0962  0.2758 -0.0888
10854W        W26988  13.708  15.928   0.814 -0.0817 -0.0181 -0.0438
10855W        W26989   2.670   1.218   6.129 -0.0958 -0.0181 -0.0011
10856W        W26990  13.538  11.093   1.352 -0.0401  0.2651  0.1537
10857W        W26991   6.754   3.856   0.664 -0.1261 -0.2621 -0.1279
10858W        W26992   6.491  16.344   6.204  0.0054  0.0044  0.4336
10859W        W26993   4.347   9.968   1.111  0.2757  0.1883 -0.3642
10860W        W26994   6.468   3.413  16.403 -0.2793 -0.1198 -0.2470
10861W        W26995  17.536  15.642   0.263 -0.1966  0.1047 -0.0109
10862W        W26996   1.579  17.209   4.070 -0.0014  0.1117  0.0573
10863W        W26997   8.400  12.066   4.116 -0.2157 -0.1856 -0.1622
10864W        W26998   3.839   5.585   3.974  0.0767  0.2200  0.1505
10865W        W26999  14.400   2.126   3.083  0.1943  0.1856  0.1990
10866W        W27000   5.465  13.141   0.977 -0.0518  0.2146  0.1475
10867W        W27001  15.015   0.574   2.284 -0.2097 -0.1841  0.3330
10868W        W27002   9.809   4.052   5.132  0.2207 -0.2196  0.0992
10869W        W27003   5.225   1.945   3.946  0.1516 -0.2495  0.1872
10870W        W27004   0.716  14.093   3.072  0.0052  0.0379 -0.2229
10871W        W27005  16.292   0.669   3.919 -0.1745  0.0033 -0.1455
10872W        W27006   9.084   3.658   4.804 -0.1052  0.3649 -0.1378
10873W        W27007  14.784  15.806  14.961  0.0374  0.1953  0.0926
10874W        W27008   4.385   1.463  14.533 -0.0073 -0.0815  0.2576
10875W        W27009   7.187   9.184   5.459 -0.3421  0.1208 -0.0697
10876W        W27010   4.555  17.451   5.358  0.1803 -0.1849 -0.2364
10877W        W27011   5.794   0.944   5.868  0.0544  0.1029 -0.0954
10878W        W27012   7.868  13.519   0.739 -0.1065  0.1361  0.0608
10879W        W27013  14.384  16.023  16.884  0.2189  0.2494 -0.2259
10880W        W27014   8.681   8.628   1.565 -0.1547 -0.0469 -0.0578
10881W        W27015  11.846   0.932   2.920 -0.2322  0.1128  0.1956
10882W        W27016   6.354   5.192  12.099 -0.3004 -0.2191 -0.2734
10883W        W27017  12.867  12.622   5.012 -0.2801 -0.0624  0.1390
10884W        W27018   7.478  12.302   0.921 -0.0317  0.0440  0.0618
10885W        W27019  13.263   9.385   1.825  0.1518 -0.0312 -0.0736
10886W        W27020  11.617  17.310  13.579 -0.0125 -0.0972 -0.2004
10887W        W27021  11.038  17.223  14.758  0.0523 -0.1677 -0.0298
10888W        W27022   3.885  11.356  16.946 -0.0579  0.3255 -0.0129
10889W        W27023  10.330  10.692  15.918 -0.0009 -0.0717 -0.0133
10890W        W27024   3.979   0.124  15.252 -0.1742 -0.2811 -0.0957
10891W        W27025   2.633   4.291  14.623  0.0038 -0.0491  0.0957
10892W        W27026  15.609   3.600  11.265  0.0335 -0.2828 -0.0288
10893W        W27027  13.196   7.292  14.211 -0.0988  0.2412 -0.2753
10894W        W27028  13.639  15.628   2.776 -0.1939 -0.1318 -0.1306
10895W        W27029   4.124   0.196   4.484  0.1326 -0.1466  0.1640
10896W        W27030   0.104  11.268   5.510  0.0267  0.0227 -0.1315
10897W        W27031  12.508   1.426  12.206 -0.1654 -0.1269  0.1438
10898W        W27032   7.951  10.978   5.733 -0.0086  0.0565 -0.0063
10899W        W27033   4.240  10.605   0.403  0.0308 -0.0787  0.0669
10900W        W27034  17.531  10.045  12.475 -0.4502 -0.2746 -0.0244
10901W        W27035  10.799   0.440  17.161 -0.1280  0.0733  0.2336
10902W        W27036  11.766   8.145  11.802 -0.1636  0.3578  0.0575
10903W        W27037   3.869  16.278  16.592  0.3660  0.1784 -0.1653
10904W        W27038   3.633   0.972   5.597 -0.6322  0.0149 -0.0853
10905W        W27039   5.402  15.685  14.058 -0.0021  0.2852  0.0368
10906W        W27040   4.433   5.545  15.642 -0.0608  0.0189  0.3014
10907W        W27041   0.558  15.583  13.462 -0.2073  0.3369  0.0406
10908W        W27042  11.929   9.083  15.429  0.2726  0.2837  0.3324
10909W        W27043  15.968   8.336   3.473  0.0323  0.3541 -0.1946
10910W        W27044   1.558   2.752   2.387 -0.1822 -0.0917  0.1759
10911W        W27045  14.827  16.768  12.462  0.0350  0.1679 -0.1047
10912W        W27046  11.883   5.160   2.518  0.1764  0.2788 -0.0500
10913W        W27047   3.498  13.127  15.050 -0.0044  0.1421  0.0610
10914W        W27048   6.742   1.037   1.225  0.1192 -0.0828  0.0474
10915W        W27049  17.064   6.131   0.087  0.0525  0.0845  0.0089
10916W        W27050   8.328  14.860   1.656 -0.2540  0.1146  0.0678
10917W        W27051  10.358  17.087  16.013  0.2178 -0.0369 -0.1577
10918W        W27052  10.722  14.069   4.109  0.1172 -0.1610  0.1000
10919W        W27053   1.246  13.228  11.981 -0.1103  0.1591  0.0633
10920W        W27054  14.573  14.399   0.642 -0.1424 -0.0769  0.0859
10921W        W27055   3.140  12.679   4.368 -0.1452 -0.1500  0.0646
10922W        W27056   6.663  15.786  12.117 -0.1461 -0.1217  0.0487
10923W        W27057   3.768  15.302   6.134  0.0662  0.1410 -0.1260
10924W        W27058  10.256   2.206   2.085  0.0866 -0.0530  0.3685
10925W        W27059   9.525  12.681   1.818  0.1443 -0.1586  0.1563
10926W        W27060   3.188   2.457  14.034  0.3001 -0.1985 -0.0292
10927W        W27061   7.642  12.916   2.340  0.1262  0.2026 -0.1891
10928W        W27062   9.288   2.008  14.016  0.0583 -0.4063 -0.1667
10929W        W27063  14.866  15.603  16.965 -0.0074 -0.1655 -0.2401
10930W        W27064   1.684   3.553  15.538 -0.0288 -0.0091 -0.0763
10931W        W27065  17.626   4.351  12.840  0.1634  0.0068 -0.2476
10932W        W27066   7.705  13.842  13.577  0.3846  0.0143 -0.1703
10933W        W27067  15.088   4.688   4.865  0.2836 -0.1235 -0.1655
10934W        W27068   2.917  16.344   4.132  0.0168 -0.2639 -0.0348
10935W        W27069   5.605  15.843   5.440 -0.0214  0.0409  0.2197
10936W        W27070   2.929  12.348   0.074 -0.1390 -0.0598  0.0983
10937W        W27071  16.499   0.989   5.245  0.1338 -0.1730 -0.0025
10938W        W27072  10.398   0.256   4.320  0.2346 -0.1068  0.1932
10939W        W27073   7.928  17.039   0.188 -0.0937  0.0108  0.3726
10940W        W27074   5.548   9.252  12.908 -0.3950  0.3671  0.1979
10941W        W27075  11.319   5.233   1.722  0.1169 -0.0586  0.2712
10942W        W27076   0.452  12.718  13.900  0.0190  0.0535 -0.1088
10943W        W27077  16.947  10.429   1.731 -0.3328 -0.0218 -0.2400
10944W        W27078   4.723   3.832  16.007  0.0423  0.1389 -0.2663
10945W        W27079  12.159   4.999  12.828 -0.4111 -0.1338 -0.0665
10946W        W27080  10.798   0.516   3.981  0.1358 -0.3143  0.0578
10947W        W27081  15.260  15.701   2.880 -0.2803  0.0408  0.1161
10948W        W27082   7.977   3.757  13.680 -0.0867  0.1908  0.2949
10949W        W27083  12.451  17.612  12.491  0.0620  0.1716  0.3022
10950W        W27084   3.652  15.816  13.845  0.0439 -0.1709  0.1164
10951W        W27085   6.510   2.950  14.533  0.2328  0.0268  0.2078
10952W        W27086  13.057   6.155  16.591 -0.0951 -0.2652  0.3199
10953W        W27087   6.866   0.908  11.933  0.1471 -0.2551 -0.1293
10954W        W27088  14.376  17.014  12.597  0.0010  0.2864 -0.1798
10955W        W27089  10.691   8.032   3.981  0.0309 -0.0106  0.1800
10956W        W27090   8.693  11.685   1.729 -0.2323 -0.1065 -0.1532
10957W        W27091  10.610   1.549   4.106  0.2838 -0.1861 -0.2626
10958W        W27092  10.947  13.676   4.306  0.0152 -0.0133  0.0827
10959W        W27093   7.691  13.793   1.127 -0.0381  0.1036 -0.2368
10960W        W27094  11.575  11.387  14.578 -0.0639  0.2400  0.4813
10961W        W27095  15.512   8.575  15.686  0.1425  0.0951 -0.0024
10962W        W27096   7.008  11.519   1.228  0.0986  0.0738 -0.0800
10963W        W27097   6.145  14.638   5.676  0.0601 -0.0661  0.2909
10964W        W27098  16.736   2.691  12.351  0.2583 -0.2413  0.2282
10965W        W27099  12.225  16.226  14.969  0.1636 -0.0634  0.3460
10966W        W27100   6.910  16.187   5.888 -0.2533  0.0382  0.0605
10967W        W27101   0.609   4.700   3.519 -0.0223 -0.0076  0.0687
10968W        W27102  12.310   2.484  16.229 -0.0650 -0.0368  0.1010
10969W        W27103  11.445  12.998   5.358  0.0976 -0.2541 -0.2187
10970W        W27104   6.740   2.088   1.306  0.0120  0.0114 -0.0622
10971W        W27105   1.885   1.717  14.508 -0.1760  0.1716  0.1068
10972W        W27106  10.405   4.218  11.924  0.0615  0.1600 -0.0419
10973W        W27107   7.289  15.102  16.294 -0.0329 -0.1160 -0.2672
10974W        W27108   0.286  14.985   2.560 -0.0288 -0.3492  0.1083
10975W        W27109  10.852   0.777  13.877  0.1493  0.0962  0.0953
10976W        W27110   2.918   7.751   0.941 -0.2619 -0.1862  0.3160
10977W        W27111   8.025   3.790  11.609  0.1004 -0.1477 -0.0654
10978W        W27112   2.846   4.028   2.218  0.1731 -0.0755 -0.1862
10979W        W27113  11.242  16.351   4.043 -0.1506  0.2399  0.2726
10980W        W27114   6.555  12.498   1.835  0.4507 -0.1684  0.1396
10981W        W27115   2.070  17.593   4.069 -0.1013  0.0244 -0.1221
10982W        W27116   2.336   5.994   0.803  0.0211 -0.1460  0.1706
10983W        W27117   2.607   8.736   6.167  0.4080 -0.0320 -0.0205
10984W        W27118   5.503   7.280  15.247  0.1774 -0.0358 -0.0782
10985W        W27119  15.052  13.469   3.085 -0.0274 -0.5484  0.0658
10986W        W27120   5.084   4.940  15.933 -0.1564 -0.0328 -0.0939
10987W        W27121  11.503  11.325   0.407  0.0330 -0.1345  0.0402
10988W        W27122  13.005   0.995   4.626 -0.1615  0.1494 -0.0067
10989W        W27123   9.117   3.519  11.530 -0.0165 -0.0260 -0.0930
10990W        W27124   0.742   8.846   0.722 -0.0558  0.1199 -0.2606
10991W        W27125   7.682  17.449  11.980 -0.0056 -0.0406  0.0375
10992W        W27126   5.339   6.052  14.552  0.1071  0.0162 -0.2366
10993W        W27127  17.022  12.002  15.779 -0.0017 -0.1435  0.1076
10994W        W27128  11.695   7.801  14.024 -0.0294 -0.1309  0.0986
10995W        W27129  12.789  12.968   1.134 -0.1049 -0.0125  0.1668
10996W        W27130  16.156   4.825  13.923  0.1002 -0.0847 -0.0112
10997W        W27131   6.950  16.421  13.797 -0.0733  0.0900 -0.0315
10998W        W27132  16.968   9.055   4.700  0.1787 -0.1151  0.0959
10999W        W27133   0.845  14.391   0.116 -0.1485  0.1673  0.0371
11000W        W27134  16.601  16.253   4.592 -0.1260  0.0362 -0.1389
11001W        W27135  16.944  14.339  16.966  0.1824  0.0572 -0.1398
11002W        W27136   1.732   6.554  16.621  0.1801  0.0382 -0.0111
11003W        W27137   1.844   7.049  15.364 -0.0889  0.0225  0.0902
11004W        W27138   3.981   7.334  15.024 -0.1264 -0.1064 -0.1154
11005W        W27139   1.899  10.429   3.814 -0.2663 -0.1587 -0.2156
11006W        W27140   7.662  14.753  12.352  0.1683 -0.0900 -0.0478
11007W        W27141  16.595   7.972  16.429  0.2779 -0.1917  0.4313
11008W        W27142   4.091   8.077   5.696  0.1558 -0.0123 -0.2226
11009W        W27143   3.907  14.775   2.603 -0.2736  0.2521  0.0255
11010W        W27144   4.014   5.897   1.306 -0.0006 -0.2114  0.1026
11011W        W27145   9.341  15.752  15.521  0.1054  0.1451 -0.1693
11012W        W27146  14.126  15.761   4.083 -0.2260  0.0710 -0.0666
11013W        W27147   4.367   1.888   4.556 -0.3083 -0.1436  0.0403
11014W        W27148   9.150  17.398   1.973  0.1036  0.2796 -0.0750
11015W        W27149  14.967   2.344   1.358 -0.2050 -0.0976  0.1519
11016W        W27150   1.939   5.267  16.101 -0.1626  0.3360 -0.0534
11017W        W27151   4.207  11.754  16.644 -0.4232  0.0250  0.1127
11018W        W27152   3.924   6.303  15.505  0.2032 -0.1255 -0.1613
11019W        W27153  14.478   9.878  15.370  0.2967 -0.1219  0.0855
11020W        W27154   3.523   4.310  13.484 -0.1975 -0.0264 -0.1301
11021W        W27155  15.124  12.744   4.128  0.1065  0.2364  0.2747
11022W        W27156   7.901  10.849   3.338 -0.5305 -0.1480 -0.0017
11023W        W27157   5.672   4.030  15.201  0.1307  0.1023  0.1086
11024W        W27158   0.649   0.742  13.066 -0.2759 -0.4695 -0.1164
11025W        W27159   4.565   7.441   1.459  0.2486 -0.3184  0.3326
11026W        W27160   6.719   4.341  16.010 -0.3348 -0.2723  0.0625
11027W        W27161  15.616   9.457   4.518 -0.1173 -0.0399  0.3337
11028W        W27162   8.631  11.829  14.457  0.1509  0.3313  0.0446
11029W        W27163  12.959   9.232  15.394  0.0885  0.1263 -0.3411
11030W        W27164  10.692   9.721   2.197 -0.0845  0.1180 -0.1625
11031W        W27165  10.702   6.753   3.330  0.1350 -0.0114 -0.0272
11032W        W27166  11.983  17.570   3.556 -0.0849  0.4707 -0.2603
11033W        W27167   2.243  14.567   3.081  0.1187 -0.0003  0.1499
11034W        W27168   8.705  14.477   3.496  0.0294 -0.3929  0.1161
11035W        W27169  11.650  16.136   3.819 -0.0448 -0.3047 -0.5546
11036W        W27170  17.485   3.105   4.053 -0.0565  0.0299  0.1952
11037W        W27171   5.841   8.645  15.590  0.0442  0.1360 -0.3168
11038W        W27172  16.983   7.514   0.036  0.2331 -0.1985 -0.2201
11039W        W27173  11.878   6.179   5.293 -0.0056  0.2163 -0.0107
11040W        W27174  10.277   2.521  17.134  0.0977  0.0444  0.0793
11041W        W27175  15.417  16.191  14.800  0.1368  0.0664  0.2257
11042W        W27176   7.788   5.984   3.597  0.1337 -0.1692  0.1536
11043W        W27177   6.873   0.077  16.216  0.0634  0.0393  0.5094
11044W        W27178   8.809   9.114   5.203  0.3101  0.1670 -0.0318
11045W        W27179  13.243  12.379  16.636 -0.0934  0.0094  0.2757
11046W        W27180   9.498  15.836   4.564  0.1052  0.0380  0.0070
11047W        W27181   4.124  13.590  11.464  0.1392 -0.0074 -0.2277
11048W        W27182   3.648  12.097  13.468  0.0495  0.2010 -0.1124
11049W        W27183  15.821   4.425   3.014 -0.3060  0.0829  0.0748
11050W        W27184   6.350  17.416   2.083 -0.2512  0.2661  0.0249
11051W        W27185   6.646   1.731  12.795 -0.1905  0.1480 -0.2164
11052W        W27186   5.860   2.156  13.609 -0.2100 -0.1491 -0.0025
11053W        W27187   7.222  13.687  16.611 -0.2982  0.2532  0.2040
11054W        W27188   2.670   8.758   4.291 -0.1319 -0.2060  0.0840
11055W        W27189   1.372  11.784  13.113 -0.1447  0.0828  0.0406
11056W        W27190   7.414   1.734   1.085 -0.1905 -0.2058  0.0843
11057W        W27191  11.194   0.197   4.401 -0.2705 -0.1351 -0.0051
11058W        W27192  16.063  13.719   3.489  0.1081 -0.0939 -0.0980
11059W        W27193  12.322   3.831   2.153  0.2440  0.2580 -0.1643
11060W        W27194  11.362  16.903  15.939  0.1513 -0.2009 -0.1881
11061W        W27195   0.908   6.981  15.886  0.1140 -0.0648 -0.0457
11062W        W27196   3.306   8.582  10.577  0.1228  0.4291  0.0353
11063W        W27197   3.337  10.411   4.783 -0.0151 -0.0383 -0.1135
11064W        W27198  11.330   8.716   6.053 -0.3184 -0.0695 -0.1363
11065W        W27199  15.118   0.060   6.213 -0.0534  0.2554 -0.5649
11066W        W27200  12.795  11.340   0.540 -0.0091 -0.1065 -0.1564
11067W        W27201   9.970   4.531   3.664  0.0104  0.0495  0.0881
11068W        W27202   2.115   8.780   2.138 -0.1665  0.0393 -0.1166
11069W        W27203   0.622   7.715   2.657 -0.0727 -0.0231  0.3080
11070W        W27204  13.354   9.965  16.355  0.1637  0.2194 -0.2288
11071W        W27205   7.586  12.393   1.894 -0.0873 -0.2741  0.1660
11072W        W27206  11.725   9.256  14.936 -0.3496 -0.1474  0.0380
11073W        W27207  11.317   3.277  13.827 -0.0273 -0.1097 -0.1261
11074W        W27208  13.700   4.791  14.547  0.0837  0.0074  0.1103
11075W        W27209  14.017   8.780   1.393  0.1796  0.0308  0.1344
11076W        W27210  13.133  16.205  15.659 -0.2233  0.0978 -0.2688
11077W        W27211   0.994   0.765  14.407 -0.0581 -0.2743  0.1537
11078W        W27212  15.132   5.191   2.169  0.3332 -0.1782  0.1315
11079W        W27213  13.326   7.101  16.226  0.0562  0.0984  0.0262
11080W        W27214  16.718  14.008  12.113  0.1336 -0.2913 -0.0046
11081W        W27215  14.002   5.914  15.963  0.3351  0.0025 -0.0416
11082W        W27216   4.263   0.836  13.768 -0.0260  0.1140 -0.1137
11083W        W27217  17.146   7.730   0.441  0.1748  0.0534 -0.1388
11084W        W27218  11.363   0.174  12.599  0.0221 -0.0290 -0.4068
11085W        W27219   8.203  15.647   1.281  0.0913 -0.0248  0.3657
11086W        W27220   6.620  15.690  16.388  0.0063 -0.1728 -0.0151
11087W        W27221   2.162  15.058   4.393  0.1701  0.1283 -0.3111
11088W        W27222  17.533  12.655   3.106  0.0699 -0.0175  0.1233
11089W        W27223   7.055  10.676   3.599 -0.0363  0.0024 -0.0462
11090W        W27224   2.181  14.644  14.530 -0.0058 -0.1411  0.1568
11091W        W27225  16.191   7.881  15.473  0.0166  0.3099  0.0823
11092W        W27226   3.275  13.908  15.946  0.3173 -0.0052 -0.1442
11093W        W27227  10.935  10.071   4.858 -0.3747 -0.1984  0.2221
11094W        W27228  16.076   4.578  12.675  0.3025 -0.1326 -0.1604
11095W        W27229   9.610  14.669  16.766 -0.0957 -0.3143  0.1410
11096W        W27230   4.754  13.269  14.637 -0.1719  0.1267  0.0246
11097W        W27231  10.869   3.297  13.547  0.0265  0.0372 -0.0952
11098W        W27232  10.390  16.893   3.841 -0.4853  0.2760  0.0920
11099W        W27233  11.213   8.267  16.932 -0.2582 -0.0572 -0.0842
11100W        W27234  10.356   1.302  12.414 -0.0097  0.0027  0.0352
11101W        W27235  14.090   1.944   0.371  0.0220 -0.4470 -0.0244
11102W        W27236   0.742   6.351   0.966  0.2881 -0.0443  0.1725
11103W        W27237   7.191  12.638   0.315  0.1957  0.0703  0.2953
11104W        W27238   8.852  16.703  13.981 -0.0506 -0.0133 -0.0071
11105W        W27239  16.131  13.475  16.376  0.1891  0.0080  0.1009
11106W        W27240  11.425   4.282   2.479 -0.3535  0.0800 -0.1673
11107W        W27241   0.088  14.971  16.945  0.1604 -0.0849  0.0223
11108W        W27242  16.005   8.902  17.131  0.0980  0.0713  0.1010
11109W        W27243   7.827   6.459   3.610  0.1447  0.0782 -0.1801
11110W        W27244   9.276   7.706   3.217 -0.0580  0.0654  0.0597
11111W        W27245  14.461  14.783  16.065 -0.2615  0.1878 -0.0027
11112W        W27246   7.248  12.684   5.652 -0.0773 -0.2427 -0.1438
11113W        W27247  14.187   2.769   1.729  0.2091  0.1507 -0.1491
11114W        W27248   2.840   1.349   5.304 -0.1170 -0.3010  0.1178
11115W        W27249   3.195  13.795  12.047 -0.1520 -0.2610  0.1105
11116W        W27250   2.205   6.745   5.123 -0.2029  0.2457 -0.2265
11117W        W27251  11.481  10.364  12.137  0.0541  0.3202  0.0164
11118W        W27252  11.230   3.069   0.360  0.2485 -0.1845 -0.0477
11119W        W27253  12.150  12.653  13.393  0.1639  0.0552  0.4898
11120W        W27254   3.957   1.542   2.402  0.0191  0.1619 -0.1729
11121W        W27255   6.028  16.539   2.125 -0.2935  0.0195 -0.1749
11122W        W27256   3.677  13.979  15.019  0.2284 -0.0641 -0.0983
11123W        W27257   0.175  15.839  14.963 -0.0219  0.2287  0.4032
11124W        W27258   3.953  16.058  12.374  0.1247 -0.0474 -0.0225
11125W        W27259   0.347  10.322   1.033 -0.0699  0.2632  0.1621
11126W        W27260  15.328   3.713  14.419  0.0800 -0.2207  0.1332
11127W        W27261  12.054   2.388   3.051  0.3223 -0.2637 -0.2213
11128W        W27262  10.172  13.446  14.747  0.0448  0.3093 -0.1250
11129W        W27263   2.536  17.371  15.778  0.0987  0.0627 -0.1631
11130W        W27264   5.358   8.029   1.179 -0.3369  0.0347  0.2328
11131W        W27265  10.455   7.440  13.471  0.1340  0.3586 -0.1151
11132W        W27266  13.049  10.164   3.860 -0.0246 -0.2666 -0.1042
11133W        W27267  12.133   1.489   1.086  0.1447  0.0599  0.0634
11134W        W27268  14.949   1.520   3.203  0.1622 -0.2491 -0.1831
11135W        W27269  12.041   6.980  14.276 -0.1145  0.0022  0.2077
11136W        W27270  15.379  12.216   1.150  0.2121 -0.0591 -0.1057
11137W        W27271  15.860  17.332   5.980 -0.3423  0.0272  0.0257
11138W        W27272   2.987   7.427   4.039  0.3493  0.1291 -0.1773
11139W        W27273  12.604   2.068  15.969  0.1797  0.1326 -0.2591
11140W        W27274  12.113   1.683  14.938  0.2078  0.2297  0.1901
11141W        W27275  13.481   1.950   5.714  0.1610  0.2528 -0.1460
11142W        W27276   0.913   0.522   0.857 -0.2276  0.0288 -0.1314
11143W        W27277   9.818   3.227   3.828 -0.0673 -0.0605 -0.0811
11144W        W27278  11.353   5.325  12.309  0.0351 -0.2436  0.2427
11145W        W27279   9.553   3.204  16.570 -0.2052 -0.0181  0.0353
11146W        W27280   6.885   9.010   4.342  0.0359 -0.0713  0.3919
11147W        W27281  14.626   8.642   5.103 -0.1889  0.2190 -0.2607
11148W        W27282   5.288   1.806  14.715  0.1130 -0.1060  0.0794
11149W        W27283  11.013   9.646  12.632  0.0589  0.0467  0.0814
11150W        W27284   8.836   2.877  13.988  0.0083 -0.1797  0.0896
11151W        W27285  16.792   3.996  12.900  0.0855  0.1070  0.2074
11152W        W27286  12.956  14.010   3.676  0.0181 -0.2331 -0.1655
11153W        W27287   2.874  10.284   0.172 -0.1641 -0.3783 -0.1059
11154W        W27288   3.447  11.070  17.021  0.1002 -0.0831  0.1464
11155W        W27289   1.303  11.692   2.441 -0.0832 -0.1194  0.2205
11156W        W27290  14.136   7.464   2.065 -0.3458 -0.1998 -0.1549
11157W        W27291  15.662  15.781  14.581  0.3713  0.1155  0.1537
11158W        W27292   0.958  16.954   2.844 -0.0540 -0.1528 -0.3553
11159W        W27293   7.592   8.368   4.144  0.2762  0.0727  0.4621
11160W        W27294  12.026   5.765   1.885  0.1974 -0.1244 -0.2284
11161W        W27295   5.324  11.248   4.983  0.3732 -0.2009 -0.3288
11162W        W27296  11.081   1.447   3.121  0.1628 -0.1393  0.0135
11163W        W27297  16.175   7.312   0.419 -0.0006  0.0227  0.0086
11164W        W27298  14.327   5.508   3.376  0.0225  0.0754 -0.1385
11165W        W27299   8.774  11.353   3.749 -0.2276  0.3159  0.0573
11166W        W27300  15.655  11.787   1.056 -0.0107  0.2242  0.0708
11167W        W27301   0.357   7.261   2.312  0.1939 -0.3056  0.0885
11168W        W27302  12.489  17.234   1.149  0.1833  0.3634 -0.2142
11169W        W27303  10.012   9.337   4.409 -0.0755  0.0132 -0.1478
11170W        W27304  12.383   5.433   3.379  0.0711  0.0363 -0.0645
11171W        W27305  12.508   1.760   2.994  0.0724  0.1763  0.0658
11172W        W27306  14.481  14.569  15.018  0.4241 -0.1583  0.1692
11173W        W27307  15.329   3.128   3.625  0.1365  0.0387 -0.0404
11174W        W27308  13.678  13.280   4.286  0.1396  0.2433 -0.0357
11175W        W27309   6.425   7.913  16.672  0.2411  0.1197 -0.0339
11176W        W27310  16.595  11.238   0.850 -0.0876 -0.1900  0.0354
11177W        W27311   7.858  12.213   0.533 -0.4405 -0.3272 -0.1715
11178W        W27312  10.501   2.874   4.751  0.1025  0.3378  0.2474
11179W        W27313  16.468  10.342   1.915 -0.3199  0.0484 -0.0260
11180W        W27314  13.622  13.788   5.781 -0.1444 -0.0188 -0.1665
11181W        W27315  11.849  10.686  12.025  0.0130  0.0172  0.0684
11182W        W27316   4.698   5.556  14.855  0.0882 -0.2738 -0.0154
11183W        W27317  13.566  12.247  15.444 -0.1178  0.0896 -0.0203
11184W        W27318   8.120   2.847  17.100  0.2430 -0.0553  0.0520
11185W        W27319   4.912   5.199   1.795  0.1081  0.0759  0.1104
11186W        W27320   8.156  13.316   5.821 -0.2400  0.0556  0.1398
11187W        W27321  12.338   0.687   5.030 -0.0224  0.0463  0.0541
11188W        W27322   8.831  10.068   5.260 -0.0978 -0.2805  0.1055
11189W        W27323   6.549  16.730  12.400  0.1442 -0.0175 -0.0790
11190W        W27324   2.901  15.468   2.826  0.0672 -0.3697  0.1434
11191W        W27325  10.861   6.251   5.253  0.0414 -0.0564  0.2639
11192W        W27326  16.449   2.981   2.291  0.0216 -0.0624  0.1170
11193W        W27327  14.373  13.132  13.785 -0.2601 -0.0096 -0.1791
11194W        W27328  10.992   5.257   2.342 -0.2358 -0.2679 -0.0408
11195W        W27329  17.242   4.992  14.493  0.0618  0.1300  0.4187
11196W        W27330   1.135   2.425   0.672  0.2099 -0.0020  0.0634
11197W        W27331   6.568  11.835   0.009 -0.0167  0.0587  0.0008
11198W        W27332  12.191   8.518  12.071  0.0526 -0.2795 -0.1830
11199W        W27333  11.846  16.878   3.366 -0.0733  0.0312 -0.1671
11200W        W27334  15.186  13.231  14.750  0.1473  0.3406  0.4242
11201W        W27335  11.030  12.134  12.638  0.2948  0.2994 -0.3563
11202W        W27336  10.500   9.266  13.963 -0.0173 -0.2670 -0.1380
11203W        W27337  11.823   1.587   5.416 -0.2054 -0.0544 -0.2055
11204W        W27338   6.202  16.620  12.030  0.0831 -0.0749 -0.1439
11205W        W27339   6.564   0.325  14.642  0.2842  0.0011  0.0718
11206W        W27340  16.717  10.979   4.406  0.2380 -0.1860 -0.0860
11207W        W27341   5.856   6.049  14.761  0.0220  0.0289  0.2423
11208W        W27342  14.054  10.615   1.617  0.1721  0.1559  0.1857
11209W        W27343  13.245   2.775  16.503  0.0461  0.0386  0.0110
11210W        W27344   0.035   2.641   1.151 -0.0292  0.4389  0.0203
11211W        W27345  10.277   1.567  11.775  0.0693  0.2228  0.4997
11212W        W27346   1.383  15.684  15.717  0.1224 -0.1244 -0.0920
11213W        W27347   9.326   1.677  16.897  0.0562  0.0457 -0.0970
11214W        W27348   0.524   2.738   0.001  0.4139  0.0812  0.1101
11215W        W27349  11.901   5.805   4.871 -0.1184 -0.0226 -0.1099
11216W        W27350   0.894  17.288   1.325 -0.3676 -0.0027 -0.0533
11217W        W27351   3.118   1.853  12.629  0.1750  0.2307 -0.1925
11218W        W27352  10.010  13.582   2.539  0.0687 -0.0116  0.1124
11219W        W27353  14.123  10.803   1.114  0.2086  0.2268 -0.1575
11220W        W27354   2.862   5.440  13.604 -0.1421 -0.5174  0.0837
11221W        W27355   3.313   7.726   3.255  0.4469 -0.1579  0.1659
11222W        W27356   6.074   3.648   1.390 -0.1175  0.0900  0.0417
11223W        W27357  14.906  13.587   4.497 -0.0805  0.3127 -0.1009
11224W        W27358   8.529  10.125  12.831  0.2549  0.4320  0.1306
11225W        W27359   4.820   5.457  13.909 -0.1222  0.0228 -0.1996
11226W        W27360  13.869   4.574  15.767  0.1102  0.3039 -0.1413
11227W        W27361   3.120   5.820   2.513 -0.2874 -0.2547 -0.0440
11228W        W27362   8.151   5.100  13.984  0.1801 -0.3977 -0.0557
11229W        W27363  14.721  10.605   4.476 -0.0940  0.2474 -0.2568
11230W        W27364   8.388   2.146   2.017  0.0259 -0.0566 -0.0101
11231W        W27365   2.458   8.859   3.230 -0.0013  0.4159  0.1266
11232W        W27366   7.793   4.876  15.702 -0.0523 -0.1655 -0.0714
11233W        W27367  14.228   7.079   2.459 -0.2548  0.1916 -0.0673
11234W        W27368  13.889  10.362   3.250  0.0194 -0.0003 -0.0224
11235W        W27369  14.842  11.929   4.938  0.0479 -0.1106  0.0038
11236W        W27370  12.553   9.032   3.449 -0.0123 -0.1232  0.4060
11237W        W27371  11.823   9.371  12.130 -0.0561  0.0276  0.0234
11238W        W27372   1.879   2.122   2.237 -0.0951  0.3569  0.1985
11239W        W27373  10.696   8.729   5.200 -0.1244  0.1939  0.2524
11240W        W27374   7.299   5.620   0.931 -0.0646 -0.3489  0.0474
11241W        W27375  11.897  11.553  12.882 -0.2550 -0.3124  0.3766
11242W        W27376   8.321   8.739  16.140 -0.0423  0.1550  0.1005
11243W        W27377  13.460   2.837   5.578 -0.0601  0.2471 -0.2340
11244W        W27378  10.499  14.297   2.248 -0.1703 -0.0483  0.0335
11245W        W27379   7.194   2.243   1.147 -0.1849 -0.0041  0.0481
11246W        W27380  13.721  17.536   0.813  0.0883  0.2550  0.1616
11247W        W27381  15.311  10.521   1.873  0.2062 -0.1042 -0.0090
11248W        W27382  13.548  10.730   2.991  0.1715  0.1149 -0.1197
11249W        W27383  15.307   0.458   1.597  0.0595  0.3175 -0.1001
11250W        W27384  10.782   7.249  11.636  0.0005 -0.0437  0.2134
11251W        W27385  12.000  14.610   6.213 -0.0853  0.0901  0.0012
11252W        W27386   5.669   5.250  14.916  0.0263  0.1376 -0.2895
11253W        W27387   4.145   6.729   2.318 -0.2262  0.1753 -0.0827
11254W        W27388   6.386  16.499  16.203 -0.0079 -0.1068 -0.1624
11255W        W27389   2.324   1.439   1.562 -0.0316 -0.0944 -0.2246
11256W        W27390  13.429  17.613   3.735  0.0255  0.0041  0.3987
11257W        W27391   7.621  14.351  13.881 -0.1771 -0.1064  0.0061
11258W        W27392   1.562   0.564  14.920 -0.1150  0.3408  0.3506
11259W        W27393   2.757   1.744   1.477  0.1798  0.1403 -0.0428
11260W        W27394   4.166   1.929   0.594  0.0817  0.1126 -0.2678
11261W        W27395  13.993   2.924  17.059  0.1932  0.0816 -0.0399
11262W        W27396   8.970  11.056  13.136  0.1448 -0.0447 -0.3768
11263W        W27397   5.057   1.701  16.750  0.0519  0.0416 -0.3690
11264W        W27398  15.281  16.220   0.426  0.0530 -0.0752 -0.0646
11265W        W27399   2.109   5.006  14.802 -0.0552  0.0451 -0.0503
11266W        W27400  13.415   6.394   1.563 -0.1070 -0.0071 -0.2507
11267W        W27401  12.349   5.206  15.689  0.1832  0.1488  0.2117
11268W        W27402   0.019  10.612   0.823  0.1654 -0.3982  0.0572
11269W        W27403  12.586   4.888   0.993 -0.0735 -0.0290 -0.1419
11270W        W27404   0.145   5.647  15.699 -0.1807 -0.0147 -0.0016
11271W        W27405  13.107  15.330   3.343  0.4003  0.2345 -0.0660
11272W        W27406  11.260  11.186  11.640  0.0366  0.1645  0.3372
11273W        W27407  11.626   4.414  14.164 -0.2785 -0.2046  0.1524
11274W        W27408  12.188  15.209   5.310 -0.0344  0.1026 -0.0733
11275W        W27409   5.712  11.945  15.513  0.1449 -0.2517 -0.1132
11276W        W27410   5.706   2.272   3.747 -0.2097 -0.1586  0.1225
11277W        W27411   1.283   5.695   1.467 -0.1651 -0.1743 -0.1419
11278W        W27412   3.079   8.555  15.248  0.1837  0.2745  0.0568
11279W        W27413   4.096  13.025  14.184 -0.0506 -0.0755 -0.3983
11280W        W27414   1.219  14.717   2.449  0.0025 -0.1413  0.0729
11281W        W27415  11.907  15.409   0.843  0.0036  0.0195  0.0362
11282W        W27416   6.084  15.226   3.519 -0.0120  0.1232  0.1212
11283W        W27417   8.472  15.134  12.550  0.0306  0.0976 -0.0498
11284W        W27418   9.612  12.136   2.200  0.2672 -0.3546 -0.0872
11285W        W27419  10.028   7.832  16.111 -0.1890 -0.1761  0.0059
11286W        W27420   2.032   4.329   4.857 -0.1258 -0.3845 -0.3837
11287W        W27421  16.995   7.984   4.308  0.0411 -0.1883  0.1367
11288W        W27422   6.014  15.241   2.969 -0.1383 -0.0257  0.0999
11289W        W27423   6.277  10.225   1.257  0.0871 -0.0548 -0.0102
11290W        W27424  12.187   3.607  14.460 -0.0007  0.2992  0.0909
11291W        W27425  13.350   5.693  11.855  0.0132 -0.0708  0.0120
11292W        W27426   3.188   6.592  14.879 -0.0297 -0.2753 -0.2784
11293W        W27427   3.087  14.884  12.788  0.3014 -0.1373 -0.3231
11294W        W27428  12.662   6.797  13.116 -0.1062  0.0029  0.1042
11295W        W27429  13.845   7.433   4.944  0.0841 -0.0497  0.0017
11296W        W27430   3.686  14.380  12.358 -0.0755  0.4053 -0.0892
11297W        W27431   8.916  10.138   2.651 -0.1068  0.0262  0.0239
11298W        W27432   5.483   0.458   2.314  0.1193 -0.4144  0.1130
11299W        W27433  12.433  16.343   0.671 -0.0593  0.2742  0.1230
11300W        W27434   5.051  13.042  11.472  0.0598  0.1190 -0.3093
11301W        W27435  17.232   7.578  11.009 -0.1258  0.3208  0.0707
11302W        W27436  17.595   7.876  15.408  0.1486  0.0366 -0.4230
11303W        W27437  14.298   1.279  15.114 -0.1195 -0.0450  0.1887
11304W        W27438  13.760   7.773  11.811 -0.2476 -0.1916  0.1046
11305W        W27439   5.150   2.401  13.115 -0.4500  0.0864 -0.0015
11306W        W27440  10.788  14.736  13.452 -0.0993  0.1842  0.0248
11307W        W27441  12.578   4.653  13.910 -0.1834  0.1063  0.0116
11308W        W27442   0.616   4.220   2.539  0.0659  0.3306  0.0026
11309W        W27443   4.538   1.270  11.998  0.1285 -0.1304  0.1061
11310W        W27444  11.391   4.952  14.863  0.0246 -0.2455  0.0107
11311W        W27445  11.341   4.134  12.731  0.0780  0.0061 -0.3723
11312W        W27446   8.473  13.733  17.092 -0.0955 -0.0677  0.2784
11313W        W27447   4.715  10.436   5.747 -0.1428 -0.1861 -0.1996
11314W        W27448   4.383  11.121   5.267 -0.1863  0.2179 -0.0749
11315W        W27449   9.761  12.925  11.833  0.0719  0.0108 -0.0720
11316W        W27450   5.755  15.088   0.156  0.0300 -0.1027  0.0434
11317W        W27451   1.526   5.503  12.339  0.2861  0.2931  0.0502
11318W        W27452   1.879  12.098   0.925 -0.1625 -0.2614  0.4168
11319W        W27453   3.186   4.391  12.567  0.2040 -0.0736 -0.4347
11320W        W27454   1.426   1.457  16.675 -0.1410  0.0741  0.0901
11321W        W27455  15.129  16.600   0.052 -0.0709 -0.0143 -0.0470
11322W        W27456  10.448   1.609  15.392  0.2465 -0.1106 -0.0184
11323W        W27457  17.577   6.462   2.402  0.1886  0.1677  0.0199
11324W        W27458  13.329  13.977  12.714 -0.3269 -0.0049 -0.1153
11325W        W27459   9.223   7.159   0.042  0.0554  0.0874  0.0029
11326W        W27460  15.739  17.162   0.939  0.1164  0.0850 -0.0169
11327W        W27461   5.920   5.200   5.419 -0.2213  0.1620 -0.1723
11328W        W27462  10.753   9.399   0.607  0.0450 -0.3707  0.0472
11329W        W27463  12.373  10.475   0.597 -0.0543  0.0616  0.1723
11330W        W27464   9.789  17.604   2.823  0.1767 -0.4569  0.1940
11331W        W27465  16.685   5.801   3.862  0.1815  0.2761  0.2072
11332W        W27466   9.816   9.426  16.940 -0.0635 -0.0061 -0.0900
11333W        W27467  10.226   8.369  10.814 -0.3452 -0.1304  0.1089
11334W        W27468  16.172   8.549  14.508  0.0620 -0.0635  0.1473
11335W        W27469  16.852   9.914   4.432 -0.1591  0.3915 -0.4420
11336W        W27470   9.487  15.708  16.579 -0.1409  0.1836  0.1489
11337W        W27471  10.321   3.967  13.785 -0.3374  0.0704 -0.2660
11338W        W27472   2.809   7.593  12.600  0.3801  0.0876  0.2319
11339W        W27473   1.346   6.452   2.941  0.0009 -0.0749 -0.1266
11340W        W27474   9.996  11.453  11.976 -0.0431 -0.0415 -0.3849
11341W        W27475  10.297  13.096   1.445  0.1158  0.1270  0.2844
11342W        W27476  10.059   7.751  12.484  0.1380  0.4274  0.2408
11343W        W27477  11.236   8.494  14.005  0.1522 -0.4171 -0.0154
11344W        W27478   7.368  14.477  15.193 -0.1256 -0.0713 -0.0936
11345W        W27479   0.283   5.329   2.812  0.0321 -0.0887 -0.3310
11346W        W27480   5.320  16.187   0.504  0.0442  0.0620  0.0563
11347W        W27481  10.034  16.308   0.714 -0.1309  0.1158 -0.1910
11348W        W27482  12.570   2.661  12.385 -0.1156 -0.2971  0.1900
11349W        W27483  17.324  16.561   5.095 -0.1429 -0.1878  0.1547
11350W        W27484   9.546   7.846  16.582 -0.0664  0.1766  0.1027
11351W        W27485   9.602  13.644   3.318  0.1764 -0.1391  0.1787
11352W        W27486  17.462   1.279  15.092 -0.1305  0.2260  0.2169
11353W        W27487   3.496  12.225   4.197  0.1047 -0.0281 -0.2093
11354W        W27488  17.347   9.238   4.452  0.3117  0.1308 -0.1707
11355W        W27489   5.056   7.250  12.529 -0.4824 -0.1850  0.0143
11356W        W27490  10.571  15.339   2.954  0.0779  0.3772  0.2247
11357W        W27491   6.938  15.221   5.512  0.0169 -0.0104  0.0957
11358W        W27492   0.953  15.484   1.416  0.4109  0.2147  0.0552
11359W        W27493  15.403  16.120  13.673  0.1004 -0.0458  0.0246
11360W        W27494  13.205  10.253   1.429 -0.1859  0.0795 -0.0820
11361W        W27495  14.399  16.129   3.950 -0.1970 -0.1218  0.0217
11362W        W27496  17.463  11.631  14.588  0.3136 -0.1776 -0.2740
11363W        W27497   5.457   4.611  13.583 -0.0111  0.0899 -0.0188
11364W        W27498  10.998  14.441   1.298  0.0477  0.2744 -0.0490
11365W        W27499  14.952  16.099   0.812 -0.1423  0.2021 -0.0510
11366W        W27500   4.593   4.156  13.479  0.1176 -0.0560 -0.1379
11367W        W27501   0.444   9.743  12.287 -0.5269  0.1739  0.2666
11368W        W27502   3.689  15.201   1.456 -0.1847  0.2154  0.1979
11369W        W27503  16.499  11.245   5.296  0.2618 -0.0095 -0.0137
11370W        W27504  16.310  17.170   3.544 -0.3043 -0.1234 -0.2713
11371W        W27505  16.506   6.758   3.885  0.0298  0.0577  0.0791
11372W        W27506   2.689  11.278  12.977 -0.3624 -0.0240  0.0850
11373W        W27507  12.306  16.616  14.602 -0.0793  0.1474  0.0354
11374W        W27508  13.603   2.012  16.162 -0.1152 -0.0554  0.1650
11375W        W27509  15.284  11.741  12.341 -0.0052 -0.1340 -0.1367
11376W        W27510   4.914   7.311   1.838  0.0940 -0.1705  0.0501
11377W        W27511   8.585   4.661  15.843  0.1149  0.0209  0.1038
11378W        W27512  13.287   0.650  16.970 -0.2305 -0.1028  0.0777
11379W        W27513  15.623   0.534   5.716  0.0036  0.0443 -0.2041
11380W        W27514  16.643   2.472  15.004  0.0685  0.0341  0.3252
11381W        W27515   2.681   2.699   1.230 -0.3637  0.1303  0.1424
11382W        W27516   3.381   1.090  14.322 -0.4046 -0.2311 -0.2341
11383W        W27517  12.688   2.095   2.152  0.2018 -0.0485 -0.2082
11384W        W27518   7.900   8.806   1.994  0.1251  0.2563 -0.3084
11385W        W27519  11.707   7.714   4.364  0.1585  0.1267 -0.0236
11386W        W27520   9.089  11.834   2.207 -0.3992  0.0189 -0.1954
11387W        W27521  10.684   7.459   0.785  0.2849  0.1841  0.2337
11388W        W27522   1.257  13.138  13.101  0.2107  0.0939  0.2239
11389W        W27523  11.157  15.560  13.074 -0.1466 -0.1115 -0.0979
11390W        W27524  11.663   1.821  12.811  0.2724  0.1366  0.0859
11391W        W27525   3.562  12.766   1.171 -0.1515  0.1291  0.1211
11392W        W27526  12.351   9.890  11.954  0.0992  0.0247  0.2372
11393W        W27527  10.491   2.240  15.203  0.2001  0.0406 -0.0394
11394W        W27528   2.013  10.809   0.484  0.0059 -0.0801  0.0239
11395W        W27529   5.859  14.457  15.333 -0.3620  0.0151  0.0518
11396W        W27530   2.159   6.410  15.791 -0.0220  0.1286  0.2105
11397W        W27531   0.242   0.789   6.343 -0.0205 -0.0809  0.3410
11398W        W27532   3.211   4.433   3.892 -0.0288 -0.0602 -0.1612
11399W        W27533  16.579  17.003   5.831 -0.0427 -0.0068  0.0504
11400W        W27534   9.951  12.990  15.594  0.0109 -0.0165 -0.0334
11401W        W27535  12.225  14.049   4.070  0.1018  0.0239  0.1459
11402W        W27536  15.313  16.477  14.059 -0.0580  0.2796 -0.2765
11403W        W27537   3.765   2.026  14.268  0.0230  0.1143  0.1969
11404W        W27538   1.658  10.024  11.792  0.0638  0.4128 -0.1288
11405W        W27539   4.767   1.774   6.226 -0.0418  0.0578 -0.4695
11406W        W27540   4.205   9.296   4.974  0.1490  0.0253 -0.0131
11407W        W27541   5.944   0.961   3.525  0.2591  0.0777 -0.3837
11408W        W27542   3.010  14.994   3.783  0.1413 -0.1114 -0.1342
11409W        W27543   2.338   1.294  13.233 -0.0425  0.2135  0.0217
11410W        W27544   6.123   5.796  14.338 -0.2508  0.1336 -0.1187
11411W        W27545   6.684  17.559   0.052  0.2102 -0.0608  0.1471
11412W        W27546   0.728  14.100   1.155 -0.1065 -0.0200 -0.2362
11413W        W27547  12.996   9.677  13.143  0.2245  0.1369 -0.1115
11414W        W27548   4.649   5.960  16.629 -0.0399 -0.1802 -0.5531
11415W        W27549  10.984   8.352   1.914 -0.3557  0.2312  0.0523
11416W        W27550  13.770   7.686   3.149 -0.0589  0.0413  0.1186
11417W        W27551  16.125  15.242   3.348 -0.1200 -0.1534  0.0436
11418W        W27552  13.948   2.147  13.719 -0.0160 -0.1235 -0.0580
11419W        W27553   5.786   7.422   4.027 -0.0040 -0.2688 -0.3339
11420W        W27554   8.961   9.991  16.034 -0.0649  0.0232 -0.1178
11421W        W27555  10.162   7.221   1.842  0.1990  0.0605 -0.0072
11422W        W27556   8.314   3.362  11.877  0.0460 -0.0343  0.0068
11423W        W27557   8.662  14.649   5.822  0.3336  0.0108  0.0391
11424W        W27558  10.704  10.227   2.113  0.0351 -0.1573 -0.3795
11425W        W27559  13.632   9.633   0.058 -0.0070  0.2445 -0.0581
11426W        W27560  16.900  15.886  13.286 -0.0065 -0.3527 -0.2613
11427W        W27561   9.370   8.316  13.730  0.0940 -0.0992  0.0035
11428W        W27562   8.123   7.583   4.424 -0.3406  0.0582 -0.0470
11429W        W27563   7.383   8.736   1.206 -0.1155  0.0848 -0.2975
11430W        W27564   0.406  11.930  16.017 -0.1896 -0.3631  0.0525
11431W        W27565  16.012   4.603  13.161  0.0892  0.2191  0.1517
11432W        W27566   3.940   1.180  14.358 -0.1941 -0.4043  0.1059
11433W        W27567  13.879   4.638  16.804 -0.0853  0.4193 -0.1710
11434W        W27568  11.359   4.341   3.955 -0.1424 -0.3167  0.0982
11435W        W27569  11.801   9.675  12.990 -0.0801 -0.1469  0.2834
11436W        W27570  13.955   5.773   2.682  0.1547  0.5237  0.0011
11437W        W27571   8.795  11.565  15.402  0.0541 -0.0451 -0.0760
11438W        W27572  16.503  10.774   3.953  0.0120 -0.1892 -0.0577
11439W        W27573   1.230   1.211  17.178 -0.0602  0.1067  0.0515
11440W        W27574   2.359  14.612   5.860 -0.2252 -0.0073  0.0027
11441W        W27575  10.021   3.580   5.111  0.2781 -0.2154 -0.0001
11442W        W27576  12.496   2.857  13.412 -0.0794 -0.0138 -0.1826
11443W        W27577  13.481   7.950   4.604 -0.1395 -0.1226 -0.1896
11444W        W27578   5.083  11.700  16.447 -0.2256  0.1905  0.1155
11445W        W27579  16.849   6.196  15.724 -0.2371  0.0548  0.0764
11446W        W27580  13.749   2.393  10.851 -0.0465  0.2458  0.0806
11447W        W27581  17.377   9.732   2.934 -0.0147 -0.2904 -0.1333
11448W        W27582   4.252  10.285   5.416 -0.0106  0.2241 -0.1027
11449W        W27583  14.153   6.351   0.804  0.3511 -0.0643  0.1427
11450W        W27584  14.749   8.103  16.990  0.0120 -0.0048 -0.2691
11451W        W27585   2.155   2.044  15.419 -0.2059 -0.2381  0.1627
11452W        W27586  14.747   9.040  13.159 -0.3025 -0.1010  0.1989
11453W        W27587   7.271   4.728  15.750 -0.2210  0.0672 -0.1769
11454W        W27588  17.383  12.748  16.295 -0.0095 -0.0004 -0.1294
11455W        W27589   5.321  13.456  16.861 -0.2396  0.0280 -0.4235
11456W        W27590  13.609   6.797   3.177 -0.1405  0.3609  0.0303
11457W        W27591  10.826  15.980  12.779 -0.1940 -0.2022  0.1739
11458W        W27592  16.064   5.606  14.065 -0.1273  0.2612  0.2028
11459W        W27593   5.099   1.529   5.301  0.3235 -0.1618 -0.2323
11460W        W27594   6.990   4.510  12.856  0.2354 -0.0349  0.2927
11461W        W27595   7.519   7.884   3.622  0.1574 -0.4453  0.0394
11462W        W27596   4.998  13.744   5.229  0.0457 -0.0099 -0.3900
11463W        W27597  11.479  11.211   5.772 -0.2317  0.0027  0.3126
11464W        W27598   3.230  14.789   1.001  0.0180  0.2637  0.2261
11465W        W27599   5.964  17.531  12.697  0.2257 -0.3442  0.1128
11466W        W27600   0.530  12.690  15.674 -0.0337  0.3132 -0.0916
11467W        W27601   2.213   4.463  17.109 -0.1361  0.2266 -0.0689
11468W        W27602   1.995   3.582   1.029  0.0511 -0.1875  0.2890
11469W        W27603  11.823  17.051  15.695  0.0381 -0.0493  0.0161
11470W        W27604   6.593   5.424  16.806  0.1799  0.0288 -0.2429
11471W        W27605  17.344  15.483   6.562  0.0860 -0.0831 -0.3761
11472W        W27606   7.123   9.683   5.575 -0.2501  0.1054  0.0136
11473W        W27607   7.236  10.136   2.410  0.0764 -0.2066 -0.1963
11474W        W27608   0.426   7.802  14.343 -0.1450  0.1187  0.1072
11475W        W27609   4.433  14.101   1.429 -0.1254  0.0798  0.0970
11476W        W27610   8.051   1.084  11.751  0.3429 -0.3467 -0.1145
11477W        W27611   6.982   3.885  15.882  0.1589  0.1904  0.0154
11478W        W27612  15.459   4.033  15.746 -0.1116  0.0249 -0.0804
11479W        W27613  14.026   3.099   4.713 -0.2550  0.1048  0.0909
11480W        W27614   8.515  15.043   2.069  0.1582  0.1479 -0.0716
11481W        W27615  15.184   0.299   5.786 -0.3233  0.0113  0.2890
11482W        W27616   2.965  13.719   0.347  0.0915  0.0058  0.1697
11483W        W27617  15.067   2.049   5.440 -0.0567  0.0959  0.0796
11484W        W27618  14.984  10.297   0.098  0.0523 -0.2482  0.1724
11485W        W27619  16.174  12.016  12.058 -0.1533  0.2355 -0.0284
11486W        W27620   1.905  10.702  15.390  0.0844 -0.1735 -0.0306
11487W        W27621   5.892   9.988   3.877  0.3557  0.1607  0.1091
11488W        W27622  16.768  13.471  14.683 -0.0036  0.0034 -0.0631
11489W        W27623   4.114  10.133  16.180 -0.2034  0.0637  0.1563
11490W        W27624  12.103   0.931   1.487 -0.1217  0.0740  0.0477
11491W        W27625   7.426   0.600  15.631 -0.4371  0.5003 -0.2389
11492W        W27626   2.632   7.054   1.932  0.1710 -0.0738 -0.2132
11493W        W27627   7.409  12.471  15.165  0.0346 -0.1818 -0.0808
11494W        W27628   9.302  17.172  16.871  0.2540 -0.0535  0.2276
11495W        W27629   4.153   1.208   2.094  0.0099  0.1245 -0.0228
11496W        W27630  10.846  12.188   1.769  0.0907 -0.0305  0.0333
11497W        W27631  10.693  10.949  15.611  0.2787  0.0211 -0.0990
11498W        W27632  12.065   5.009   5.268 -0.0061 -0.1099 -0.1122
11499W        W27633   1.996   9.027   1.169  0.0531  0.0263  0.1448
11500W        W27634   0.056   5.560   2.388 -0.1332  0.1166  0.2636
11501W        W27635   3.655  17.137  16.971 -0.1124  0.1520  0.1550
11502W        W27636   4.218  12.040   0.325 -0.1910 -0.2837 -0.1013
11503W        W27637  17.286  15.600   5.048  0.1132 -0.1454  0.2608
11504W        W27638  12.780  11.866  14.754  0.2185 -0.1957 -0.1160
11505W        W27639  17.521   9.931  16.895  0.0038 -0.2239 -0.0721
11506W        W27640  16.501   3.698   2.507  0.0664 -0.3742 -0.3373
11507W        W27641   2.083   9.496  15.950 -0.1411  0.0902  0.3223
11508W        W27642  12.756   9.932   2.982  0.0692 -0.1049 -0.0282
11509W        W27643  13.468   5.191  14.318  0.0989 -0.0895 -0.0752
11510W        W27644  14.372   9.594   3.480 -0.2691 -0.0458  0.2033
11511W        W27645   2.986   3.810  15.743  0.4238  0.3320 -0.2034
11512W        W27646   2.601  15.027  11.998  0.3372 -0.1453  0.0658
11513W        W27647  14.967   5.603   6.038 -0.1797  0.2651  0.0415
11514W        W27648   1.780   6.700  14.797 -0.0415 -0.0567  0.0459
11515W        W27649   9.545   7.124   4.690 -0.0249 -0.0252 -0.1886
11516W        W27650  10.771  14.189   1.825  0.0068  0.0186 -0.3054
11517W        W27651  16.346  12.313  12.417 -0.0575  0.2431  0.4093
11518W        W27652   0.426   5.693  15.227  0.1460 -0.0290  0.2998
11519W        W27653   1.819  11.270   0.901 -0.0110  0.1322 -0.2231
11520W        W27654   4.307   4.659   6.878 -0.0391  0.0406  0.0518
11521W        W27655   4.784  14.634  13.506  0.2464 -0.2199  0.1297
11522W        W27656   5.122   5.624   0.382 -0.0560 -0.0596 -0.0063
11523W        W27657   8.086  15.549  14.654  0.2724  0.2192  0.1230
11524W        W27658  12.633   5.730  11.550  0.1216 -0.1284  0.0393
11525W        W27659   3.567   9.969   4.673  0.0052  0.1010 -0.1514
11526W        W27660  10.397   0.133   1.012  0.4382 -0.1105  0.2818
11527W        W27661   5.763   3.097   5.234  0.1583 -0.3717  0.0028
11528W        W27662   7.642  16.916   0.834 -0.0258 -0.0466 -0.1288
11529W        W27663   0.292   8.197  15.616 -0.3103 -0.0954 -0.1545
11530W        W27664  10.229   5.479   3.366 -0.1589 -0.1946  0.1033
11531W        W27665  17.023   4.693   3.458  0.0171  0.3057 -0.1565
11532W        W27666  12.887   4.423   4.117  0.0480 -0.2997  0.1245
11533W        W27667   1.710  16.339   2.010 -0.4071  0.3763 -0.0421
11534W        W27668   4.474   0.006   1.304  0.1698 -0.1522 -0.3415
11535W        W27669  14.333  10.459  13.756  0.1126 -0.0160 -0.1790
11536W        W27670   5.570  14.806  14.054  0.0523  0.1775 -0.1724
11537W        W27671  16.804  13.751  13.640 -0.0743 -0.1449 -0.0135
11538W        W27672   2.336  10.358  11.552  0.1961 -0.1184  0.2328
11539W        W27673  14.594   6.474   4.441 -0.1163 -0.2604  0.0196
11540W        W27674  10.273   5.832   2.461 -0.0061  0.1474 -0.0866
11541W        W27675  14.827  12.772   1.510 -0.0779  0.4224  0.0288
11542W        W27676   4.593   0.296  14.102  0.0404 -0.0853 -0.0754
11543W        W27677   8.237   6.025   5.841 -0.2924  0.1648  0.1110
11544W        W27678   2.586   3.111   1.538 -0.0517  0.3250 -0.2075
11545W        W27679  17.331   5.990  14.654 -0.0568  0.0432  0.1017
11546W        W27680   9.812   7.598   2.525 -0.0218 -0.0679  0.4393
11547W        W27681  17.606   9.379   3.949 -0.0698 -0.1174  0.0152
11548W        W27682  10.620  12.059  14.745  0.0459 -0.1425 -0.0020
11549W        W27683  14.894  11.685   1.673  0.0155 -0.0532  0.1083
11550W        W27684  11.416  15.477  12.649  0.1060  0.4625 -0.0128
11551W        W27685  13.002   9.800   2.071  0.0487 -0.0948  0.2171
11552W        W27686  13.185   3.151   2.922 -0.0428  0.0922  0.0955
11553W        W27687  15.355   3.347   3.111  0.0886  0.0388  0.1363
11554W        W27688   4.878   9.987  12.613  0.3090 -0.2703 -0.1734
11555W        W27689  13.741  17.114  16.089 -0.3079  0.0622 -0.1777
11556W        W27690   6.590   8.473  11.572  0.1482 -0.0399  0.2644
11557W        W27691   1.104   2.502  11.635  0.0552 -0.0089  0.1210
11558W        W27692   3.297   7.180  11.438  0.3550 -0.1803  0.1767
11559W        W27693  10.906  13.089   1.763  0.0301  0.0358 -0.0464
11560W        W27694  14.737  15.588  16.109 -0.1406  0.0317  0.3977
11561W        W27695   2.258  15.689  15.703  0.3267 -0.0514 -0.0435
11562W        W27696   8.238  14.861   5.024  0.0753  0.0860 -0.0358
11563W        W27697   8.242   6.015   1.932  0.0147  0.0978  0.3567
11564W        W27698  15.146   6.074   1.628 -0.3741 -0.3229  0.5323
11565W        W27699  15.709   4.116   0.920 -0.1841  0.0534 -0.0444
11566W        W27700   5.881   1.125   1.603 -0.0959 -0.0185 -0.1590
11567W        W27701   1.321  14.438   1.780  0.0686 -0.1061  0.0784
11568W        W27702   3.062  12.183   4.434 -0.0759 -0.3320  0.1271
11569W        W27703  10.104  15.447  12.751  0.2098  0.3116 -0.2228
11570W        W27704  12.603   8.340  15.918  0.1886  0.1901  0.0372
11571W        W27705  16.998   3.014   1.550  0.1119  0.2931 -0.1947
11572W        W27706  14.405   0.048  14.855 -0.2460  0.2092  0.1826
11573W        W27707   8.941   6.311   4.407 -0.0661 -0.1413 -0.2702
11574W        W27708   6.087  12.031   5.816  0.1659  0.1243 -0.1842
11575W        W27709   5.660  15.292   4.211  0.0457 -0.0500  0.1762
11576W        W27710   4.456   1.493   5.464 -0.4925  0.0546 -0.1083
11577W        W27711   2.360  16.892   1.899  0.2329  0.1318  0.0100
11578W        W27712  16.270  12.442   5.190  0.2629 -0.0164  0.1870
11579W        W27713   0.978  10.437  17.028  0.1682 -0.2722 -0.1727
11580W        W27714   9.330   1.636  11.657  0.2885 -0.1760  0.1562
11581W        W27715   6.713  16.701   0.268  0.2007 -0.0085 -0.0632
11582W        W27716   6.860   4.175  11.907  0.1247  0.2740 -0.3158
11583W        W27717   9.719  12.589   1.354  0.0696  0.0686 -0.0661
11584W        W27718   5.753   1.294   3.863  0.1539  0.0506 -0.0109
11585W        W27719  15.317   1.890  13.085  0.3754  0.0511 -0.3110
11586W        W27720  15.679   1.451   5.658 -0.0889 -0.0288 -0.1330
11587W        W27721  12.074  13.495   1.670 -0.0001  0.1723 -0.1045
11588W        W27722  10.794  15.425  13.982 -0.1019 -0.1080 -0.0730
11589W        W27723   9.861   7.984  12.084 -0.3388 -0.0069  0.1218
11590W        W27724   9.399  16.729   0.757 -0.1098 -0.2175  0.1441
11591W        W27725   7.583   2.205   0.349 -0.1367  0.1678  0.2418
11592W        W27726   9.383   3.920  11.222  0.0669 -0.2168 -0.1362
11593W        W27727  17.501  10.858  13.652 -0.0841 -0.3210  0.0377
11594W        W27728   6.871   2.532  12.864  0.0436 -0.2642  0.3330
11595W        W27729  17.175   4.248  11.943  0.0373 -0.0664  0.0059
11596W        W27730   7.336  16.440  16.800 -0.0195 -0.0594 -0.1104
11597W        W27731   5.264   1.989   0.780  0.1182 -0.1434  0.2721
11598W        W27732   2.533   3.549   0.810  0.1476 -0.2284 -0.1036
11599W        W27733  15.005  15.192  13.601 -0.1323  0.0653  0.0795
11600W        W27734   9.836  12.165  13.822 -0.0289  0.2392 -0.1209
11601W        W27735   2.204  11.429   2.935  0.0720 -0.1177  0.1155
11602W        W27736   1.289  13.962  17.028 -0.0335  0.1267 -0.1803
11603W        W27737   7.214  14.418   1.024 -0.1512  0.0183  0.2786
11604W        W27738  16.016   7.700  14.417  0.0967  0.1961  0.0885
11605W        W27739  12.356   8.271   0.908 -0.2044 -0.0866 -0.1268
11606W        W27740   5.579  14.013   1.122 -0.3495 -0.0595  0.1365
11607W        W27741   6.097  15.068   4.011  0.2055  0.0214  0.0839
11608W        W27742   8.524  16.003  12.857 -0.3322  0.1590 -0.1220
11609W        W27743   7.285   7.723   2.804  0.0317 -0.1304  0.2169
11610W        W27744   5.437  14.370  16.236  0.1799  0.2276  0.1041
11611W        W27745  16.028  11.303   0.861 -0.2647 -0.0792  0.1878
11612W        W27746  14.064   8.351   3.775 -0.0114 -0.0743  0.0667
11613W        W27747  13.007  17.428   3.488  0.0118  0.0227 -0.1946
11614W        W27748  14.908   2.019   3.040 -0.0932  0.0553  0.2337
11615W        W27749   5.232  11.622  14.087 -0.1214  0.1287  0.0578
11616W        W27750   5.547   3.878   2.970 -0.2042  0.0605  0.1170
11617W        W27751   6.582  11.803  15.688  0.0550 -0.0070  0.1896
11618W        W27752  16.763   8.903  16.745 -0.0120 -0.2774  0.1853
11619W        W27753  15.167   4.610  16.134 -0.0621  0.0775 -0.0232
11620W        W27754   6.644   0.542   5.331  0.0602 -0.0281 -0.1623
11621W        W27755  10.606   2.424  13.319 -0.0611 -0.0761 -0.0652
11622W        W27756  11.661  10.956   3.633  0.0409  0.0412 -0.2428
11623W        W27757   3.657  11.852  14.511 -0.1539  0.2602 -0.0684
11624W        W27758   2.371  15.668   1.153  0.2226  0.0648  0.0419
11625W        W27759   0.430   2.006  16.047 -0.0337  0.2239  0.2538
11626W        W27760   1.088   4.436  16.448 -0.1717 -0.2620 -0.0951
11627W        W27761  17.136  17.163   4.793  0.1973 -0.0968 -0.0676
11628W        W27762  16.630  12.946  10.731  0.1287 -0.0128 -0.1981
11629W        W27763   9.288   1.794  14.547 -0.1713 -0.1231  0.0115
11630W        W27764  10.325   5.815  14.813 -0.2173 -0.1357 -0.3080
11631W        W27765   3.867   8.896   4.113 -0.0287  0.2319 -0.4530
11632W        W27766  10.509   4.994   1.570  0.0077 -0.2605  0.0521
11633W        W27767  11.312   0.179   5.279 -0.0274 -0.0229 -0.1690
11634W        W27768   1.802   1.098   5.252 -0.3533 -0.2945  0.2916
11635W        W27769   8.910   3.860   0.512 -0.2735  0.0798 -0.1151
11636W        W27770  14.066   8.956  14.921  0.0206  0.0305  0.0827
11637W        W27771   6.336   3.758   0.160  0.1346  0.2208 -0.0965
11638W        W27772   9.534   3.630   4.298  0.0206  0.1417  0.0625
11639W        W27773  17.468   4.669   2.183  0.0323  0.1525  0.1040
11640W        W27774  12.224  16.785   0.276  0.0243  0.0625  0.1295
11641W        W27775   5.171   5.213   3.669  0.2470 -0.0625 -0.1330
11642W        W27776  15.302  17.503  12.540 -0.0179 -0.0170  0.4042
11643W        W27777   8.500  10.555   1.368  0.0924  0.4064 -0.0769
11644W        W27778   1.262  12.143  12.268 -0.2184  0.0898 -0.2227
11645W        W27779  16.964   5.590   3.385 -0.0468  0.0572 -0.2261
11646W        W27780   8.974  13.944  13.629  0.2944  0.1664  0.0466
11647W        W27781   2.167   0.612   3.157  0.2294  0.1092 -0.0382
11648W        W27782   8.858  10.221  11.189  0.0066 -0.3708  0.2423
11649W        W27783  16.982   0.127   3.481 -0.1851 -0.2301 -0.3363
11650W        W27784  12.158   0.801  14.947 -0.2137  0.0097  0.1406
11651W        W27785   1.251   7.792  15.358 -0.1883 -0.1448  0.0335
11652W        W27786  16.674   7.428  14.776  0.0941  0.0560 -0.0269
11653W        W27787  14.712  17.276  12.388  0.0090  0.0365 -0.1650
11654W        W27788  10.682  11.317   1.242 -0.2312  0.2835 -0.3720
11655W        W27789   8.559   5.600  11.852  0.0776 -0.1574  0.2346
11656W        W27790  14.886  12.921  15.600 -0.1235 -0.0886  0.2044
11657W        W27791   7.611   6.064   0.547 -0.1977 -0.2993  0.4446
11658W        W27792   4.995  15.941   2.874  0.1108  0.1208 -0.0922
11659W        W27793   3.163  11.583   5.096 -0.0983 -0.2167  0.2448
11660W        W27794  10.328  14.756   2.205  0.1526  0.2757 -0.0182
11661W        W27795  11.871  16.471  12.432  0.1528 -0.2550 -0.1578
11662W        W27796   6.260  13.225   3.148 -0.1509 -0.0577 -0.3347
11663W        W27797   6.039  12.126  16.269 -0.1217  0.1090 -0.1647
11664W        W27798  17.652  17.543  13.125  0.0508  0.4130 -0.3241
11665W        W27799  12.969  12.139   5.145  0.0095 -0.0832  0.4424
11666W        W27800  12.034   5.263  14.362 -0.1780 -0.2654 -0.2122
11667W        W27801   0.370   9.017   2.615 -0.2304 -0.0897 -0.0684
11668W        W27802   8.610   9.121  12.480 -0.3744 -0.0880 -0.1653
11669W        W27803  17.588  10.387   2.372  0.2852  0.0608 -0.0452
11670W        W27804  10.679   9.019   3.842  0.1044 -0.1941  0.0852
11671W        W27805   8.966   2.821  12.985  0.1341  0.0257 -0.1070
11672W        W27806   0.149  12.888   2.728 -0.0574 -0.5260  0.3302
11673W        W27807   5.539  10.688  14.074  0.1581  0.3111 -0.1440
11674W        W27808   5.502   9.352   3.249  0.1476  0.1688 -0.2449
11675W        W27809   5.119  14.660   3.922  0.0366  0.0502  0.0641
11676W        W27810   8.529  17.329  16.261 -0.0953  0.1070 -0.0255
11677W        W27811   4.171   5.989   5.373  0.0657 -0.1436 -0.0121
11678W        W27812   2.691   1.257  17.022  0.0949  0.3025 -0.0576
11679W        W27813   4.404   8.404   2.521  0.0046  0.1712 -0.0394
11680W        W27814   7.143  11.786   0.165  0.0160 -0.0305 -0.1615
11681W        W27815  10.194   6.577   4.376 -0.4259 -0.1160 -0.3163
11682W        W27816   1.829  13.214   3.414 -0.1546 -0.1609  0.1316
11683W        W27817  13.795   2.200   3.193 -0.0161  0.0148  0.4564
11684W        W27818  17.265   1.862  13.602  0.0448 -0.1373  0.2229
11685W        W27819  15.735  15.568   2.648  0.1479 -0.1363 -0.0200
11686W        W27820   1.562   5.675  16.142 -0.0205 -0.3307  0.2022
11687W        W27821  13.538  14.888   3.368  0.3768 -0.3506 -0.0330
11688W        W27822   2.509  11.775   1.264 -0.1259  0.2769  0.2135
11689W        W27823   1.633  15.889   1.756 -0.2937 -0.1144  0.2833
11690W        W27824  13.795   4.130  12.785 -0.1443  0.1542  0.0183
11691W        W27825   7.885  13.157   4.205 -0.0074  0.0718  0.1221
11692W        W27826  14.694  11.502  15.439  0.2415  0.0176  0.1621
11693W        W27827   5.853   1.689  14.874 -0.1299 -0.4013 -0.2125
11694W        W27828   0.513   1.916  12.120  0.0521 -0.2085 -0.1588
11695W        W27829   7.784   1.819   0.723 -0.2040  0.3426  0.1208
11696W        W27830   7.296   8.646   5.266  0.3565 -0.1201 -0.1000
11697W        W27831  11.698   1.242   0.209  0.2070  0.2380  0.2000
11698W        W27832  14.919   8.005   2.803 -0.1142 -0.2908 -0.0048
11699W        W27833  12.394  13.817   1.327 -0.1104  0.0910  0.0334
11700W        W27834  11.031  15.159  12.574  0.0703 -0.2226  0.1665
11701W        W27835  17.023   9.169  15.449  0.1053  0.1051 -0.2318
11702W        W27836  13.179   0.410   1.040  0.0417  0.2022 -0.1988
11703W        W27837   1.761  11.972  12.256  0.4182 -0.0197  0.1437
11704W        W27838  14.554   7.145  16.814  0.1301 -0.1685 -0.0248
11705W        W27839  16.126   8.752  12.743  0.2815  0.3169  0.1666
11706W        W27840  16.025   0.201  15.065  0.1553 -0.0901 -0.1303
11707W        W27841   6.727  15.128   4.786  0.2685 -0.3306  0.3543
11708W        W27842   7.185  10.569  15.897 -0.1156  0.2002  0.0160
11709W        W27843   2.626  13.992   5.332 -0.2169  0.1516 -0.0744
11710W        W27844   4.176  10.283   3.518  0.0974 -0.2141 -0.1867
11711W        W27845  13.534   9.233   5.634  0.1403  0.0631 -0.2267
11712W        W27846  10.619  12.775   0.544  0.2714  0.0255 -0.0266
11713W        W27847   7.704   1.788  16.440  0.1816  0.0456  0.4303
11714W        W27848  10.940  14.198  14.847 -0.2054 -0.0543  0.2475
11715W        W27849   6.551  10.644  13.328 -0.0012  0.1722 -0.2547
11716W        W27850  11.263  11.068   5.373 -0.0099 -0.1290  0.0185
11717W        W27851   9.795   9.183   3.967 -0.4420 -0.0352  0.2121
11718W        W27852  14.135   6.299   5.883 -0.0023  0.0533  0.1162
11719W        W27853   1.928   8.428   3.344 -0.0246  0.0679 -0.0082
11720W        W27854   7.782   0.394   4.766 -0.0718  0.0703  0.1557
11721W        W27855  11.220  10.069  14.470  0.1177 -0.1348 -0.0573
11722W        W27856  13.506   4.439  13.639 -0.2718  0.1943  0.1528
11723W        W27857   6.604  11.213   2.127 -0.0242  0.1416  0.0933
11724W        W27858  15.917   0.198  13.306  0.0244 -0.0535 -0.1023
11725W        W27859  13.256   6.144  15.293  0.1423 -0.0734  0.3148
11726W        W27860   8.240  15.470   4.273 -0.2743  0.2448 -0.2876
11727W        W27861  10.556   2.913   2.709  0.2365  0.1414 -0.0816
11728W        W27862   2.911   6.731   2.753  0.2866 -0.0499 -0.1398
11729W        W27863   6.551   2.909   3.824 -0.0450 -0.0386 -0.2541
11730W        W27864   7.503  15.718  12.506 -0.1433 -0.2296  0.0622
11731W        W27865   9.976   3.563  14.521  0.2082  0.2214  0.4041
11732W        W27866  11.410   2.683  15.689  0.1197  0.1830  0.0449
11733W        W27867   7.705   6.884   0.275 -0.0163  0.3200 -0.0783
11734W        W27868  15.217   3.327   4.445  0.2077  0.0475  0.0855
11735W        W27869  10.610   7.563   5.387  0.1988  0.1130  0.3130
11736W        W27870   1.145   5.819  12.301  0.2622 -0.1220 -0.1280
11737W        W27871   1.504   2.287  13.457 -0.2464 -0.0906  0.2200
11738W        W27872   4.374   7.895   2.979 -0.0149 -0.2016  0.0407
11739W        W27873   8.810   1.763  11.618  0.1584  0.0963  0.0408
11740W        W27874   1.802   4.406   0.235  0.0808  0.0105  0.0565
11741W        W27875   9.345  16.720  15.299  0.3387 -0.1716  0.1223
11742W        W27876  16.274   4.356   3.357  0.0297  0.0020  0.0369
11743W        W27877   4.743   6.778   2.120 -0.1362 -0.1852  0.1692
11744W        W27878   5.565  10.416  16.749 -0.0508 -0.1125 -0.2019
11745W        W27879   5.484   6.319   5.522  0.0861  0.0163  0.2363
11746W        W27880  10.716  12.690  16.770 -0.2930 -0.0825  0.0322
11747W        W27881  14.391   3.180  16.994  0.0505 -0.3580  0.3859
11748W        W27882   9.950   7.476  13.635 -0.0200 -0.0290 -0.1209
11749W        W27883   6.591   3.273   4.184  0.0450  0.0932 -0.0607
11750W        W27884   9.714  13.038   4.848 -0.0197 -0.4221 -0.3490
11751W        W27885  16.810  12.438  14.143  0.0646 -0.1298 -0.1850
11752W        W27886  12.305   2.450  15.739 -0.0600  0.0553  0.1054
11753W        W27887   7.574   7.148  11.176 -0.3095  0.0731 -0.3762
11754W        W27888   3.753   5.003   1.831 -0.1153  0.0146  0.0855
11755W        W27889   1.095  16.918  15.099  0.2436 -0.0574  0.1053
11756W        W27890   8.675  15.682  13.921 -0.0910 -0.0265 -0.2492
11757W        W27891   3.538  17.289   1.510 -0.0134 -0.0649 -0.1113
11758W        W27892  12.625   0.323  14.154 -0.2910 -0.3202  0.0824
11759W        W27893  14.455   6.842   0.042  0.2722  0.3286  0.3664
11760W        W27894  10.152   5.036   3.526 -0.1512 -0.0479 -0.0702
11761W        W27895   1.077  12.059  15.969  0.0300 -0.0937  0.2038
11762W        W27896   3.405  12.680  16.005  0.1271 -0.0468  0.1522
11763W        W27897   1.868  14.632   0.361  0.0180 -0.0171  0.2718
11764W        W27898  15.365   0.383   4.913 -0.0993 -0.1374  0.3936
11765W        W27899  17.434  11.953   0.856 -0.0596 -0.1119 -0.2278
11766W        W27900  17.595  12.044  12.945  0.3077 -0.0085  0.0246
11767W        W27901  12.057  10.896  14.601  0.2183  0.0860  0.0790
11768W        W27902  17.306   2.975   1.092 -0.0468 -0.1960 -0.1696
11769W        W27903  10.612   0.811  12.480 -0.2930  0.0863 -0.1467
11770W        W27904   9.033  15.560   5.447 -0.2153  0.1335  0.0863
11771W        W27905  10.406  11.362  12.729  0.0036 -0.1431  0.2529
11772W        W27906  12.912  12.704   0.698 -0.1174  0.0697  0.3381
11773W        W27907   8.987   8.120   5.779  0.0462  0.1322 -0.0472
11774W        W27908   3.378  11.128  15.141  0.0556 -0.2565 -0.1533
11775W        W27909  12.034  16.058  14.011  0.0272 -0.0283  0.2954
11776W        W27910  15.140   9.908   4.955  0.0769 -0.1626  0.0898
11777W        W27911   5.561   7.187   6.205 -0.2367 -0.0209  0.0002
11778W        W27912   2.153  15.817   3.959 -0.0486 -0.0214 -0.0262
11779W        W27913   4.586   3.649  12.205 -0.1520  0.0206  0.0145
11780W        W27914   2.491  10.610   0.450 -0.1506  0.0337 -0.0994
11781W        W27915   9.669   2.644  14.880 -0.0312  0.0004  0.0232
11782W        W27916   3.787  10.400  17.156 -0.2807  0.0735  0.1569
11783W        W27917  12.921  11.976  16.837  0.1411  0.0128  0.1620
11784W        W27918  11.526  16.047   3.313 -0.1010 -0.0747 -0.0058
11785W        W27919   7.309   5.138   5.417  0.0024 -0.1843 -0.2774
11786W        W27920  13.835   6.739   1.464  0.1605  0.0408 -0.1369
11787W        W27921  13.213  12.910   5.515 -0.0840  0.0538  0.0266
11788W        W27922  11.151   9.079   3.957  0.0209 -0.3268  0.0675
11789W        W27923  10.619  12.237   3.040  0.3533  0.0249 -0.0980
11790W        W27924  15.797   5.569  13.219 -0.2504  0.1635  0.1164
11791W        W27925  17.122  16.512   1.679  0.0505 -0.1101 -0.1423
11792W        W27926  11.071  15.397   2.158 -0.2320 -0.0560  0.3792
11793W        W27927   1.244   5.108   4.385  0.1409  0.0049  0.0937
11794W        W27928  15.773   1.709  13.209  0.0058  0.1748 -0.1296
11795W        W27929  12.452  13.388  15.174  0.1950  0.1435  0.0137
11796W        W27930  13.665   5.445  12.814 -0.0633  0.0484  0.0463
11797W        W27931   6.548   2.727  12.450  0.0801 -0.0718 -0.0226
11798W        W27932  17.432   4.222  14.055  0.0541 -0.0346 -0.0114
11799W        W27933   1.352  14.658   3.492 -0.0831  0.1207 -0.0333
11800W        W27934   4.709  17.181  16.909  0.2428 -0.2358 -0.1465
11801W        W27935   8.214   4.022   6.158  0.0794 -0.0245 -0.0927
11802W        W27936   6.667   2.101  13.185  0.3126  0.1888 -0.3508
11803W        W27937   5.000  11.388   1.626 -0.0764  0.1885  0.2851
11804W        W27938  16.358  12.354   2.765  0.0374 -0.2351 -0.2961
11805W        W27939   5.984  13.109  12.498  0.0591  0.0813  0.3159
11806W        W27940  15.622  14.800   2.904 -0.1724 -0.2552 -0.1239
11807W        W27941  12.015  12.134   0.729  0.0515  0.0895 -0.1967
11808W        W27942   0.780   7.811   0.833  0.0199  0.1902  0.0991
11809W        W27943  10.822  16.098   2.316  0.0767  0.2038  0.0584
11810W        W27944  12.047  14.884  13.457  0.0525  0.0879 -0.0342
11811W        W27945  16.260   5.323  13.258  0.0359  0.1459 -0.0549
11812W        W27946  11.276   7.796   1.215 -0.0066 -0.1682  0.2993
11813W        W27947   1.639  13.391   5.341  0.1097 -0.0709  0.0470
11814W        W27948   1.406  14.026  15.373  0.1866  0.2863  0.0339
11815W        W27949  11.332   1.933   0.539 -0.0930  0.0173  0.0286
11816W        W27950   1.885   6.745   4.565 -0.0242 -0.0305 -0.0716
11817W        W27951  11.753  16.842  12.781 -0.0519 -0.2735 -0.1446
11818W        W27952   3.806  17.645   5.744 -0.0621 -0.0395  0.2002
11819W        W27953  12.177   8.003  13.955 -0.1038  0.0900 -0.3530
11820W        W27954  16.885  12.446  15.127 -0.1454 -0.1122 -0.1479
11821W        W27955  12.783   2.328  16.396  0.0076  0.3607  0.0269
11822W        W27956   0.863  13.761  16.048 -0.0203  0.1025  0.1087
11823W        W27957   4.248   5.794  14.529  0.0957  0.3108  0.1725
11824W        W27958   1.506   0.915   1.824  0.0591 -0.0271 -0.1998
11825W        W27959   4.736  10.397  12.873 -0.3183  0.0878  0.1269
11826W        W27960  14.684  11.844   0.641 -0.0037 -0.1694  0.5687
11827W        W27961  13.349  15.663  15.748  0.0359  0.1117 -0.2395
11828W        W27962   7.999   9.419   5.368 -0.0474  0.1733 -0.0048
11829W        W27963  13.258  10.790   5.834 -0.1303  0.0625  0.0325
11830W        W27964  13.951   7.510  13.567 -0.0800 -0.0153 -0.0979
11831W        W27965  12.170  13.081   5.628  0.0609  0.1467  0.1676
11832W        W27966   7.468   4.125   3.467 -0.0962  0.0034  0.3039
11833W        W27967   8.244  12.707  14.588 -0.0071 -0.2375  0.0816
11834W        W27968  13.511   8.946   2.238 -0.1040 -0.1005  0.0249
11835W        W27969  10.817   4.226   2.496  0.0156 -0.2051 -0.2085
11836W        W27970  14.099  16.432  14.532  0.0554  0.2288 -0.2819
11837W        W27971  15.245   2.716  14.428  0.2778 -0.2077 -0.1778
11838W        W27972   6.429   4.064   4.301  0.3744 -0.1409 -0.0359
11839W        W27973   3.310   8.538   1.471  0.2140  0.0858  0.0447
11840W        W27974   8.752   1.450  14.610 -0.1422 -0.3121  0.0219
11841W        W27975  14.654  12.201   0.271 -0.3500 -0.0572 -0.2216
11842W        W27976  16.045  16.580   0.246  0.0198  0.1287  0.0734
11843W        W27977  12.823   9.007   5.576 -0.2381 -0.1369 -0.1381
11844W        W27978   4.466   8.790  13.663  0.3227  0.2324  0.2123
11845W        W27979   9.065   8.084   2.381 -0.1753 -0.3237 -0.1486
11846W        W27980  16.418   5.592   1.186 -0.0017 -0.0840 -0.1943
11847W        W27981   6.365  12.077  16.746  0.0372  0.3229  0.2199
11848W        W27982   3.657   5.530  11.786  0.0270  0.2917 -0.0864
11849W        W27983  15.167   0.287   2.797  0.1063 -0.0323  0.3370
11850W        W27984   3.544   5.387  15.199 -0.1101  0.1758 -0.0769
11851W        W27985   8.179   2.638  13.327 -0.3061 -0.0536 -0.1772
11852W        W27986   6.251   9.140  13.413 -0.1566  0.0848 -0.1480
11853W        W27987   6.287   8.965  13.935 -0.2573  0.0324 -0.3653
11854W        W27988   8.952   1.159   1.447 -0.1752 -0.0551  0.1742
11855W        W27989  16.222   3.561  14.836  0.1991  0.2522 -0.0233
11856W        W27990  12.434  10.692   2.431  0.2172  0.0349  0.3430
11857W        W27991   8.244  17.278  13.114  0.4227  0.0282  0.1853
11858W        W27992   1.114  11.375   1.391 -0.1305 -0.3169 -0.2653
11859W        W27993  13.069  10.998  12.887 -0.0295  0.1071  0.3192
11860W        W27994  14.410  15.851   2.077 -0.0010  0.2915  0.1021
11861W        W27995   6.485   8.046   0.966 -0.0934  0.1024 -0.1704
11862W        W27996   5.187   0.876   0.293 -0.1849  0.3434 -0.1052
11863W        W27997  16.477   8.119  16.915 -0.1525  0.1318 -0.1994
11864W        W27998   6.398   7.196   0.536  0.1340  0.2590 -0.0387
11865W        W27999  14.392  11.103  17.155  0.2246 -0.0135  0.0216
11866W        W28000   2.583  15.509  13.210  0.0117  0.0069  0.1097
11867W        W28001   4.541   7.824   0.568  0.0769 -0.2080  0.0995
11868W        W28002   9.959  11.741  12.817 -0.0648 -0.0442  0.1750
11869W        W28003  12.906   1.449  15.275  0.0759 -0.2957 -0.1757
11870W        W28004  13.599   1.648   1.448 -0.0625 -0.2458  0.1719
11871W        W28005  15.945  12.685   2.498  0.1657 -0.2676  0.0302
11872W        W28006  12.191  16.728  15.721  0.1391 -0.0633  0.1765
11873W        W28007   3.851  10.775  13.338  0.0154 -0.1032  0.1188
11874W        W28008   9.539   0.169  13.332 -0.1080  0.2054 -0.1924
11875W        W28009  16.668   3.497  16.133 -0.0444 -0.2101  0.1594
11876W        W28010   0.598   5.070  15.733 -0.0307  0.2042 -0.1727
11877W        W28011  10.631   9.330  15.929 -0.3186 -0.4600 -0.1305
11878W        W28012  13.270  16.791   4.617  0.1486  0.0202  0.2463
11879W        W28013   6.858  11.036  11.925 -0.0245  0.1684 -0.1349
11880W        W28014   2.572   3.500  14.234 -0.0978  0.0399 -0.0058
11881W        W28015   5.719   6.876   4.241  0.0654 -0.1548 -0.2494
11882W        W28016  14.645  16.037   6.383  0.1896 -0.4548  0.0024
11883W        W28017   0.042   5.421   4.597  0.3186  0.1428  0.0781
11884W        W28018  16.271  12.536   0.238  0.1788  0.1492 -0.0380
11885W        W28019  15.384   0.402  13.150 -0.1825  0.2208 -0.0525
11886W        W28020  12.137  16.676   2.980 -0.0316  0.0199  0.0478
11887W        W28021  13.799   7.365   4.076  0.3047  0.0474  0.1370
11888W        W28022  15.002   3.028   4.780 -0.0284  0.0809  0.0870
11889W        W28023  14.328   4.590   4.203  0.2578 -0.1658 -0.2075
11890W        W28024   3.402   9.702  17.178  0.0768 -0.1269  0.0980
11891W        W28025  15.514  12.645   2.731 -0.3212  0.1462  0.0437
11892W        W28026   4.412   3.261   2.725 -0.0907  0.1454  0.0244
11893W        W28027  14.621   4.110  15.063  0.1536 -0.2757 -0.3324
11894W        W28028   7.604  13.703  14.076  0.1992 -0.1393  0.1474
11895W        W28029   3.568  17.167  14.660  0.2396 -0.2985  0.0455
11896W        W28030  12.420   1.311   4.906 -0.2070  0.4891  0.2163
11897W        W28031  13.585   0.154   1.219  0.0609 -0.2649  0.1350
11898W        W28032   8.342  14.357   1.539  0.0587 -0.0943 -0.1248
11899W        W28033   9.865   9.183   3.391 -0.1351  0.0757  0.0198
11900W        W28034  11.038   2.329   3.861 -0.1314  0.1353 -0.0802
11901W        W28035  11.390   6.496  12.464  0.2350 -0.0039 -0.2040
11902W        W28036   7.477  13.098   4.513  0.0116  0.2671  0.0702
11903W        W28037  16.728  13.711  15.546 -0.0586 -0.0086 -0.0571
11904W        W28038   6.468   3.452   1.639 -0.0325  0.0048 -0.1027
11905W        W28039  14.977  14.356  12.237  0.0846 -0.1377  0.0971
11906W        W28040   4.292   2.878  17.006  0.2569  0.0061  0.1742
11907W        W28041  14.549   1.807   1.774  0.0691 -0.2135 -0.2126
11908W        W28042  15.108  11.544   5.124 -0.0924 -0.0127 -0.0605
11909W        W28043   4.079  17.162   2.848 -0.0482  0.0537 -0.0741
11910W        W28044   0.641   9.460   1.276 -0.1334 -0.0481 -0.1185
11911W        W28045  11.664   2.765   2.990 -0.1348  0.1288 -0.1943
11912W        W28046   5.329  13.741   2.485 -0.0732  0.1014 -0.0798
11913W        W28047  15.488  14.939   1.919 -0.2782  0.1169 -0.0195
11914W        W28048  12.953   8.779   0.007  0.2333 -0.0643  0.2841
11915W        W28049  13.235   1.334   5.033  0.2169 -0.1316 -0.0583
11916W        W28050   0.099  10.028  15.760  0.0108 -0.1187 -0.1466
11917W        W28051   2.141   7.949  15.533 -0.3733 -0.2340  0.4842
11918W        W28052   2.188   8.189  13.686 -0.3634 -0.1315  0.0395
11919W        W28053  13.948   1.290   4.367 -0.2348 -0.2316  0.1166
11920W        W28054   0.917   8.552   5.683  0.2480  0.0474 -0.2495
11921W        W28055   4.710   2.203   1.419 -0.2896  0.0133 -0.2783
11922W        W28056   0.676  13.046   1.990 -0.0954 -0.0187  0.1029
11923W        W28057  17.603   4.144   5.874 -0.2396  0.2661  0.0327
11924W        W28058   8.910  17.145  15.212 -0.1971 -0.0053  0.0082
11925W        W28059  12.477  10.264   4.598  0.3013 -0.3922  0.0701
11926W        W28060  10.866   7.544   1.297  0.1358 -0.3955  0.1135
11927W        W28061   4.910  12.792  13.393 -0.0996 -0.2937 -0.0457
11928W        W28062  14.749   9.075   2.090  0.3344 -0.2138 -0.0285
11929W        W28063  11.899   2.344  17.086 -0.2411 -0.2687 -0.0560
11930W        W28064   8.189   2.828   2.484 -0.1632  0.2223 -0.0400
11931W        W28065  15.890  12.600   1.211  0.3534  0.3467 -0.0377
11932W        W28066  13.739  13.456   2.137 -0.2942 -0.3681  0.2727
11933W        W28067   7.778   2.160   3.028  0.1517  0.0204  0.1091
11934W        W28068   1.233  14.065   0.344 -0.3002 -0.1226  0.2118
11935W        W28069   6.099  11.928   2.094 -0.1019  0.2674  0.5413
11936W        W28070   0.606   6.850  11.888 -0.0840  0.2114 -0.0858
11937W        W28071   9.279  10.371   4.505  0.0178 -0.0049  0.1788
11938W        W28072  10.360   6.256   1.320  0.1553  0.0230 -0.0510
11939W        W28073   6.267  17.181   1.304 -0.0290  0.0400 -0.0212
11940W        W28074  10.955   8.839  12.845  0.1845 -0.0396  0.0236
11941W        W28075   3.569   6.330   3.739  0.2108  0.0545 -0.0616
11942W        W28076  17.385  16.790   0.795  0.3164 -0.0585  0.0774
11943W        W28077   0.281   4.676  11.911  0.4346 -0.0186 -0.3049
11944W        W28078   9.708   7.393   5.297  0.0726 -0.0111  0.0123
11945W        W28079   4.228   0.908   1.280  0.1965  0.0123 -0.0931
11946W        W28080   1.361   1.393  15.194  0.1342 -0.1987 -0.2747
11947W        W28081   5.811   3.413   3.136 -0.0348  0.1886  0.0456
11948W        W28082   0.584   6.159  16.611  0.4136  0.1466 -0.1041
11949W        W28083   9.087   8.140   1.466 -0.1610  0.2894  0.4761
11950W        W28084  11.201  16.809  15.003  0.3113  0.0645 -0.1665
11951W        W28085   9.622  13.273   4.113 -0.0340 -0.0545  0.0215
11952W        W28086   3.430  10.593   0.757 -0.2229 -0.1071  0.0721
11953W        W28087   9.411   1.922   1.150 -0.2868 -0.0490  0.0087
11954W        W28088  10.341  15.843  16.400 -0.0782  0.1431 -0.3052
11955W        W28089  13.347   3.744   1.331  0.1637  0.2721 -0.1194
11956W        W28090   0.312  14.474   5.028  0.2247  0.1046 -0.3665
11957W        W28091   4.852  11.539  15.387 -0.1749  0.0254  0.1188
11958W        W28092   9.800   7.442   4.317  0.2826  0.2288 -0.0155
11959W        W28093   0.243  11.611  16.415  0.1818 -0.0490  0.3620
11960W        W28094   0.319  13.030  16.939  0.1589 -0.1039 -0.1571
11961W        W28095  14.702   6.031  11.996  0.0361 -0.0144 -0.0878
11962W        W28096  16.495   8.563  15.369  0.0426  0.1186 -0.1126
11963W        W28097   0.338   2.044   4.915  0.2210  0.0724 -0.0690
11964W        W28098   6.574   9.425   4.059 -0.0911  0.1786 -0.1305
11965W        W28099   9.799  13.260  15.083  0.0854  0.1957  0.1383
11966W        W28100   0.612  17.626  15.305 -0.1322  0.1802  0.1362
11967W        W28101   5.847   8.945  13.693  0.1596 -0.0486  0.1163
11968W        W28102  15.588  15.230   5.134  0.2029  0.2300 -0.0101
11969W        W28103   2.261  16.974  15.566  0.0184 -0.0860  0.3709
11970W        W28104  13.713  15.968  15.356  0.0871  0.0295 -0.1995
11971W        W28105   7.676   2.545   2.685 -0.0939 -0.1149  0.1680
11972W        W28106   3.319  15.212   5.325  0.0890 -0.1101 -0.2370
11973W        W28107   6.241  10.095   4.664  0.2834 -0.2882 -0.0138
11974W        W28108  12.362  10.971   0.543 -0.1492  0.0755 -0.0908
11975W        W28109  15.606  15.391   2.114  0.1844 -0.1473 -0.2338
11976W        W28110   9.561   1.053   2.138 -0.0886 -0.0478 -0.2288
11977W        W28111  17.626   1.139   5.993  0.1121  0.0545  0.1063
11978W        W28112  16.845  16.524  12.409  0.5776  0.0840  0.3016
11979W        W28113   5.301   6.342  14.994  0.1491  0.0720 -0.0166
11980W        W28114   8.050  12.577  13.501 -0.0182  0.1332 -0.2701
11981W        W28115  10.317   1.248   3.179  0.0923 -0.1354  0.0538
11982W        W28116  13.141  13.699   5.573  0.1894 -0.0532 -0.2224
11983W        W28117  15.964  17.080   2.686 -0.2308  0.3587 -0.1353
11984W        W28118  16.594  13.577   4.142  0.1184 -0.0949  0.0807
11985W        W28119  14.330  12.122  16.043  0.0474 -0.0712 -0.1816
11986W        W28120  15.366   2.010   1.337 -0.1139  0.0932  0.1970
11987W        W28121  11.190  10.618   2.893  0.2069  0.1092 -0.0410
11988W        W28122  15.470   7.315  15.316 -0.0515  0.2112 -0.2804
11989W        W28123  10.651   7.609  12.017  0.2326  0.0163 -0.0462
11990W        W28124  15.116   5.661  15.890 -0.0534 -0.2304 -0.2222
11991W        W28125  14.375  16.175   3.114  0.0908 -0.0351  0.1670
11992W        W28126   7.172  10.367   3.191  0.1659  0.0764  0.0185
11993W        W28127   3.491  11.985   4.684 -0.2459  0.1749  0.0212
11994W        W28128  12.918  13.142   3.518  0.0569  0.2496 -0.2508
11995W        W28129  16.794   7.698   2.187  0.0620  0.1371  0.0950
11996W        W28130  13.762   7.356  11.379 -0.2153  0.0078  0.2520
11997W        W28131   9.423  15.641  13.275 -0.0797 -0.1947  0.0527
11998W        W28132   6.701  13.403  16.285 -0.1843 -0.1938 -0.3147
11999W        W28133  10.600   1.615  17.044  0.2850 -0.3244  0.1464
12000W        W28134  13.314   9.612   1.094 -0.0317 -0.0237  0.1998
12001W        W28135  17.512   7.495  17.153 -0.0141 -0.1106 -0.1533
12002W        W28136  16.684   6.519   2.712 -0.1626 -0.2232 -0.2650
12003W        W28137   4.235  12.964   2.536 -0.0549  0.0367 -0.2167
12004W        W28138   8.806  15.331   2.370 -0.3252  0.1320 -0.1547
12005W        W28139   1.864  16.049  16.979 -0.2383  0.0171 -0.0944
12006W        W28140   4.644   5.762   0.518 -0.2410  0.1410 -0.1941
12007W        W28141   8.785   3.456  12.000 -0.6955  0.4242  0.3527
12008W        W28142   1.693   2.350   4.378  0.1169  0.0659 -0.0996
12009W        W28143  14.627   0.537  15.016  0.1155 -0.3880 -0.1436
12010W        W28144  12.329   1.048   1.990  0.0946  0.1007  0.0104
12011W        W28145  11.369  10.306   1.712  0.1539  0.2986  0.0018
12012W        W28146   6.913  14.526  16.896 -0.0305  0.1921  0.0607
12013W        W28147   3.914   3.097   0.190  0.0446 -0.1335  0.1150
12014W        W28148   6.389  12.279  15.704 -0.3113  0.1178  0.0858
12015W        W28149  11.325  12.553  15.289 -0.0139  0.1527  0.0115
12016W        W28150   6.831   9.262   0.025 -0.1782 -0.3600  0.1032
12017W        W28151   2.886   5.355   1.770  0.3090 -0.0200  0.1901
12018W        W28152   1.210   2.175   4.284  0.3057 -0.1279  0.1447
12019W        W28153  12.361   2.942  15.911 -0.0421 -0.1297 -0.3063
12020W        W28154   8.421  14.223  16.527 -0.1615  0.0834  0.2027
12021W        W28155  15.044   6.236   3.215  0.0665 -0.1002 -0.0236
12022W        W28156   8.606   5.150  15.811 -0.0582 -0.2451 -0.0803
12023W        W28157   5.019   4.530   0.593 -0.0430  0.0172 -0.1738
12024W        W28158   4.881  17.000  14.595 -0.0280 -0.0773  0.2591
12025W        W28159  12.876  14.932  16.865  0.0412 -0.2760 -0.0920
12026W        W28160   5.901   1.234  13.128 -0.1011 -0.0512 -0.1032
12027W        W28161  16.611  15.136  12.003  0.1051  0.1704 -0.2893
12028W        W28162  16.980   1.007  16.425 -0.0824 -0.1922 -0.0108
12029W        W28163   5.237  17.288  12.977  0.2515 -0.2456  0.0279
12030W        W28164   9.601  13.607  17.084 -0.3996 -0.0877 -0.1491
12031W        W28165   9.523  10.723   4.935 -0.0279  0.3197  0.0093
12032W        W28166  12.691  14.087   3.209 -0.3167  0.1545 -0.0327
12033W        W28167  14.707   4.155   4.834 -0.2321  0.2219  0.1137
12034W        W28168   4.878   7.489   3.731  0.0793 -0.2657  0.3081
12035W        W28169  16.295  16.175   2.625  0.0313 -0.0721  0.0525
12036W        W28170   2.855  10.313   5.067  0.0372  0.0668  0.1904
12037W        W28171  10.622   0.502   1.794  0.2289  0.2481 -0.1590
12038W        W28172   7.681   4.845   5.640 -0.4245 -0.0461  0.1315
12039W        W28173  11.316   1.456  14.285 -0.0383 -0.2184 -0.2562
12040W        W28174  11.100   1.281  14.695  0.0805  0.1091 -0.0533
12041W        W28175   3.977  16.131  14.578 -0.0314  0.0178  0.4392
12042W        W28176   6.148  14.449   1.630 -0.1239  0.0240  0.3020
12043W        W28177  12.525   7.533   1.037 -0.0525 -0.0392 -0.1250
12044W        W28178   2.944  14.754  13.287 -0.0751 -0.0116  0.2533
12045W        W28179  13.269   7.507  13.292  0.0751 -0.0415 -0.0340
12046W        W28180   4.082  16.713   6.611 -0.3749 -0.2479 -0.1658
12047W        W28181  10.801   4.438   0.546  0.0399 -0.3199  0.0099
12048W        W28182   3.313   5.831   3.610  0.3124  0.0918  0.1155
12049W        W28183  12.202  14.363  12.196  0.0354  0.0508  0.0837
12050W        W28184   1.129  12.288  17.040  0.2113 -0.1828  0.2425
12051W        W28185   5.287  14.687   3.436  0.1867 -0.0872 -0.2800
12052W        W28186  13.382   0.709  16.438  0.1881 -0.2203 -0.0719
12053W        W28187  12.751   4.732   0.461 -0.1590  0.1538  0.1388
12054W        W28188   0.734  15.082   1.746 -0.1173  0.0117 -0.1456
12055W        W28189  11.110   0.890  14.359  0.2617 -0.0711  0.1498
12056W        W28190   9.382   2.889   3.652  0.2718 -0.0411  0.0521
12057W        W28191   7.262   0.308  17.064 -0.4321  0.0494 -0.0337
12058W        W28192   1.187  17.599   4.612  0.0042 -0.0414  0.4880
12059W        W28193   9.313  16.939   1.828 -0.0704 -0.2627  0.1233
12060W        W28194   6.171  11.298  12.485  0.0011 -0.4005 -0.2827
12061W        W28195   2.781   6.704  14.601  0.1568 -0.1561 -0.0859
12062W        W28196  16.876   0.708   3.906 -0.0894 -0.0667 -0.2761
12063W        W28197  11.847   8.642  16.319 -0.0889 -0.0639 -0.1029
12064W        W28198  15.934   8.502  15.346 -0.3116 -0.0033  0.4635
12065W        W28199   4.394  17.654  14.447 -0.0905  0.0814 -0.1580
12066W        W28200  15.799   9.134   2.324  0.3355  0.2648  0.3261
12067W        W28201   1.629   6.604  15.719 -0.0091  0.0042 -0.0072
12068W        W28202   9.866   0.450   2.906 -0.1443  0.2113 -0.0717
12069W        W28203   6.971  15.288  14.999  0.0916  0.2167 -0.1282
12070W        W28204  11.283   3.511  11.296 -0.0033 -0.1137 -0.0303
12071W        W28205   5.999   0.529   2.195  0.1367 -0.0387 -0.0195
12072W        W28206   4.556  16.292   0.954  0.0140  0.0894  0.0317
12073W        W28207   2.728  13.152   3.086  0.0790 -0.0583 -0.1561
12074W        W28208   2.600   1.832   5.302  0.1914  0.3100 -0.2128
12075W        W28209   9.538  15.274  13.552  0.1102  0.3708 -0.0260
12076W        W28210   5.476   2.791   4.977  0.0371  0.0148 -0.1775
12077W        W28211  11.401   6.368  13.816  0.4085 -0.0344 -0.0575
12078W        W28212   0.720   0.772   6.153 -0.0088  0.0914  0.0767
12079W        W28213   9.752   9.022  13.774  0.0025  0.1773 -0.3202
12080W        W28214  11.200   9.314  13.063  0.2680  0.0284  0.2886
12081W        W28215  11.959  12.139   5.903  0.2000 -0.1510 -0.0731
12082W        W28216   1.976   4.662   0.823  0.0624  0.1798 -0.0659
12083W        W28217  14.977  10.968   3.699 -0.0006 -0.0185  0.0933
12084W        W28218  15.237   5.650  13.162  0.1075  0.1819  0.1518
12085W        W28219   8.599   8.324   0.612 -0.1039 -0.0413  0.0675
12086W        W28220   3.041   5.462  15.253  0.1027 -0.0347  0.3872
12087W        W28221  10.283  10.457  13.411 -0.1160 -0.0266 -0.1950
12088W        W28222   4.120  15.042  16.535 -0.1769  0.1639  0.0610
12089W        W28223   3.358  12.479   4.767  0.1509  0.1764 -0.0189
12090W        W28224  14.916   9.787  13.850  0.0274  0.1082 -0.3202
12091W        W28225   3.417   6.924  13.696  0.1803  0.3492  0.0598
12092W        W28226   3.252  13.449  12.752 -0.2025  0.2186  0.0211
12093W        W28227   8.030  16.771  12.979  0.0157 -0.0108 -0.0477
12094W        W28228   4.776   1.955  12.122  0.0448 -0.1834 -0.1981
12095W        W28229   8.498   0.104  15.910  0.0463  0.2730  0.0889
12096W        W28230   9.568   9.812   2.833 -0.0034 -0.1512  0.0909
12097W        W28231  10.838  10.082   6.170  0.4495 -0.0403  0.0293
12098W        W28232   9.468  15.156   0.188 -0.2579 -0.2245  0.0222
12099W        W28233  13.643  14.000   4.538  0.1474  0.1821  0.0509
12100W        W28234   1.223   6.702   0.481 -0.0378 -0.3712 -0.2137
12101W        W28235  11.023   5.835   4.984  0.0935 -0.1921 -0.2787
12102W        W28236   0.209   4.541  13.274  0.0040  0.0066 -0.2173
12103W        W28237  10.771   1.015   3.212  0.2877  0.1448 -0.0922
12104W        W28238  10.707   6.687   4.985 -0.0716  0.0510 -0.1078
12105W        W28239   7.762  13.281   4.898  0.2598 -0.0585 -0.0164
12106W        W28240  13.106  11.559  16.362  0.2024  0.0538 -0.0916
12107W        W28241   5.904  12.392   1.244  0.1941  0.2676 -0.0756
12108W        W28242  16.909   6.009  11.500 -0.2957  0.2912 -0.2568
12109W        W28243   1.498   1.413   4.755  0.0837 -0.0577 -0.1238
12110W        W28244  10.470  10.542   5.537  0.0915 -0.0437  0.1988
12111W        W28245   0.160  10.588  11.936 -0.1624 -0.0622 -0.2718
12112W        W28246  12.315   1.907   1.235  0.1233 -0.1503 -0.0850
12113W        W28247   7.174   7.670   0.391  0.1572 -0.1571  0.1715
12114W        W28248  11.725   9.851  12.078 -0.3739 -0.0537  0.0579
12115W        W28249  12.946   5.096  13.913  0.0236 -0.1839  0.0252
12116W        W28250   4.657   3.936  15.169 -0.1782  0.1604  0.0176
12117W        W28251   6.590   8.000  13.939  0.1718 -0.1847 -0.1565
12118W        W28252   2.739   5.064  11.444  0.2792  0.1206 -0.1214
12119W        W28253   3.100   2.024  15.015 -0.2659 -0.1194 -0.0091
12120W        W28254   0.977  12.126   4.881 -0.0718 -0.0707  0.0495
12121W        W28255   6.448  16.633  15.689 -0.2895 -0.0466  0.0612
12122W        W28256   9.154   6.979   4.021  0.1068  0.0761  0.1651
12123W        W28257  13.390  13.718  13.730 -0.0810 -0.1129 -0.0643
12124W        W28258   1.449   7.210  14.025 -0.0141 -0.0550  0.0221
12125W        W28259   0.801   1.311   4.940 -0.0124  0.2141 -0.1464
12126W        W28260  15.886  15.968  16.641 -0.0120  0.2333 -0.1416
12127W        W28261   7.967   9.895   1.980  0.2171  0.2693  0.1047
12128W        W28262  13.729  16.909   1.951 -0.2875 -0.1231  0.2291
12129W        W28263   8.867  13.290  13.703  0.0101 -0.1850  0.4297
12130W        W28264   7.746  15.941   4.407 -0.2581  0.0381  0.0034
12131W        W28265  11.797   9.615   0.331  0.2871  0.1392  0.0593
12132W        W28266   8.504   2.827  14.968 -0.3285  0.0801 -0.0895
12133W        W28267   0.816   5.636  16.540 -0.4190  0.0294  0.0199
12134W        W28268  14.674   5.792   2.346  0.0234 -0.3536 -0.2968
12135W        W28269   8.359   6.001   5.360 -0.1590  0.1394  0.2010
12136W        W28270  16.584  10.954  15.341 -0.1166 -0.1230 -0.0330
12137W        W28271  17.429   2.854  14.069 -0.0908 -0.1452  0.0257
12138W        W28272   4.826   1.286  16.902  0.0910 -0.0682 -0.1352
12139W        W28273   8.925  13.474  12.266 -0.4745  0.1744  0.0368
12140W        W28274   8.298   0.759  16.871 -0.2050 -0.1389  0.0515
12141W        W28275  14.027   8.481  12.819  0.0227  0.0124 -0.0150
12142W        W28276   4.519   9.990  16.437 -0.1710  0.1779 -0.0143
12143W        W28277   2.031   5.759  15.253 -0.3812 -0.0004  0.0923
12144W        W28278  10.740  14.433  15.455 -0.0541 -0.0860  0.0322
12145W        W28279   4.461   6.081   1.656 -0.0721 -0.1136 -0.2124
12146W        W28280   0.980   2.567   4.765  0.1989 -0.0262 -0.1913
12147W        W28281   2.688  10.488  16.228 -0.0364  0.0675 -0.0021
12148W        W28282   3.077  15.267   4.666  0.0993 -0.1459 -0.0873
12149W        W28283   6.519  13.757  14.180  0.1984  0.1007  0.0211
12150W        W28284   0.102  11.121  16.292  0.1601 -0.1400 -0.1873
12151W        W28285   8.956   0.282   3.314 -0.2785  0.1958  0.1973
12152W        W28286   8.750  14.695  12.373 -0.0606  0.1568 -0.1252
12153W        W28287  12.432  13.144  14.712 -0.0712  0.2686  0.1635
12154W        W28288   2.148   2.388  15.035  0.0625  0.6568  0.2127
12155W        W28289   8.118   1.172   1.409  0.0810 -0.3491 -0.1497
12156W        W28290   0.100   1.570   5.664 -0.1423  0.0436  0.0913
12157W        W28291   6.602   4.180   2.176 -0.1840  0.0318 -0.2608
12158W        W28292   3.533   7.958  13.151  0.0954 -0.2648  0.0332
12159W        W28293  12.009  10.031  15.977 -0.1876 -0.2568 -0.1376
12160W        W28294   4.943   8.553  16.627 -0.0157 -0.0334  0.0734
12161W        W28295  10.442   3.080   4.316  0.1359  0.1369 -0.2366
12162W        W28296   9.949   1.623   4.280 -0.1286 -0.1167  0.0134
12163W        W28297   6.900  16.669  16.804 -0.0103 -0.2651 -0.3636
12164W        W28298   8.951  11.059  15.589 -0.1515 -0.2060  0.0823
12165W        W28299  11.990  13.692   3.745 -0.2244  0.0645  0.1149
12166W        W28300  10.778  10.418  12.358 -0.1961  0.0160 -0.1077
12167W        W28301   8.469  14.853   3.882 -0.1490  0.1084  0.1956
12168W        W28302  10.169  14.926   2.864 -0.0597  0.1396  0.3930
12169W        W28303   2.457   6.401   4.736 -0.1120  0.3515 -0.1354
12170W        W28304   7.589  12.730  13.822  0.0056 -0.3172  0.1956
12171W        W28305  10.916   6.905  11.149  0.1935  0.0511  0.1127
12172W        W28306   8.041   9.077   3.864 -0.0586  0.2696 -0.0228
12173W        W28307   2.633  16.953  16.540 -0.0046  0.0546 -0.2865
12174W        W28308  16.671   6.521  11.286 -0.1905 -0.0056 -0.2475
12175W        W28309   2.164   7.128   0.154  0.1910 -0.1682  0.2106
12176W        W28310   6.237   6.150  12.979 -0.2288 -0.0511 -0.0279
12177W        W28311   6.506   9.837   6.125  0.1745 -0.1716  0.2457
12178W        W28312   7.762  12.985  11.809 -0.1926 -0.0725  0.1282
12179W        W28313  11.641   7.471   4.791 -0.0087  0.3218  0.1509
12180W        W28314   8.796  15.211   3.518 -0.1721 -0.0208 -0.1487
12181W        W28315   1.836   8.590  14.351 -0.0078  0.1124  0.1450
12182W        W28316  15.996   6.220   1.003  0.1162 -0.1584  0.0839
12183W        W28317  12.308   7.205  16.645 -0.0157  0.1629 -0.1547
12184W        W28318   0.254   1.278   2.505 -0.0455 -0.3419 -0.1388
12185W        W28319  14.674   0.068   3.850 -0.0100 -0.1051 -0.5238
12186W        W28320   6.652  13.447  14.558  0.0690  0.3005  0.0363
12187W        W28321   0.387   9.470   0.302 -0.0073  0.0492  0.2268
12188W        W28322   9.377  11.220  13.671  0.2466  0.2180 -0.0653
12189W        W28323   9.465   1.179  11.832 -0.1567 -0.1450 -0.0461
12190W        W28324  15.870   5.400  16.782 -0.1322  0.1958 -0.0462
12191W        W28325  14.606   4.909  12.427  0.2729 -0.0390 -0.0999
12192W        W28326   8.620   3.722  14.853 -0.2598  0.0347 -0.1937
12193W        W28327  10.764   5.333  15.290 -0.2273 -0.0489  0.2408
12194W        W28328  12.221  10.797  11.749  0.0864 -0.1952 -0.0390
12195W        W28329   8.964  14.407   5.260  0.0634  0.0647  0.1372
12196W        W28330   3.363  16.914   6.073  0.3386  0.2165 -0.2841
12197W        W28331   6.358   0.013   4.261 -0.0577 -0.1380 -0.1516
12198W        W28332  15.926  17.341   4.983  0.3002  0.0938  0.1324
12199W        W28333   2.966  14.154  11.718  0.2217 -0.0771 -0.0711
12200W        W28334  14.491   8.156  11.195 -0.0515  0.0385  0.0603
12201W        W28335  16.779   3.414  14.704 -0.1111 -0.1911  0.0934
12202W        W28336   4.219   5.090  15.608  0.3467  0.1011  0.1288
12203W        W28337  12.336   1.955  16.478 -0.0263  0.1369 -0.1660
12204W        W28338   1.714  11.476  13.532  0.1209 -0.3005 -0.3196
12205W        W28339   4.129   4.151   1.890 -0.0625  0.2001  0.2412
12206W        W28340   1.613   0.148   4.880 -0.0022  0.2571 -0.1084
12207W        W28341   8.232   1.236  12.810  0.0713  0.0904 -0.2604
12208W        W28342   4.405  14.572   4.511 -0.0169 -0.2546 -0.1184
12209W        W28343   2.752  15.089   2.221 -0.1562 -0.3229 -0.1955
12210W        W28344   8.014   2.979  12.119 -0.0158  0.0466 -0.0221
12211W        W28345  10.614  11.521   0.729 -0.0525  0.1094  0.1711
12212W        W28346   1.390   1.298   3.344 -0.0548  0.0681  0.1158
12213W        W28347  14.753   1.792   3.992 -0.0800 -0.1267 -0.0705
12214W        W28348  13.823  11.641   0.609 -0.1141  0.1912 -0.3653
12215W        W28349  13.498   6.472  14.501 -0.3170  0.1762 -0.2085
12216W        W28350   9.501   4.382  12.861 -0.0246 -0.0015  0.0325
12217W        W28351  16.957  14.728  13.484  0.0394 -0.0255  0.0589
12218W        W28352  11.648   3.130   0.140 -0.1958  0.1466 -0.0897
12219W        W28353   2.069  14.361  14.153  0.3719  0.1351 -0.2596
12220W        W28354   5.951   8.611  14.111  0.1111 -0.4801 -0.2362
12221W        W28355  11.125  11.121  16.323 -0.0682 -0.0473 -0.3011
12222W        W28356   5.800   0.318   4.931  0.1244 -0.0548 -0.1916
12223W        W28357   9.726   9.312  15.528 -0.0458 -0.0322 -0.0817
12224W        W28358   8.983  15.500  15.823 -0.2310 -0.2203  0.0463
12225W        W28359   6.434  16.079  13.158 -0.1504 -0.0159 -0.1336
12226W        W28360  11.056   8.155   2.851  0.0099  0.0842 -0.1183
12227W        W28361   5.627  12.754   0.242 -0.2870  0.1247 -0.3556
12228W        W28362   8.729   1.697   2.316 -0.0762 -0.1894 -0.0566
12229W        W28363   1.679  12.869   5.198 -0.0756  0.0180  0.0079
12230W        W28364  12.749   3.656   4.751 -0.0699  0.1526 -0.2787
12231W        W28365   9.273  11.283   0.634 -0.2214 -0.0461 -0.3457
12232W        W28366  14.731   1.732   4.601 -0.0793 -0.0530  0.1794
12233W        W28367   3.070   4.647  13.348  0.1683 -0.1428  0.0159
12234W        W28368   7.016   2.033  12.735  0.2157  0.0365  0.4286
12235W        W28369  11.468   4.576   4.601 -0.2562 -0.0650  0.2015
12236W        W28370   1.993   2.291   1.692 -0.1868  0.0688  0.1639
12237W        W28371   3.535   1.081   0.189  0.0231  0.1564 -0.0125
12238W        W28372  16.770  14.321   3.527 -0.1679  0.0032  0.0126
12239W        W28373  10.402   3.407   4.681 -0.0222  0.0633  0.3029
12240W        W28374   2.405  13.220  16.693  0.1179  0.0708  0.1808
12241W        W28375  13.520   8.366   3.981 -0.3888 -0.1074 -0.1312
12242W        W28376   2.738   0.197  16.517  0.3527  0.2474  0.0435
12243W        W28377  14.860   7.829  12.667 -0.1541  0.0059  0.1760
12244W        W28378  17.170   7.131   4.981  0.0777 -0.1113 -0.1056
12245W        W28379   0.024  11.964   5.152 -0.0277  0.0305  0.1252
12246W        W28380  16.770   2.167  12.309  0.1653 -0.0925 -0.0805
12247W        W28381  15.605  15.276  14.531 -0.2749  0.0054  0.0789
12248W        W28382  15.232   3.515  14.903 -0.0617  0.0188 -0.1414
12249W        W28383   0.137  14.115  15.868  0.2129  0.1457 -0.0818
12250W        W28384  12.827   2.542   5.503  0.0420  0.0123  0.1429
12251W        W28385   2.561  13.368   0.366  0.0317 -0.2828 -0.1074
12252W        W28386   4.974  10.180  11.876  0.0269 -0.0687  0.2397
12253W        W28387  15.428   3.866   2.871  0.3084 -0.0097 -0.0938
12254W        W28388   2.895   8.528  14.555 -0.1439  0.1695  0.2244
12255W        W28389   8.439  10.379  11.825  0.0237 -0.1836 -0.1795
12256W        W28390  13.360   9.920  11.790 -0.0750 -0.3278  0.1894
12257W        W28391  15.597   8.034   3.288 -0.1025 -0.0045 -0.0016
12258W        W28392   0.398  11.025   5.130  0.2748  0.0974  0.0042
12259W        W28393   2.966  11.362  14.388  0.0406 -0.0937  0.1653
12260W        W28394   2.238  10.055   1.323 -0.1901  0.0718 -0.1846
12261W        W28395  10.964   2.734  11.398 -0.0303 -0.0678  0.0564
12262W        W28396   3.703   3.899   2.271 -0.0651  0.0936 -0.3013
12263W        W28397   3.092   8.651  12.680 -0.1124  0.0365  0.0151
12264W        W28398  14.696  13.533   2.654  0.0772  0.0962  0.0019
12265W        W28399  16.193   2.420   4.076  0.0493 -0.1967 -0.3836
12266W        W28400   4.471  16.328  12.273 -0.3379 -0.1035  0.1436
12267W        W28401  16.534   1.362   2.277 -0.1556 -0.0513 -0.0706
12268W        W28402   1.317  13.173   3.157  0.1498 -0.1173 -0.0579
12269W        W28403  11.518  12.239  16.991 -0.0118 -0.0463  0.0507
12270W        W28404  14.982  14.752  12.538  0.0871  0.2272  0.0022
12271W        W28405   8.266   6.173   3.646  0.1994 -0.4118  0.2117
12272W        W28406   9.230   7.967   0.680  0.0973 -0.1028 -0.0587
12273W        W28407   2.692   7.465   2.221  0.0673 -0.0939  0.1357
12274W        W28408  14.033   8.508  15.675  0.0059 -0.2519 -0.0001
12275W        W28409   5.439  13.091  13.349  0.0240 -0.1284 -0.0002
12276W        W28410   9.403  16.646   4.997 -0.0586 -0.1480 -0.3905
12277W        W28411  15.837  17.425  13.521 -0.1103 -0.0536 -0.3206
12278W        W28412  12.100   0.217   2.315 -0.0673 -0.0876 -0.2113
12279W        W28413   5.799   1.375   4.851  0.2000  0.0208 -0.0580
12280W        W28414   2.027  11.856  14.436 -0.2626  0.0843  0.2535
12281W        W28415   5.906  12.502  15.461 -0.3868 -0.0071  0.2813
12282W        W28416  14.478  17.206   3.085  0.3072  0.3489  0.0628
12283W        W28417   7.835   8.379  12.092  0.3239 -0.0841  0.0288
12284W        W28418   0.273   3.889  16.614 -0.0171  0.1122 -0.4241
12285W        W28419  17.053   5.070  16.358 -0.3361  0.1307  0.1064
12286W        W28420  15.446   4.025   3.825  0.0357  0.0303  0.0631
12287W        W28421   1.542  10.287   5.304  0.0973 -0.0477  0.1770
12288W        W28422   7.892   9.966   4.642  0.3248  0.0180  0.0841
12289W        W28423   4.083  16.813  14.138 -0.1880  0.1350 -0.2292
12290W        W28424  13.106   0.579   3.426  0.0127  0.0914  0.2255
12291W        W28425  12.403   5.379   5.589  0.2454  0.1753 -0.0572
12292W        W28426   6.965   7.750   3.451 -0.0884 -0.3282  0.0160
12293W        W28427   7.024  10.624  16.657  0.2669 -0.1662  0.0071
12294W        W28428   0.174  12.549  14.559  0.1652  0.0567 -0.3153
12295W        W28429  13.054   4.931   1.257  0.1065  0.1135  0.1358
12296W        W28430   3.887  16.729   3.100 -0.1891 -0.0829 -0.0697
12297W        W28431  16.790   1.315  16.060 -0.1963 -0.0896  0.0565
12298W        W28432   6.592   5.898   5.024 -0.1517 -0.1838 -0.1262
12299W        W28433   2.995  17.091  16.009  0.1811  0.1479 -0.0008
12300W        W28434  14.516   8.067  11.717  0.2075  0.0677 -0.1160
12301W        W28435   7.627   4.118  11.638  0.0035  0.1717  0.1798
12302W        W28436   8.183  10.777  15.537 -0.3260  0.1981 -0.4062
12303W        W28437  12.408  12.224  17.046  0.2114 -0.0001 -0.3978
12304W        W28438   0.595  11.497  12.880  0.4195  0.0307  0.0698
12305W        W28439   0.865  14.242   1.675  0.0481  0.1982 -0.0726
12306W        W28440   5.911   2.796  16.425 -0.0131 -0.0877 -0.0297
12307W        W28441  16.946  13.444  16.776 -0.1123  0.1605 -0.0247
12308W        W28442   9.108  12.428   0.040 -0.2101  0.0505  0.0156
12309W        W28443  10.285   1.730   1.259 -0.1189 -0.1299  0.0127
12310W        W28444   0.820  12.364   4.434 -0.1111 -0.2151 -0.0439
12311W        W28445  10.395  17.292  11.929  0.0299 -0.1479  0.1933
12312W        W28446   7.329   5.537  17.142 -0.2571 -0.0670  0.0985
12313W        W28447   6.442   0.474  15.977  0.1786 -0.1041  0.0818
12314W        W28448  17.547  11.149   3.110 -0.1982  0.0871  0.2885
12315W        W28449  14.081   2.937  12.516  0.1510  0.0774  0.0936
12316W        W28450   1.049   1.655   1.060 -0.0446  0.0937  0.0031
12317W        W28451   6.032  14.017  13.284 -0.1254  0.1590  0.1628
12318W        W28452  12.904   9.983   4.602 -0.1765 -0.2494  0.2727
12319W        W28453   4.653   0.878  15.533  0.0374  0.2668 -0.0432
12320W        W28454  16.925  14.770   3.669 -0.0330  0.1658  0.2514
12321W        W28455  12.165   3.214   2.815 -0.2775  0.1385  0.0745
12322W        W28456   9.573   6.338  14.692 -0.3046 -0.1663  0.0692
12323W        W28457   8.860   2.230  12.854  0.1919 -0.2268 -0.0059
12324W        W28458   5.437  14.727  12.209 -0.0659  0.0075 -0.1410
12325W        W28459   4.629  13.769  14.561  0.2991  0.2316 -0.2268
12326W        W28460  13.849   7.187   3.157 -0.5337  0.0335  0.0368
12327W        W28461  13.548   3.202  14.917 -0.1299  0.2355 -0.2809
12328W        W28462  14.956   3.193  15.196 -0.1084 -0.2677  0.0650
12329W        W28463   5.211   4.588  16.301 -0.0799 -0.2041  0.0275
12330W        W28464  14.991  12.955   4.591 -0.0415 -0.3975  0.0021
12331W        W28465   2.602  15.671   3.142 -0.2559  0.2812 -0.0785
12332W        W28466   8.867  13.292   5.816  0.2090 -0.2043  0.1834
12333W        W28467   6.017  10.581  12.643  0.1890  0.1268  0.1031
12334W        W28468   9.208   7.717   3.693 -0.0033  0.0249 -0.2324
12335W        W28469   3.695  16.509   3.931 -0.0949 -0.2457  0.0709
12336W        W28470   1.292  14.734   2.992  0.2254 -0.4285 -0.0316
12337W        W28471   4.546   6.395  12.690 -0.1930 -0.0687 -0.0746
12338W        W28472   2.466  11.572   0.375  0.0911  0.4019 -0.1922
12339W        W28473  14.166   2.422   0.503  0.0187 -0.0850  0.0820
12340W        W28474  14.693  11.509   3.492 -0.2037  0.0315 -0.0820
12341W        W28475   5.679  14.562   0.250 -0.1187  0.1191 -0.2400
12342W        W28476   7.810  13.940   2.780 -0.1583 -0.0823  0.1308
12343W        W28477  11.467   6.736  13.060 -0.0224  0.2625  0.0927
12344W        W28478  15.408  14.433   0.118  0.0733 -0.0118 -0.0592
12345W        W28479  14.591   1.800   5.425  0.0956 -0.0429 -0.0030
12346W        W28480  11.993  16.396  15.412  0.1880 -0.0930  0.1278
12347W        W28481   6.655   4.753   1.924 -0.2745 -0.0777 -0.0128
12348W        W28482  11.182   5.490  14.070 -0.0198  0.0324  0.0183
12349W        W28483   9.906  15.957   1.053 -0.1126  0.1569 -0.2422
12350W        W28484   3.700  11.236  13.141  0.0083  0.6479 -0.0036
12351W        W28485   3.472   0.630  17.127 -0.0517 -0.0467  0.1249
12352W        W28486  14.902  10.253  10.445 -0.1376 -0.4059 -0.4035
12353W        W28487   7.304  15.509  16.533 -0.1223 -0.2262  0.1132
12354W        W28488   9.616   5.801   4.937  0.0935 -0.2384 -0.0339
12355W        W28489  12.572   8.429  11.347  0.0840 -0.3253  0.1922
12356W        W28490  11.997   3.890  15.533 -0.0596 -0.0121  0.1487
12357W        W28491   3.417  16.766   3.375 -0.1137 -0.0437  0.1189
12358W        W28492   5.205   9.870  12.245  0.0540 -0.0148 -0.3837
12359W        W28493   5.551   5.489  15.901  0.4390 -0.1043 -0.1151
12360W        W28494  16.428   7.876  14.002  0.0295  0.1505  0.2910
12361W        W28495  16.828  10.820   0.552  0.3214 -0.0060 -0.0922
12362W        W28496   9.278   3.047  13.846 -0.2500 -0.1776  0.0056
12363W        W28497   8.225   8.416  15.727 -0.0419 -0.0571 -0.1732
12364W        W28498   1.948  15.855  14.021 -0.2164 -0.0963  0.0643
12365W        W28499  11.382   2.616  14.646 -0.1283 -0.0126 -0.1326
12366W        W28500  10.309  12.577  16.980 -0.2765 -0.2777 -0.0492
12367W        W28501  15.043   3.317   6.086 -0.1292  0.1541 -0.1825
12368W        W28502  12.239   6.492  14.378  0.1554  0.2846 -0.2660
12369W        W28503  11.293  12.715   0.957 -0.2880  0.0096  0.1060
12370W        W28504   6.530   6.097  12.499  0.4678 -0.2339  0.0562
12371W        W28505  16.016  13.282   2.644  0.1976  0.1166 -0.2217
12372W        W28506  12.920   4.792  15.207  0.0982 -0.1785  0.2917
12373W        W28507  15.789   5.118  14.156 -0.3774  0.0128 -0.1526
12374W        W28508   7.640   3.955   2.417  0.1229 -0.1455  0.2362
12375W        W28509   4.196  10.125  13.938  0.2455 -0.0765  0.0182
12376W        W28510  10.806  17.438  16.172  0.1099 -0.0117  0.0150
12377W        W28511  15.496  16.594  16.912 -0.0980  0.0772 -0.1740
12378W        W28512   2.614  16.744   3.940 -0.0745 -0.0741  0.2086
12379W        W28513  12.658   1.601  14.190 -0.1895  0.2608  0.2730
12380W        W28514   6.512   6.287  11.905 -0.0040 -0.2072 -0.2470
12381W        W28515  10.530   6.500   3.979  0.1047 -0.1685 -0.1020
12382W        W28516   5.576  17.645  14.082  0.1251 -0.0652  0.1303
12383W        W28517  17.309  13.931  15.936  0.0619  0.1095  0.1063
12384W        W28518  12.033   8.109  14.428 -0.0765  0.1826  0.2597
12385W        W28519   1.168  10.862  15.421  0.1882  0.0146 -0.1831
12386W        W28520   6.240   2.690  14.210  0.1021 -0.3681 -0.4098
12387W        W28521  10.704  12.055  11.650  0.0892  0.1336  0.0675
12388W        W28522   0.676  13.189  13.884 -0.0704  0.0872  0.2106
12389W        W28523   4.502  17.668  16.081  0.1118  0.3203  0.0042
12390W        W28524  14.472  10.522   1.344  0.2013 -0.2534  0.0711
12391W        W28525   2.305   7.465   1.804 -0.0106 -0.3810  0.0403
12392W        W28526   4.552   8.835  15.108 -0.2577  0.1484 -0.1027
12393W        W28527  12.254   9.362  11.252  0.0246 -0.1060  0.2175
12394W        W28528  12.442   7.153   4.482 -0.2069  0.1389  0.0455
12395W        W28529   7.793   2.040   1.159 -0.1420 -0.0845  0.1848
12396W        W28530   5.542  12.897  15.028 -0.1869 -0.3620  0.0729
12397W        W28531  12.161  17.531   5.363 -0.0037  0.3223 -0.0380
12398W        W28532   3.725   0.134  13.342  0.3024  0.1075 -0.2595
12399W        W28533   5.823  16.013   3.489 -0.2094 -0.1033  0.4558
12400W        W28534  10.991   5.006  12.988 -0.0180 -0.0966 -0.2864
12401W        W28535   0.387  17.240   4.994  0.1616  0.2955  0.2265
12402W        W28536   8.119  15.804  11.776  0.0851  0.0520  0.0265
12403W        W28537   5.591   1.854   4.643  0.1482  0.0143 -0.1178
12404W        W28538   7.646  10.203   5.013  0.1206 -0.0157 -0.0306
12405W        W28539  16.402   3.495   0.951  0.0512 -0.1232  0.3740
12406W        W28540   2.419   6.871   2.431 -0.1473 -0.1423  0.0354
12407W        W28541  16.351   1.868  15.803  0.0251 -0.3723 -0.3732
12408W        W28542   5.475   3.431   6.150  0.1041 -0.0730 -0.3634
12409W        W28543   0.840   9.509   5.647  0.0298  0.2593 -0.2941
12410W        W28544   3.210   9.862  15.551  0.3549  0.0638  0.1218
12411W        W28545   4.894   5.204  15.535  0.2310 -0.0302  0.0403
12412W        W28546   0.297   9.407  15.811 -0.2600 -0.0465 -0.1271
12413W        W28547   4.031  11.648   1.834 -0.2746 -0.2215  0.0355
12414W        W28548   1.834   1.079   0.765 -0.1885 -0.1807  0.0494
12415W        W28549  16.953   2.425   0.319  0.1527  0.2217  0.1094
12416W        W28550  15.292  12.358   5.540  0.2677  0.0412  0.0103
12417W        W28551   0.347  10.435   2.109 -0.0042 -0.0121 -0.1303
12418W        W28552   8.273   9.514  15.559  0.2856  0.0256  0.1369
12419W        W28553  15.880  12.940  16.172  0.0117 -0.2806  0.0716
12420W        W28554  11.542  12.548   1.415 -0.0665  0.1634  0.3307
12421W        W28555  15.649  14.253  14.147 -0.2610 -0.1754 -0.0464
12422W        W28556   9.212  11.675  14.771  0.3011  0.0145 -0.0687
12423W        W28557  12.889  13.618   4.590  0.0911 -0.0666  0.0561
12424W        W28558   9.665   0.766  14.959  0.1610  0.1389 -0.0774
12425W        W28559  10.260   1.213  13.899 -0.0029  0.1300 -0.2501
12426W        W28560   2.127   6.119  11.305  0.0887 -0.0462  0.1215
12427W        W28561  17.331  15.254   5.509 -0.0646 -0.1141 -0.0809
12428W        W28562   7.452   0.127   0.738  0.0630 -0.1146  0.1126
12429W        W28563  10.858   3.977  15.037 -0.3569 -0.0278  0.0302
12430W        W28564  16.149  15.824  13.818  0.1865  0.0345  0.0061
12431W        W28565   9.965   8.114   5.570  0.0196  0.0676  0.0629
12432W        W28566   0.597   2.919   4.882  0.1514  0.1588 -0.2427
12433W        W28567  16.028  14.946   4.337  0.0481 -0.0903  0.1313
12434W        W28568   6.090   5.821   3.925 -0.0308  0.4121  0.1337
12435W        W28569   3.903  13.133  11.919  0.1463 -0.1222 -0.0123
12436W        W28570   4.453   5.296   4.209 -0.2011 -0.0190 -0.2268
12437W        W28571  12.724  15.285  15.220 -0.1289  0.1059  0.0273
12438W        W28572   8.405   2.040   1.518 -0.0801  0.0566 -0.0768
12439W        W28573   7.663   4.308   4.305  0.2350 -0.0575 -0.1064
12440W        W28574   4.787   5.565  10.669  0.0201  0.1946 -0.2418
12441W        W28575   4.517  14.147  15.517  0.0896  0.0115 -0.1490
12442W        W28576   5.646   6.076   5.965 -0.1991 -0.2834 -0.0116
12443W        W28577   8.456   2.407  16.871  0.3364 -0.0106  0.1019
12444W        W28578   5.610   7.023  16.752 -0.3018 -0.5106 -0.4670
12445W        W28579  14.075  16.518   1.836 -0.1600  0.1087 -0.2133
12446W        W28580   0.969  15.277  15.188 -0.0025 -0.0579  0.0345
12447W        W28581   3.643  16.514   0.997  0.2926  0.1994 -0.0503
12448W        W28582   4.650  14.914   0.654  0.0500  0.1219 -0.0185
12449W        W28583   5.672  13.279  13.776  0.0352 -0.1426 -0.0780
12450W        W28584   8.353  17.585   4.997  0.1460  0.0453 -0.1219
12451W        W28585  10.760   0.812   6.242 -0.0131  0.0238 -0.1558
12452W        W28586   0.224  14.829  13.398 -0.1048 -0.0929  0.0803
12453W        W28587  10.648   2.332  12.196 -0.1890 -0.1785  0.1722
12454W        W28588   8.169   1.858   0.404  0.0004 -0.2805  0.0912
12455W        W28589  16.884  10.516  11.502  0.1798  0.0372  0.3341
12456W        W28590  10.584   7.608  15.889  0.0162  0.0661  0.2059
12457W        W28591   8.794   9.721  11.925  0.2715 -0.0218  0.0183
12458W        W28592   5.950   6.536   3.082  0.0631 -0.0545  0.0185
12459W        W28593  11.522   0.600  12.802 -0.2999 -0.2898  0.1281
12460W        W28594  14.003   2.861  16.527  0.1958  0.2834  0.0111
12461W        W28595  10.791  16.766  13.512 -0.0610 -0.0787 -0.0615
12462W        W28596   1.518   9.582  12.228 -0.0294 -0.1247  0.0039
12463W        W28597  16.084   9.559   3.344 -0.1408  0.1642  0.1734
12464W        W28598  13.637   0.723   1.160  0.1434 -0.0432  0.3481
12465W        W28599  12.319   7.891   5.954 -0.0598 -0.2904  0.1433
12466W        W28600   8.487   1.675  16.626  0.1008  0.1741  0.2504
12467W        W28601   9.539  16.486   2.045 -0.0120 -0.2914 -0.2471
12468W        W28602   5.238   7.848  12.356  0.0405  0.1338  0.1208
12469W        W28603  13.153   9.908   3.395  0.0487 -0.0717  0.1673
12470W        W28604   0.937   9.330  14.988 -0.1440  0.1789 -0.2090
12471W        W28605  11.429   7.518  13.729 -0.0238  0.2442  0.0692
12472W        W28606   7.467   5.604  15.116  0.1136 -0.1268  0.0487
12473W        W28607   5.498  16.887  15.261 -0.1056 -0.0838  0.2405
12474W        W28608  14.904  11.205  12.695  0.0913 -0.1278 -0.0989
12475W        W28609   8.082  12.357   5.834  0.1369 -0.0694  0.1990
12476W        W28610   2.626   6.536   3.703 -0.1072 -0.3281  0.1344
12477W        W28611   5.724  16.959   6.293 -0.0949 -0.2299  0.0699
12478W        W28612   3.161  14.000   1.900  0.2092 -0.0317 -0.3468
12479W        W28613   4.516  11.012   2.836  0.1287 -0.1598 -0.4057
12480W        W28614   1.903  14.743  17.045 -0.0788  0.2563  0.1759
12481W        W28615   3.897   0.264   3.994  0.3631 -0.1462 -0.2211
12482W        W28616  10.677   5.819   4.626  0.1929  0.0160  0.0508
12483W        W28617  14.155   2.680  12.136 -0.0279 -0.2191  0.2743
12484W        W28618   6.780  12.657   4.199 -0.1859  0.0314 -0.1966
12485W        W28619   5.460   8.416   5.611 -0.4143 -0.2975  0.0730
12486W        W28620   7.859  14.214   1.889 -0.2881 -0.1420  0.1126
12487W        W28621  12.109  15.920   0.026  0.0223  0.3989  0.0494
12488W        W28622   5.206  10.965  12.167  0.4281  0.1245  0.0690
12489W        W28623   4.412   5.174   0.231 -0.2898 -0.3560 -0.3174
12490W        W28624   2.066  17.128   3.830 -0.2057  0.2400 -0.0339
12491W        W28625   8.800   7.396   2.009  0.0745 -0.0242 -0.0358
12492W        W28626   9.193   0.282  10.758 -0.2448 -0.1352 -0.2474
12493W        W28627  14.916  13.054  13.619  0.0045  0.1345  0.0345
12494W        W28628   1.523   5.821  14.443  0.1904  0.0230  0.2078
12495W        W28629  13.840   7.369   2.623 -0.0241  0.0400  0.0334
12496W        W28630  16.725  17.231  16.056  0.0655 -0.1925 -0.2078
12497W        W28631  11.716  13.194   2.125  0.0781 -0.0792  0.1528
12498W        W28632   5.463  13.248   0.150 -0.0499 -0.2025 -0.1026
12499W        W28633   5.124   9.007  14.557  0.1433  0.1347 -0.4366
12500W        W28634   6.895   2.657   3.068 -0.1173  0.0784  0.2064
12501W        W28635  14.997  16.466  13.704 -0.0131 -0.1314  0.0650
12502W        W28636  12.669  13.826   5.806  0.1467  0.0440 -0.1488
12503W        W28637  15.857  16.267   2.378  0.0897  0.0931 -0.2061
12504W        W28638   5.203  11.447   4.547  0.0083 -0.0805 -0.2196
12505W        W28639   8.336  12.165  17.085  0.1997 -0.1699 -0.4582
12506W        W28640  12.450   2.032  11.705 -0.0713  0.0574  0.0134
12507W        W28641   3.161  16.917   5.007  0.1269  0.1359 -0.1182
12508W        W28642   8.762  17.139   1.686  0.0971  0.0912  0.3231
12509W        W28643   2.375  17.230  13.359 -0.1491  0.1540  0.0123
12510W        W28644  10.904   5.486  12.291 -0.0415  0.2582 -0.1878
12511W        W28645  12.062  15.580  16.614 -0.1913  0.0246 -0.0946
12512W        W28646   9.233  12.108  13.954  0.0420  0.1422 -0.1388
12513W        W28647  14.896  12.662   0.305 -0.0284  0.0198  0.1657
12514W        W28648   6.814   4.266   5.533 -0.0694 -0.4799  0.1832
12515W        W28649   3.343   6.340  17.177 -0.1635  0.2083 -0.2886
12516W        W28650   9.330   6.161  11.541 -0.1123 -0.1427 -0.0355
12517W        W28651   0.817   6.600  16.368  0.0325 -0.1158  0.0667
12518W        W28652   0.695   5.121  15.238 -0.1554  0.1546 -0.0913
12519W        W28653   2.206   0.687  13.802  0.0048 -0.0726 -0.1986
12520W        W28654   3.002  17.097  14.588  0.0770 -0.2722  0.2378
12521W        W28655   6.818   7.483   5.648 -0.0162  0.0071 -0.0182
12522W        W28656  12.316   2.556   3.484 -0.0557 -0.2166 -0.1754
12523W        W28657   8.976   6.038  11.931  0.0692 -0.0067  0.0437
12524W        W28658  13.488   9.149   1.185  0.3892 -0.1165 -0.0069
12525W        W28659   4.014   5.445  15.336 -0.1751 -0.0537 -0.1682
12526W        W28660   5.523   4.771   2.375  0.1899  0.3170 -0.0990
12527W        W28661  16.831   5.310   0.495  0.0347 -0.0275  0.0775
12528W        W28662   8.645  17.374   2.157 -0.0291  0.1510  0.0736
12529W        W28663   2.797   6.365  13.254 -0.3546  0.2960  0.2727
12530W        W28664  12.520  15.856  11.006 -0.1874 -0.3182 -0.0167
12531W        W28665   4.301  17.662   5.787  0.0740 -0.2866  0.0716
12532W        W28666  14.398  15.623  12.234  0.1294  0.0147  0.2118
12533W        W28667  14.428  14.204  16.898  0.0820 -0.0663 -0.0326
12534W        W28668   2.835   6.491  17.012  0.1207  0.2744  0.1293
12535W        W28669  15.789   5.780   4.267  0.0637  0.5077 -0.0822
12536W        W28670   4.040  16.164  17.034  0.0366 -0.1050 -0.1718
12537W        W28671   7.746   9.312   1.841 -0.0313  0.2486 -0.3605
12538W        W28672   3.293   4.105  11.866 -0.0235  0.1340 -0.1718
12539W        W28673   7.337   7.248  12.714 -0.0678 -0.1188  0.0604
12540W        W28674   5.923  17.495  11.022 -0.2846 -0.1919  0.2038
12541W        W28675   2.977   0.662  16.383  0.0981 -0.3181  0.2067
12542W        W28676   1.662  17.160   0.107 -0.0675 -0.1029 -0.0537
12543W        W28677  11.181   8.720   3.461  0.0764 -0.0971 -0.1125
12544W        W28678   9.835  17.536  13.606 -0.2584  0.0069  0.2317
12545W        W28679  10.165   5.633  12.003 -0.2925  0.1068 -0.0979
12546W        W28680   0.209   0.523  14.025 -0.1686 -0.0884  0.0229
12547W        W28681  11.433  16.083   5.396  0.1165 -0.1255  0.0793
12548W        W28682  16.377  13.589  12.125 -0.0905  0.2592 -0.0369
12549W        W28683   4.125   8.405  11.776 -0.0309  0.1935 -0.0077
12550W        W28684   4.986   1.750  15.072 -0.1604  0.1504  0.0565
12551W        W28685   7.208  14.516  12.476  0.0566 -0.0962 -0.0060
12552W        W28686   8.696  11.177  13.628 -0.1310  0.2099 -0.0709
12553W        W28687   1.085  13.761  11.943  0.2497  0.0169  0.2374
12554W        W28688   5.716  16.742  12.320  0.1056 -0.0063 -0.3693
12555W        W28689  11.004   5.891  13.242  0.1214 -0.0764 -0.1671
12556W        W28690   5.232  12.953  17.057 -0.0147 -0.1101 -0.1738
12557W        W28691  15.721  12.373   3.525  0.0638  0.1296 -0.4988
12558W        W28692  13.435   3.549  14.014 -0.4813 -0.1449 -0.0107
12559W        W28693   6.235   8.474   0.147  0.0208  0.1696 -0.1416
12560W        W28694  13.396  12.448   5.816 -0.0124 -0.0809  0.0130
12561W        W28695   4.657   2.262   4.423 -0.4110  0.2407  0.0852
12562W        W28696  12.163  13.991  15.619  0.2365  0.2820 -0.4179
12563W        W28697  16.468  15.302  16.453  0.4301 -0.0088 -0.3269
12564W        W28698  16.438   7.400  14.349 -0.0016 -0.0674  0.0266
12565W        W28699   3.346   0.754   2.330 -0.2143 -0.0051  0.0062
12566W        W28700   8.943   1.906   1.426 -0.2508 -0.2244  0.3562
12567W        W28701   0.566  11.353   1.860 -0.0491 -0.1657 -0.2146
12568W        W28702   3.921  12.976   1.976 -0.1019  0.1113 -0.0975
12569W        W28703  12.182  13.745   2.628 -0.1851 -0.0205  0.0244
12570W        W28704  11.435  16.574   1.520  0.2053 -0.0667  0.0279
12571W        W28705  14.602  15.760   1.183 -0.0455  0.2326  0.0215
12572W        W28706  13.309  14.857  12.732 -0.4055  0.3333 -0.3228
12573W        W28707   5.787  13.772   1.801 -0.0575  0.1550 -0.2259
12574W        W28708   3.975   5.193   0.502  0.3112 -0.3154 -0.4404
12575W        W28709   8.124  10.212  14.372  0.2897 -0.2319 -0.1164
12576W        W28710  11.078  11.821   4.178  0.0168  0.0833  0.1040
12577W        W28711  11.907  15.643  12.465 -0.2512 -0.0064 -0.1138
12578W        W28712   2.866  12.185   3.402  0.2105  0.1510  0.3186
12579W        W28713   1.284  15.825  13.607 -0.0970  0.1183 -0.0550
12580W        W28714  13.569  15.511  16.769 -0.1373 -0.1304  0.1160
12581W        W28715   3.861  17.187  16.532 -0.3101  0.0997  0.1689
12582W        W28716  12.071  16.877  14.133  0.1724 -0.0596  0.1425
12583W        W28717   4.205   1.103   4.334 -0.1885  0.0238  0.0431
12584W        W28718  16.329   6.955   2.859 -0.1689  0.0481 -0.0403
12585W        W28719  14.041  12.080   5.637  0.3601 -0.2394 -0.0029
12586W        W28720   3.812   0.195   0.823  0.0202 -0.0588  0.2100
12587W        W28721   2.177  13.991  16.367 -0.3729  0.2084 -0.2000
12588W        W28722  16.830  14.183  13.944 -0.1084 -0.0922 -0.2940
12589W        W28723   3.654  17.064  14.171 -0.1055  0.1374 -0.0300
12590W        W28724   5.397  13.917  12.616 -0.4319 -0.0401  0.0259
12591W        W28725  11.926  14.844   1.647 -0.2878  0.1125 -0.2296
12592W        W28726   1.279   8.188  14.100  0.1586  0.1107  0.0238
12593W        W28727   1.245  15.334  13.812 -0.0321  0.1273  0.0229
12594W        W28728   7.659   8.753   3.862  0.0021  0.0009  0.3510
12595W        W28729   0.195   9.194   3.541 -0.1104 -0.0006  0.1052
12596W        W28730  14.791  11.815   0.003 -0.0841 -0.0320  0.0244
12597W        W28731   7.341   5.176   2.703  0.0907 -0.1622  0.0167
12598W        W28732  16.048   8.059   2.748  0.1562  0.3238  0.0965
12599W        W28733  10.945  13.314  13.541 -0.0428  0.2250  0.0498
12600W        W28734   4.164  13.882   2.811 -0.3093  0.0719 -0.0181
12601W        W28735  11.721  10.305  13.148 -0.1508 -0.2512 -0.0855
12602W        W28736   9.740   0.760   1.706  0.0537 -0.0319 -0.1475
12603W        W28737  11.524   9.828  15.860  0.1470  0.1519 -0.2527
12604W        W28738   8.218   6.839   2.521  0.0648 -0.0032  0.0142
12605W        W28739  12.261  17.172   5.699 -0.2688 -0.1308 -0.0130
12606W        W28740   7.428  11.448   3.550  0.2191 -0.0535 -0.0312
12607W        W28741   7.748   3.977   3.890  0.2153 -0.0659  0.1206
12608W        W28742   4.100  10.439   2.615  0.1748 -0.0670  0.0119
12609W        W28743  11.343   6.235   5.425  0.1651 -0.2953 -0.1150
12610W        W28744   7.355  11.694  14.415  0.1283 -0.2999  0.2750
12611W        W28745  12.445   0.148   6.165 -0.2683  0.0509 -0.1064
12612W        W28746  15.371   6.820   3.835 -0.1484  0.2518 -0.0588
12613W        W28747   6.508   1.799   5.829 -0.0046  0.1005  0.1316
12614W        W28748   6.273   1.806   0.594 -0.2956  0.1443  0.1397
12615W        W28749  12.953  17.573   2.715 -0.0690 -0.1469 -0.2477
12616W        W28750  13.488   3.703  16.977 -0.1549 -0.1104 -0.0061
12617W        W28751   7.814   8.889   4.386  0.0999  0.0075 -0.2079
12618W        W28752   5.819   1.845   5.093 -0.1416 -0.1020  0.0577
12619W        W28753   8.744  13.169   1.799  0.2532  0.1395  0.2427
12620W        W28754   1.182  13.667   0.653 -0.1899 -0.1907 -0.0760
12621W        W28755   5.112  12.105  12.403  0.0045  0.3529  0.0194
12622W        W28756  17.655   3.671  16.293 -0.0206  0.0559 -0.1356
12623W        W28757  14.366   5.084   5.574 -0.3967  0.2996  0.0308
12624W        W28758   5.639   2.913  14.040 -0.0175  0.2887 -0.2084
12625W        W28759   0.069   2.756  12.912 -0.0958  0.3169 -0.1791
12626W        W28760   7.832  13.792  14.848 -0.0733  0.1230 -0.0660
12627W        W28761  13.061   9.164  16.827  0.0296 -0.0444  0.0144
12628W        W28762   5.214   7.144  16.286 -0.0217  0.0367  0.1601
12629W        W28763   9.647  14.833   5.979 -0.0085  0.2817  0.0665
12630W        W28764  13.068   7.364   1.983  0.0140  0.0512 -0.1737
12631W        W28765   4.223   4.804   1.060  0.1247  0.2113  0.3375
12632W        W28766   7.011   0.292   5.995  0.0905  0.1213 -0.0581
12633W        W28767   0.865   4.673  15.545  0.0294  0.1021 -0.2565
12634W        W28768   7.642   3.662   3.440 -0.4108  0.4176  0.0063
12635W        W28769  10.113  12.244   5.896  0.0587  0.0239 -0.1128
12636W        W28770  15.947  17.592   2.492  0.0896 -0.2674 -0.3221
12637W        W28771   2.456  14.356   3.537  0.1889  0.2702 -0.3881
12638W        W28772  15.908   4.838  11.377 -0.0471 -0.2630  0.2284
12639W        W28773   2.932   9.595   3.555 -0.1085 -0.0003 -0.0779
12640W        W28774   1.653  13.915   3.758 -0.1465 -0.0327 -0.1101
12641W        W28775  14.571  14.996  13.905  0.2145 -0.0606  0.0627
12642W        W28776   6.426  14.236  14.381  0.0241  0.0088 -0.0572
12643W        W28777   5.910   3.023  12.808  0.1524 -0.0898 -0.0760
12644W        W28778  13.909  12.130   0.675  0.0099 -0.0850 -0.3176
12645W        W28779  12.475  14.727  14.010  0.1000  0.1496  0.1909
12646W        W28780   4.086   6.655  14.310  0.1309  0.0340 -0.1193
12647W        W28781  13.367   8.839  11.613  0.2145  0.1077 -0.2634
12648W        W28782  17.280  15.676  14.626  0.1558 -0.0002 -0.2177
12649W        W28783  15.573  16.323   4.508  0.1528  0.0458 -0.2273
12650W        W28784  10.080  11.445  16.592 -0.1673 -0.1609  0.2052
12651W        W28785   9.389   9.779  15.415  0.1569 -0.2668 -0.0334
12652W        W28786  16.879  14.852   1.781  0.0016 -0.0895 -0.0461
12653W        W28787   0.747   0.845   1.703  0.1317  0.1009  0.2659
12654W        W28788  13.421  15.829   4.495 -0.0256  0.0922  0.1614
12655W        W28789  12.880   0.435  16.844 -0.0481 -0.1338 -0.0482
12656W        W28790   6.780  11.631  16.552  0.1009  0.0240 -0.2389
12657W        W28791  12.023  13.022   3.854 -0.2003 -0.2102  0.1539
12658W        W28792   7.737   9.098   0.320 -0.0479  0.0897  0.2223
12659W        W28793   4.692  15.210  12.680 -0.0554 -0.0286 -0.0279
12660W        W28794  15.602  11.570   3.464 -0.0666  0.1535 -0.5040
12661W        W28795   2.595  10.364   5.561  0.1192  0.1932 -0.0582
12662W        W28796  12.929   7.249   5.276  0.1065  0.1726  0.0838
12663W        W28797   3.433   3.288   1.566 -0.5707 -0.1676  0.0317
12664W        W28798   6.623   2.111  15.781 -0.2270  0.1644  0.1408
12665W        W28799   5.474   9.226   4.776 -0.0289 -0.1646 -0.0506
12666W        W28800   3.143  14.131   6.193 -0.0052  0.0908 -0.1715
12667W        W28801  10.341  13.910   1.698  0.1766  0.0567  0.1785
12668W        W28802   1.505  10.037  14.567 -0.2257  0.1080  0.2132
12669W        W28803  13.275   6.914   2.221  0.1694  0.1129  0.0006
12670W        W28804  11.233   4.153  14.327 -0.0279  0.0576  0.1631
12671W        W28805   1.945   5.718   0.720  0.0695  0.0903 -0.0782
12672W        W28806   7.823  10.454  14.734 -0.2419  0.2351 -0.0986
12673W        W28807   3.573   3.445   2.561  0.3698  0.1053 -0.0171
12674W        W28808   2.739   2.358  17.121 -0.4151  0.3275  0.1681
12675W        W28809  10.129   6.863  16.838 -0.0418 -0.2999  0.0771
12676W        W28810  11.718  13.738  14.300  0.0956 -0.3457 -0.1478
12677W        W28811   9.927  11.354   2.570 -0.4572  0.0263  0.0398
12678W        W28812  16.280   4.565  16.741  0.2527  0.0729 -0.1608
12679W        W28813  17.475  16.087  12.067  0.0005  0.1453  0.0501
12680W        W28814  15.896   4.468  11.855  0.2661  0.0903 -0.2421
12681W        W28815  14.064  14.271  12.376  0.0659 -0.1345 -0.2907
12682W        W28816  13.455   4.703  15.193 -0.0325 -0.1138 -0.1964
12683W        W28817  14.370   5.526  11.275  0.2243 -0.1841 -0.0069
12684W        W28818  13.131  12.041   5.638  0.0771  0.0203 -0.2999
12685W        W28819   9.709  16.851   4.067  0.2301  0.0982 -0.0226
12686W        W28820   7.652   3.161   3.314  0.2845 -0.0465  0.0750
12687W        W28821  15.799   9.099   2.830 -0.0412  0.0232 -0.2636
12688W        W28822  16.410   6.232   3.863  0.0580 -0.3227  0.0897
12689W        W28823   9.629   0.496  12.554  0.1603 -0.1619  0.2472
12690W        W28824  14.617   0.194   4.419  0.0815 -0.5694  0.3075
12691W        W28825   2.627   7.110   2.904  0.1796 -0.1824 -0.1386
12692W        W28826   4.160  10.924  14.540  0.1664  0.3698  0.1127
12693W        W28827   1.655   5.777   2.454 -0.1397  0.0351 -0.0901
12694W        W28828  15.018  13.933   2.688 -0.0614 -0.1308 -0.1780
12695W        W28829   5.528   7.297   2.522  0.2512  0.1368  0.0806
12696W        W28830  14.193   1.030  16.499  0.0942 -0.0750 -0.0602
12697W        W28831   5.148  11.109  13.281 -0.2351  0.2866  0.4953
12698W        W28832  15.399   1.985  13.827  0.0123  0.0274 -0.1886
12699W        W28833   5.007  17.212   0.889  0.0458 -0.0230  0.1250
12700W        W28834  13.534  12.802  16.922 -0.0205  0.0328 -0.1692
12701W        W28835   5.049  11.442   3.182 -0.0695  0.1371  0.2041
12702W        W28836  11.911  11.529   3.625 -0.2491 -0.0123  0.2496
12703W        W28837   4.014  11.552   3.432  0.0622  0.0029 -0.3027
12704W        W28838   6.880  10.252   5.403 -0.0136  0.0756  0.2985
12705W        W28839  14.550   2.984   4.608 -0.1510 -0.3019 -0.4305
12706W        W28840  16.653  13.617   6.493  0.1170  0.0996  0.0270
12707W        W28841  17.576   2.903   6.714  0.1820  0.1208  0.2615
12708W        W28842   1.119  12.418  15.479  0.0568  0.1303  0.3199
12709W        W28843   3.746   3.757   5.948 -0.0611  0.1613  0.2021
12710W        W28844   0.308   9.682  12.872  0.1729  0.2043  0.1180
12711W        W28845  13.517   2.144  12.844 -0.0547 -0.0252 -0.0623
12712W        W28846   7.564  12.172   3.557  0.0314  0.1800 -0.1436
12713W        W28847   4.782  15.342   5.930  0.1333  0.1238 -0.2378
12714W        W28848  13.861  16.628   6.337 -0.0111  0.4285  0.1402
12715W        W28849   6.763   4.882  12.040 -0.2615 -0.1430  0.0221
12716W        W28850   7.823   1.779  14.933 -0.1869 -0.3340  0.2612
12717W        W28851   3.494   1.195  16.128 -0.0965  0.1441  0.1738
12718W        W28852   0.162  16.292   5.188  0.0280  0.0784  0.0078
12719W        W28853   5.851   2.144   3.290  0.2674 -0.1094  0.0589
12720W        W28854   0.448   9.935  13.326  0.0686 -0.1067  0.1967
12721W        W28855   1.230  14.660   0.935  0.0702  0.0144  0.0491
12722W        W28856   3.370   3.708   6.725  0.1356 -0.2089  0.1299
12723W        W28857   3.481  13.165   3.609  0.0445 -0.0309  0.1590
12724W        W28858  13.195   4.062  16.788  0.2659  0.0940  0.2247
12725W        W28859   4.548  12.477  11.392  0.3218 -0.2079 -0.0193
12726W        W28860  11.102   1.844   4.294  0.1806 -0.2139 -0.1456
12727W        W28861   2.823   9.825   4.969  0.6502  0.0537 -0.0909
12728W        W28862   3.350   0.301  12.875 -0.0341  0.1421  0.0811
12729W        W28863   0.225   5.330   3.406  0.1035 -0.2243  0.0414
12730W        W28864  12.845   8.759  12.648  0.2332 -0.0844 -0.2480
12731W        W28865  10.085   2.100  15.473  0.1792 -0.0555  0.0155
12732W        W28866   0.896  10.306   2.857 -0.2298 -0.2892 -0.0129
12733W        W28867   4.689   6.404  15.895 -0.1120  0.0791 -0.3101
12734W        W28868   6.298   0.888  12.001 -0.2636  0.0711  0.1506
12735W        W28869  14.992  16.313  12.413  0.2613 -0.0437 -0.1713
12736W        W28870  12.193  15.559  13.038  0.0929  0.1403  0.0712
12737W        W28871   6.558   8.947   3.958  0.0428 -0.0355  0.0037
12738W        W28872  12.883   0.981  12.616  0.1686 -0.2435 -0.1830
12739W        W28873  12.661  13.129   0.620 -0.1736 -0.1929 -0.0045
12740W        W28874  10.460   9.094   4.392  0.2416 -0.1344  0.0208
12741W        W28875   7.491  12.133   2.758  0.3291  0.1953  0.1309
12742W        W28876  13.849  14.208   1.782  0.1844  0.1380  0.1222
12743W        W28877  16.800   2.569   1.660  0.0974  0.0806  0.1618
12744W        W28878  12.925  15.082  13.531 -0.0635  0.0361 -0.1315
12745W        W28879  17.662   7.693  11.226 -0.2896  0.0063 -0.0974
12746W        W28880   7.353  13.913  11.839  0.0403 -0.1060  0.1370
12747W        W28881  14.107  12.597  14.039 -0.1422 -0.1013  0.0973
12748W        W28882   1.909  14.392   1.698  0.1380 -0.1244  0.3527
12749W        W28883  17.536   9.191  15.617 -0.1133 -0.2356 -0.1912
12750W        W28884   1.677   4.099  12.250 -0.4366 -0.0408 -0.0930
12751W        W28885   8.739  10.287   2.226 -0.1970 -0.2216  0.2623
12752W        W28886  13.779   7.707   0.712  0.0191  0.1700 -0.0271
12753W        W28887   1.147  10.655  12.176  0.1306  0.0105  0.0444
12754W        W28888  13.148   4.380   2.288 -0.0496 -0.3165  0.0966
12755W        W28889  15.971  13.266   3.686  0.1268  0.0836 -0.1629
12756W        W28890   6.218  13.439  16.529 -0.0954 -0.0358  0.2073
12757W        W28891   7.078  13.802  12.914  0.1306  0.3697 -0.0119
12758W        W28892  13.001   4.719  15.973  0.2147 -0.4188 -0.2565
12759W        W28893  10.515  15.430  16.646 -0.0804 -0.1913  0.1292
12760W        W28894   1.120   7.261  12.615 -0.2722  0.3390 -0.0317
12761W        W28895  12.170  15.422   0.006 -0.0911  0.0187 -0.3556
12762W        W28896   6.114  16.076   2.421 -0.0574  0.0495  0.0874
12763W        W28897   2.387  10.894  13.120 -0.1011  0.0957 -0.0427
12764W        W28898   5.242  15.559  14.504  0.1835  0.0790  0.0527
12765W        W28899   8.243  11.441   1.821 -0.1816  0.0091  0.2421
12766W        W28900   8.159  17.080  14.832  0.0105  0.1966 -0.2319
12767W        W28901   0.566   5.103   1.463  0.0516  0.2953  0.1625
12768W        W28902   4.234   4.126   4.556 -0.3049 -0.2435  0.3503
12769W        W28903   3.909  14.485  13.244  0.0262  0.2047 -0.0653
12770W        W28904   0.799  10.341  16.048  0.0889  0.1012  0.1790
12771W        W28905   7.203  15.795  14.310 -0.1546 -0.2601 -0.1606
12772W        W28906   1.567   3.074   1.237  0.1302 -0.0982 -0.0089
12773W        W28907   8.812   4.004   4.625  0.1052  0.0323 -0.2645
12774W        W28908   1.064  14.792  15.179 -0.1631 -0.2712 -0.1101
12775W        W28909  13.294   0.972   0.210  0.3550 -0.1708  0.0243
12776W        W28910   0.660   8.880   3.362 -0.2192  0.0035 -0.0621
12777W        W28911   4.418  11.607  13.874  0.0155 -0.0761  0.0350
12778W        W28912  14.955   0.713  13.282  0.3013  0.0640  0.0115
12779W        W28913   7.089  15.489   1.591 -0.1504  0.2966 -0.1834
12780W        W28914   7.574  17.047  14.333 -0.1299  0.3009  0.1219
12781W        W28915   9.378  15.313  11.941  0.3054 -0.0344 -0.4340
12782W        W28916   9.934  17.470   6.182 -0.4721 -0.1586  0.0122
12783W        W28917  10.560  11.424   2.368  0.4420 -0.0873 -0.2128
12784W        W28918   3.604  16.543  15.172  0.0728 -0.0047  0.0480
12785W        W28919  15.330   6.686   0.980  0.1452 -0.0019  0.0785
12786W        W28920   0.736   8.750   2.445  0.0398  0.0593 -0.2341
12787W        W28921  16.742   0.668  17.117  0.1717 -0.3080  0.0435
12788W        W28922   4.959  14.480   0.763 -0.0818  0.0327 -0.0462
12789W        W28923   0.165   4.431   2.450 -0.1356  0.0820  0.1369
12790W        W28924  12.352  16.019  15.390  0.0158  0.4634 -0.1134
12791W        W28925   3.348  15.618  12.014  0.2335 -0.1112 -0.1391
12792W        W28926  15.856  11.858  15.430 -0.0338  0.1125  0.0247
12793W        W28927   3.934   4.791  11.899 -0.0786 -0.0898 -0.0353
12794W        W28928   6.558  10.152  14.139 -0.0618  0.2286 -0.1792
12795W        W28929  10.654  15.054  12.185 -0.0264 -0.0013  0.2094
12796W        W28930  17.000   8.813   2.481 -0.2383 -0.2553  0.2094
12797W        W28931  15.842  14.652   0.923 -0.0781 -0.0592 -0.1546
12798W        W28932  12.678   8.702  14.317 -0.1319 -0.3022  0.0804
12799W        W28933  14.070   2.368  16.836  0.0446 -0.1322 -0.1681
12800W        W28934  13.543   4.946   2.562 -0.0560  0.0122  0.1416
12801W        W28935   6.177  12.756   1.461  0.0768  0.2521  0.2767
12802W        W28936  13.365  13.741  16.565  0.1951 -0.1346 -0.1892
12803W        W28937   5.421   2.712   3.929 -0.3160 -0.1024 -0.0659
12804W        W28938  13.638  11.084   6.132  0.1094  0.0387  0.0254
12805W        W28939  11.051   3.124  14.679  0.0024  0.5203 -0.0560
12806W        W28940   3.329   2.556  13.507  0.3542 -0.0944  0.2504
12807W        W28941  15.692   0.231   0.124  0.1741 -0.1602 -0.0132
12808W        W28942  13.714   0.355  13.254  0.2868 -0.0534  0.1283
12809W        W28943   4.301   6.760   0.789  0.2210 -0.2330 -0.0201
12810W        W28944   5.858   4.804   4.578  0.0133 -0.3483 -0.5220
12811W        W28945   5.104   2.295  15.446 -0.0307  0.0396 -0.2147
12812W        W28946   3.725  10.980   0.677 -0.0613 -0.0105  0.1115
12813W        W28947   6.685  13.191   4.926  0.0203  0.3567  0.1704
12814W        W28948  17.357   3.421  15.954  0.0114  0.4971 -0.1616
12815W        W28949   2.272  15.327   0.464  0.0035  0.0740  0.0333
12816W        W28950  12.179  14.626   4.128  0.1758 -0.2241  0.1664
12817W        W28951  14.291   7.878   0.651  0.0225  0.2404  0.3718
12818W        W28952  13.776   3.766  13.124 -0.2526  0.2747  0.0839
12819W        W28953  13.796  15.897   3.254 -0.2198  0.0549 -0.0173
12820W        W28954  14.310   7.565   2.584  0.1191 -0.1730  0.1809
12821W        W28955   7.242   8.497  15.390  0.0809  0.1662 -0.0795
12822W        W28956   2.603  17.287  14.161 -0.1803 -0.2573 -0.0494
12823W        W28957   2.788  14.126  12.249  0.2236  0.0027 -0.2268
12824W        W28958  10.362   7.349  12.408 -0.0434  0.2700 -0.0198
12825W        W28959  14.406   5.066   5.044 -0.0272 -0.0243  0.0166
12826W        W28960   9.769   7.010   2.551 -0.0167  0.1691 -0.1818
12827W        W28961   5.799   9.183  11.992 -0.1915  0.3003  0.2291
12828W        W28962  13.396   4.610  16.632 -0.0790  0.0201 -0.1560
12829W        W28963  15.694   6.865  15.188  0.0354  0.1277  0.2093
12830W        W28964   4.788  14.486  12.116  0.2666 -0.0103 -0.1346
12831W        W28965  13.314  12.806  16.195 -0.2544  0.1931  0.0558
12832W        W28966  15.896   3.766   4.649 -0.0746  0.1257 -0.3251
12833W        W28967   3.522  17.553  15.540 -0.1910  0.1675 -0.0507
12834W        W28968  16.732   8.284  11.278  0.0783  0.0409  0.1149
12835W        W28969  17.387   9.528   5.610 -0.1366 -0.0879  0.2344
12836W        W28970   5.185   2.268   1.817  0.1443  0.0814 -0.0292
12837W        W28971   2.489  10.119   0.532 -0.1106  0.1409 -0.2458
12838W        W28972   6.076   5.377  16.887  0.3746 -0.0124  0.0583
12839W        W28973   8.941  16.730  15.587 -0.0806 -0.0583 -0.1356
12840W        W28974   8.928   5.346  12.348  0.0101  0.0014  0.0267
12841W        W28975  11.300   4.200  13.765 -0.2447 -0.1942  0.0119
12842W        W28976  13.370  17.392   2.071 -0.0074  0.0604 -0.3236
12843W        W28977   1.232  14.867  13.176  0.0531 -0.0572  0.1576
12844W        W28978   1.501  17.228  12.779 -0.2058  0.1125 -0.0149
12845W        W28979   1.504   2.750  11.540  0.0603 -0.1506 -0.1220
12846W        W28980   6.780   0.408  12.971 -0.0142 -0.1169 -0.1024
12847W        W28981   0.148   8.913  13.766 -0.1012  0.1939 -0.1051
12848W        W28982  14.833   4.987  14.000 -0.1878 -0.0565 -0.1145
12849W        W28983   3.245  12.377  13.278  0.2312 -0.0141  0.0396
12850W        W28984  11.895   5.735  12.991 -0.0750 -0.0180 -0.1252
12851W        W28985   6.953  12.509   5.315  0.0385 -0.0304  0.1191
12852W        W28986   2.581   7.273  13.202 -0.0034  0.0293  0.0706
12853W        W28987   7.151   9.536  12.185  0.0816  0.2357  0.1057
12854W        W28988   5.528   0.514   2.850  0.2114 -0.0637 -0.1435
12855W        W28989  10.619  11.479  15.464  0.1891 -0.1081  0.1582
12856W        W28990   6.733  11.899  14.099 -0.2188  0.1971  0.2654
12857W        W28991   6.035   7.628  11.851 -0.2672 -0.0323  0.0122
12858W        W28992  17.310  16.111   0.269 -0.0327 -0.0645  0.2767
12859W        W28993  11.692   5.717   2.925  0.3881 -0.1665 -0.2063
12860W        W28994  13.745  11.452   3.815 -0.3634 -0.2080 -0.0202
12861W        W28995  17.279   5.102   0.631  0.1484 -0.0034  0.0059
12862W        W28996   1.204   9.216   1.639 -0.3811  0.1823 -0.0832
12863W        W28997   3.803   1.169  12.363  0.2290  0.1595  0.0283
12864W        W28998   8.746  15.951   1.044 -0.1889 -0.0999  0.0520
12865W        W28999  15.517   1.894  15.688  0.1423 -0.1446  0.4240
12866W        W29000  17.090   0.039   5.958  0.1022 -0.1170  0.1254
12867W        W29001   1.185   5.977  13.577  0.3549  0.2265  0.2439
12868W        W29002  13.029   6.761   0.927  0.0898 -0.2447  0.3242
12869W        W29003  12.116  13.287   0.039 -0.0452 -0.0556 -0.2292
12870W        W29004  14.340   9.299  12.514  0.1405 -0.0042 -0.0778
12871W        W29005  13.674  13.013   5.258 -0.0030  0.0158  0.1253
12872W        W29006   4.723   7.670  12.393  0.0619 -0.0552  0.1060
12873W        W29007   0.599   3.662   6.514 -0.1222  0.0618 -0.1733
12874W        W29008   7.099   8.705  16.645 -0.2766  0.1747  0.1604
12875W        W29009  15.122   5.433  16.460  0.0743 -0.2270 -0.4555
12876W        W29010  17.646   3.392  14.054 -0.1698  0.0754 -0.2343
12877W        W29011   0.714   4.244   3.029 -0.0568 -0.1828  0.1139
12878W        W29012  10.684   4.018  12.352  0.1472 -0.1410  0.1521
12879W        W29013   9.077  15.141   4.507 -0.1567  0.3858 -0.0080
12880W        W29014  16.186  17.575   0.261 -0.0271  0.0359 -0.0753
12881W        W29015  12.794   7.729  16.948  0.2189 -0.0663  0.0476
12882W        W29016   8.303   7.867   1.081  0.2620 -0.0410 -0.0124
12883W        W29017  17.532   8.037   0.290 -0.1013 -0.1692 -0.3956
12884W        W29018   8.992  14.553   2.744 -0.1461 -0.0635 -0.0826
12885W        W29019  15.642   9.736   3.048  0.0365 -0.0728  0.3043
12886W        W29020   6.455   0.907   4.390 -0.0488  0.1306 -0.3587
12887W        W29021  14.226  12.855  11.970 -0.0726 -0.0252 -0.1173
12888W        W29022   2.775  14.155   5.798  0.3453 -0.0851 -0.0323
12889W        W29023   2.956   0.738  16.883 -0.0087  0.0780 -0.0639
12890W        W29024  15.361   0.989   6.810 -0.0142  0.0339 -0.0533
12891W        W29025   6.362  14.828   3.269  0.4450  0.2784  0.0920
12892W        W29026  16.610   0.532   4.321 -0.4247 -0.1694  0.0154
12893W        W29027   6.623   9.785   1.410 -0.1832  0.0477  0.0043
12894W        W29028   0.406   8.286  14.587  0.1388  0.0731  0.0622
12895W        W29029   7.815   9.102  17.005 -0.1483  0.0847 -0.2142
12896W        W29030   1.511  14.052  14.772 -0.0919 -0.1406 -0.0781
12897W        W29031  16.689  12.000   2.391 -0.0501  0.1467  0.0442
12898W        W29032   0.690  14.161   6.033 -0.1064 -0.0765  0.0879
12899W        W29033  16.436  15.217   1.646  0.1967 -0.0345  0.1929
12900W        W29034   1.683  17.003   1.228  0.0050 -0.0756  0.2877
12901W        W29035  16.816  15.875   3.399  0.1310 -0.2085 -0.0675
12902W        W29036  13.196  13.651   1.027  0.4101  0.1767 -0.1319
12903W        W29037   2.840  13.785   4.349  0.1288  0.2920  0.0344
12904W        W29038   8.732   9.861   3.677 -0.3983 -0.2514  0.0529
12905W        W29039   7.146   3.168  12.214 -0.1979  0.2979 -0.2065
12906W        W29040   9.093   3.076  16.648  0.1112 -0.1432 -0.0590
12907W        W29041  16.593   9.367   3.619  0.0813  0.2422  0.1126
12908W        W29042   7.339   3.627  17.164 -0.0929  0.2817 -0.3175
12909W        W29043   3.061   2.948  13.878  0.2866 -0.1234 -0.0455
12910W        W29044   4.028   6.715  16.993  0.0635 -0.0600  0.0436
12911W        W29045   2.496   7.422  14.990  0.4346  0.1304 -0.2735
12912W        W29046   5.699  13.664  16.465  0.3576 -0.1066  0.1529
12913W        W29047   5.672   9.820  13.610  0.0524  0.2006  0.0190
12914W        W29048   6.731  16.370  15.280 -0.1372 -0.1270  0.0942
12915W        W29049  12.692   1.953   4.437 -0.0344 -0.4043  0.0772
12916W        W29050  12.802   0.804   0.021 -0.1359 -0.0703  0.3931
12917W        W29051   7.887   9.980   0.653  0.1045  0.0910  0.2153
12918W        W29052   8.607   5.935  12.281 -0.3093  0.0011  0.0455
12919W        W29053   3.748   4.446   2.116  0.0400 -0.1923 -0.1239
12920W        W29054  14.423  16.170  14.205  0.1620 -0.0139 -0.2233
12921W        W29055   1.694   6.821  13.639  0.1505  0.2108  0.0784
12922W        W29056   8.587  11.042  14.710 -0.2028 -0.2869 -0.1941
12923W        W29057   7.762   2.319  13.132 -0.1406 -0.2497  0.0610
12924W        W29058   6.296   5.249   5.844 -0.1975 -0.0367  0.3373
12925W        W29059  16.089   3.024   1.796 -0.1437 -0.1169 -0.2494
12926W        W29060   7.212  15.253   4.951 -0.0770  0.0887 -0.2461
12927W        W29061  17.345   9.293  16.099  0.2099 -0.0377  0.0415
12928W        W29062   8.492  13.730   4.596 -0.0236 -0.1167  0.0683
12929W        W29063   1.940   6.156   4.652  0.0029  0.0840 -0.0484
12930W        W29064   2.770   5.992   4.300  0.2926 -0.2495 -0.0005
12931W        W29065  16.510   9.601  13.779 -0.0946  0.1126  0.0733
12932W        W29066  16.446  13.083  12.100  0.2611 -0.0626 -0.0851
12933W        W29067  15.198   0.765  12.365 -0.1275 -0.1400  0.0069
12934W        W29068  13.258   4.601   4.967  0.2048  0.0795  0.1450
12935W        W29069   7.226  11.859  13.394  0.0144  0.3119  0.2093
12936W        W29070   2.246  11.461  14.756 -0.1665  0.0794 -0.1171
12937W        W29071   2.532   1.027  14.690  0.1028 -0.1636 -0.3470
12938W        W29072   0.867  14.927   0.657  0.2709  0.0375  0.0307
12939W        W29073  15.040   4.416  16.644 -0.2177  0.2371 -0.0275
12940W        W29074  14.237  11.832  13.540 -0.1902  0.4270 -0.2752
12941W        W29075   3.863   5.534  14.827  0.0264  0.2589  0.0456
12942W        W29076   2.571  14.334  16.464  0.0387 -0.1621 -0.0805
12943W        W29077   2.545  10.941  15.791 -0.1754  0.1811 -0.2018
12944W        W29078   8.204  15.165  16.187  0.1601  0.1287  0.0862
12945W        W29079  17.297   4.974  10.520 -0.0418  0.1245 -0.0598
12946W        W29080   3.407   0.663  13.285 -0.0767  0.1820  0.0926
12947W        W29081  14.850  13.156  12.895 -0.1021  0.1045 -0.2564
12948W        W29082   1.732  13.828  16.237 -0.0716  0.3212  0.3531
12949W        W29083  17.223   5.072  11.500 -0.2755 -0.0918  0.2915
12950W        W29084  15.378   2.444   5.886  0.4246  0.0213  0.0750
12951W        W29085   1.719   1.179  13.081  0.1222  0.0015  0.0663
12952W        W29086  16.867  12.381  13.638 -0.1669  0.0671 -0.0342
12953W        W29087   5.589   7.450  12.542  0.0617  0.2165  0.3204
12954W        W29088   2.713   8.227   1.988 -0.0776 -0.2268  0.1722
12955W        W29089   2.958  10.776  14.358  0.1817  0.3074  0.0592
12956W        W29090   1.514  13.793   4.565 -0.0322 -0.1256 -0.0929
12957W        W29091   8.072   2.779   3.550  0.0891 -0.2809 -0.3047
12958W        W29092  12.455  11.495   2.811  0.1347  0.0595 -0.2282
12959W        W29093   2.049   7.847   4.152  0.1001 -0.1203  0.1775
12960W        W29094   2.432   8.054  12.969 -0.2505  0.0102  0.0207
12961W        W29095  14.055   5.898  15.433 -0.3702  0.2134  0.1991
12962W        W29096  11.969  15.979   5.993 -0.0683  0.0801 -0.1376
12963W        W29097  17.362  12.354  14.454  0.0121 -0.0151  0.0492
12964W        W29098  17.160   7.093  16.981  0.3975 -0.1223  0.1547
12965W        W29099  17.144   2.541   3.832  0.2587 -0.0918  0.0822
12966W        W29100  16.164  13.858  15.410  0.2352  0.0096  0.0537
12967W        W29101  11.462   4.238  17.066 -0.2535  0.2549  0.1447
12968W        W29102  16.682  10.191   2.324  0.0106  0.0936 -0.1255
12969W        W29103  15.519  11.899   5.408 -0.2569 -0.0527 -0.1917
12970W        W29104  10.828   4.088   5.127 -0.1954 -0.3382  0.2846
12971W        W29105   5.293  15.588  11.802  0.0721  0.1547 -0.0296
12972W        W29106   2.177  13.496   1.230 -0.0073  0.0910 -0.1173
12973W        W29107  10.038  15.428  13.356 -0.0210 -0.0502  0.5312
12974W        W29108   5.149   8.343   1.519  0.3935 -0.0130 -0.1700
12975W        W29109   1.193   1.788   2.501  0.0734  0.2260 -0.0706
12976W        W29110  15.442   4.902  11.230  0.0415  0.0622  0.0747
12977W        W29111   8.583   7.063  14.433  0.1738  0.0366 -0.0727
12978W        W29112   9.786   7.537   1.732 -0.0501 -0.0156 -0.0032
12979W        W29113   5.522  13.548   5.228 -0.0847  0.1497 -0.2719
12980W        W29114  14.630  12.616   4.310  0.4387 -0.2705 -0.1741
12981W        W29115  15.897  13.014   2.124 -0.1008 -0.4266 -0.1227
12982W        W29116  14.891  11.273   1.191  0.0745  0.1191 -0.1341
12983W        W29117  16.871   0.578   0.721 -0.0239 -0.0351 -0.0042
12984W        W29118   8.311   8.706  14.851  0.1540 -0.1673 -0.1699
12985W        W29119  10.251  14.964   4.976 -0.2592  0.1874 -0.1611
12986W        W29120   3.469   5.462  12.753  0.0185 -0.1363  0.0250
12987W        W29121   3.733  14.467  13.809  0.2052 -0.1647 -0.2862
12988W        W29122   6.472  12.354   0.719 -0.1362  0.2487  0.1610
12989W        W29123  10.094   7.292   1.324  0.2711 -0.2471 -0.0630
12990W        W29124  12.689   3.134  12.192  0.3901  0.1278  0.0821
12991W        W29125  14.433   2.610  12.535 -0.2036  0.2105 -0.0008
12992W        W29126   0.250   3.341   0.058  0.5396 -0.0438 -0.0107
12993W        W29127  13.593  11.397  14.578 -0.1052  0.1466  0.2154
12994W        W29128  10.125   9.414  11.469  0.1105  0.0831  0.2206
12995W        W29129  16.325  14.142   1.669  0.0301 -0.0976 -0.1248
12996W        W29130   4.258   3.194  14.967  0.0611 -0.0378 -0.1178
12997W        W29131   8.149   9.623   2.449 -0.1171  0.4097  0.4491
12998W        W29132   5.974   9.398  13.737 -0.0007 -0.0606 -0.1370
12999W        W29133   9.202  12.384   1.984 -0.0667 -0.2818 -0.0136
13000W        W29134  12.807   6.309  16.052 -0.1525  0.1212 -0.0253
13001W        W29135   7.255  14.171   6.460  0.0022 -0.1450  0.1948
13002W        W29136  14.908  15.955  13.999  0.1553 -0.1852 -0.1452
13003W        W29137  14.309   8.718  16.002  0.0649 -0.4909  0.0783
13004W        W29138   4.488  10.275  11.783 -0.1524  0.0618  0.0565
13005W        W29139  12.457   8.269  16.416 -0.1659 -0.0403 -0.1097
13006W        W29140   1.203   4.488   5.079 -0.3171 -0.2104  0.3085
13007W        W29141   9.983  14.333   0.365 -0.1142 -0.0266  0.3474
13008W        W29142   2.151  12.393   0.022 -0.1618  0.0142  0.0418
13009W        W29143   3.635  10.254  12.188  0.0693  0.0576 -0.2900
13010W        W29144   6.338   4.411   0.655  0.0353  0.2687 -0.1014
13011W        W29145   1.145   0.401   3.272  0.1414  0.1202  0.2236
13012W        W29146   4.528   3.153   3.584  0.0745  0.0573  0.0109
13013W        W29147  11.938  10.426  15.639  0.0950  0.0609  0.0661
13014W        W29148  14.095   6.340   1.452 -0.3236  0.0952  0.2346
13015W        W29149  11.510   9.342   0.001 -0.2251  0.0067 -0.3249
13016W        W29150  10.626   1.946  14.303  0.1255  0.0998  0.1270
13017W        W29151   0.435   5.222   2.324  0.0890  0.1207 -0.2304
13018W        W29152   7.353  16.501  12.167  0.2206  0.2981 -0.3570
13019W        W29153   3.348  16.430   5.906 -0.0344 -0.0054  0.2753
13020W        W29154  14.290   4.399  14.711 -0.0372  0.1060 -0.0459
13021W        W29155   5.123  15.199  14.151  0.0139 -0.1412 -0.2099
13022W        W29156  12.663  14.515   0.176 -0.0956 -0.0920 -0.0271
13023W        W29157  14.242   3.469   4.320  0.3320 -0.0564 -0.2829
13024W        W29158  14.848  13.138  11.504 -0.0687 -0.1006 -0.1516
13025W        W29159  10.505  13.726   5.391 -0.0537  0.1283 -0.1832
13026W        W29160   1.310  11.725   5.535 -0.0859  0.1165 -0.1724
13027W        W29161   5.780  13.321   3.876  0.0194  0.1585  0.2579
13028W        W29162   4.900   8.054  13.627  0.2162  0.0254 -0.1011
13029W        W29163  10.723   3.924   0.396 -0.0488 -0.0733 -0.2072
13030W        W29164   3.116  11.487  13.150  0.1422  0.1122  0.0840
13031W        W29165   6.215   0.596   3.082  0.2949 -0.3250  0.1090
13032W        W29166  16.772  17.163   5.374 -0.1990  0.0003  0.0463
13033W        W29167  16.744  14.902  16.612 -0.0501  0.0434 -0.1700
13034W        W29168   7.109   5.645  15.959  0.0472 -0.0934  0.2259
13035W        W29169  17.461   0.231   6.266 -0.0289  0.1635 -0.3513
13036W        W29170  17.204   2.506  15.695 -0.3128  0.2713  0.2715
13037W        W29171  12.122   9.591  14.186 -0.0993  0.3485 -0.1461
13038W        W29172   5.448   2.668   1.439  0.0915  0.0573  0.3575
13039W        W29173   6.389   4.700  13.343 -0.2505 -0.0694  0.0968
13040W        W29174   5.095   0.711  16.624  0.1923  0.1086 -0.1212
13041W        W29175   7.672   4.870   4.137 -0.1681  0.0756 -0.0433
13042W        W29176   2.702   4.681   0.058 -0.2253  0.3020  0.0068
13043W        W29177  10.597  15.384  12.612  0.0747  0.2534 -0.2594
13044W        W29178  14.907  10.634  11.447 -0.0527  0.1440 -0.1152
13045W        W29179   5.688   9.502  11.605 -0.0804  0.0963  0.1362
13046W        W29180   2.768   9.833  13.896 -0.0504  0.1822 -0.3350
13047W        W29181  13.388   1.853   6.539  0.1557 -0.2014  0.0586
13048W        W29182  15.480   5.526   0.446  0.1302 -0.2289  0.1337
13049W        W29183   2.741  14.011  12.743 -0.1506 -0.0338  0.1622
13050W        W29184   2.996  17.441  16.344 -0.0720  0.0496  0.2717
13051W        W29185   6.192   5.138  13.462  0.1135  0.0021 -0.0385
13052W        W29186  10.133  17.516   5.540  0.2125 -0.0941  0.0707
13053W        W29187   2.006   0.813  17.138 -0.0647 -0.2122  0.3060
13054W        W29188   3.969  17.522   0.016 -0.2162 -0.3507 -0.0585
13055W        W29189  17.324   9.774   0.164 -0.0696  0.3257  0.0079
13056W        W29190  12.312   4.051  17.067 -0.1599 -0.0408 -0.0990
13057W        W29191   5.121  13.528   0.441  0.0989 -0.0880  0.1699
13058W        W29192  11.724   8.324   2.508 -0.1587 -0.0165 -0.0470
13059W        W29193   9.240  16.106   4.270 -0.0662  0.2230 -0.0940
13060W        W29194  14.360   8.358   4.221 -0.2920 -0.1445 -0.0996
13061W        W29195   7.613   6.679  13.506 -0.1050 -0.2253  0.0520
13062W        W29196   5.146  13.014  12.945 -0.2474  0.0600 -0.3125
13063W        W29197  10.479  15.176   5.855 -0.0464 -0.0031  0.0796
13064W        W29198  13.416  10.295  15.936  0.0475  0.0381 -0.0350
13065W        W29199   2.549   2.286   1.609 -0.1868  0.3472  0.1971
13066W        W29200   7.334   1.767   5.313  0.1263  0.1332 -0.0283
13067W        W29201   1.890  15.037   0.660 -0.0159 -0.4211  0.1169
13068W        W29202   2.324  14.010  15.474 -0.2177  0.0093 -0.2134
13069W        W29203  15.330   3.161  15.528  0.0404  0.1426  0.0135
13070W        W29204  13.328  16.972  14.726  0.1381 -0.0531  0.0181
13071W        W29205  11.569   0.672   0.064  0.0631 -0.0776  0.3545
13072W        W29206   2.725  17.644   4.758  0.0809 -0.1382 -0.0052
13073W        W29207   3.272  10.783  12.432  0.2181 -0.1199  0.0621
13074W        W29208   2.746  13.579  12.924  0.1020  0.0691 -0.1248
13075W        W29209  12.643   6.708   5.439  0.1863  0.0496  0.1762
13076W        W29210   1.916   2.632   6.360 -0.3701 -0.0408 -0.1753
13077W        W29211   5.113  14.267   4.280 -0.1667 -0.2122  0.1183
13078W        W29212  10.683   8.403   1.520 -0.3092 -0.0755 -0.1064
13079W        W29213  12.362   3.863  13.416 -0.2024 -0.0095 -0.3541
13080W        W29214   6.993   6.828   0.180  0.0163  0.0046  0.0524
13081W        W29215   0.477   7.700  12.188 -0.0964  0.1154  0.1293
13082W        W29216   8.484   7.683  16.797 -0.1828  0.0089  0.0086
13083W        W29217  11.779   5.440  11.506  0.4754 -0.1883 -0.0952
13084W        W29218   4.590  16.214  12.732  0.0798 -0.1740  0.0185
13085W        W29219  10.436  10.424   5.089 -0.0815 -0.0597 -0.0755
13086W        W29220  10.564   1.060   1.913 -0.1067 -0.0296 -0.0689
13087W        W29221   1.504   0.680  12.895  0.1899  0.0392  0.0170
13088W        W29222   1.144   0.720   5.237 -0.2235  0.1223 -0.1684
13089W        W29223   1.656   5.386  11.881  0.0166 -0.1183  0.2434
13090W        W29224  12.783  10.566   1.606 -0.0580 -0.1091  0.1895
13091W        W29225   8.300   2.094   6.192 -0.0384 -0.1648 -0.0228
13092W        W29226   5.810  13.799   2.290  0.1548  0.0881  0.1233
13093W        W29227  13.329   1.700  16.485  0.1285  0.1382 -0.1248
13094W        W29228   9.711  17.618  15.362  0.0543 -0.3361  0.2780
13095W        W29229   0.438   1.416  14.066  0.0943  0.1657 -0.1123
13096W        W29230   8.306   0.106  16.370 -0.1021  0.4740  0.1078
13097W        W29231   5.717   5.683   5.326 -0.1942  0.1391 -0.1297
13098W        W29232   8.672   4.164   5.105  0.0829  0.1284 -0.2845
13099W        W29233   3.324   9.340   5.773  0.0980  0.1590 -0.1887
13100W        W29234  12.228   9.944  14.502 -0.0905  0.1947  0.0542
13101W        W29235   1.861   6.847   3.314  0.1575 -0.0232  0.1161
13102W        W29236   5.028  13.806   2.902  0.1511 -0.0296  0.0143
13103W        W29237  12.391  16.920  17.010 -0.0352  0.0979  0.3186
13104W        W29238  12.804   8.640   2.227  0.1755 -0.2428  0.2236
13105W        W29239  11.145  11.596   6.637  0.2459 -0.1698  0.1244
13106W        W29240  13.464  13.452   0.591  0.0256 -0.0829 -0.2908
13107W        W29241  13.615   0.208   2.283 -0.0370 -0.2614 -0.1585
13108W        W29242  17.396  10.721  15.473 -0.0505  0.0149 -0.1827
13109W        W29243  13.277   5.031  14.728 -0.1126  0.0415  0.0997
13110W        W29244   4.084  16.738  16.510  0.2102 -0.2586  0.2092
13111W        W29245   9.724   4.913   3.864  0.1248 -0.0724  0.1415
13112W        W29246   9.348  11.277  11.852 -0.0303  0.0981 -0.0662
13113W        W29247   7.706  17.341  13.955 -0.1147  0.0730  0.0586
13114W        W29248   1.344  10.266  15.966  0.1102 -0.2044 -0.0819
13115W        W29249   9.539  14.268   0.023  0.0238  0.1349 -0.4997
13116W        W29250  12.661  12.429  12.402  0.1436 -0.3021  0.0511
13117W        W29251  11.010  11.860   6.244  0.0671  0.4101  0.2788
13118W        W29252  16.650   1.766   4.786 -0.0038  0.3035 -0.0917
13119W        W29253   4.238   3.005   4.197 -0.1214 -0.0370 -0.1331
13120W        W29254   6.347   1.300  12.899  0.0528  0.1066 -0.1355
13121W        W29255  10.800  16.993   2.476  0.0194 -0.0953  0.1457
13122W        W29256   8.461  10.924   3.607 -0.0507 -0.0016  0.3284
13123W        W29257   7.415   4.409  12.478  0.1344  0.1725  0.0996
13124W        W29258   2.091  13.720   2.878  0.0094  0.1610 -0.2985
13125W        W29259   0.593  17.173  12.599  0.0880 -0.1321 -0.3996
13126W        W29260  17.188  13.904  15.359  0.1491  0.2319  0.1981
13127W        W29261   9.580  14.655  14.744  0.0026  0.1385 -0.0870
13128W        W29262   0.660  11.693  12.397  0.2605 -0.1810  0.1041
13129W        W29263   8.001  13.417  11.873 -0.1597  0.1799  0.2378
13130W        W29264  17.346  10.798   2.607  0.2801 -0.3353  0.1872
13131W        W29265   1.435  12.374   4.830 -0.1742  0.0357 -0.1353
13132W        W29266  13.554  12.570   2.726 -0.1219  0.1965  0.1070
13133W        W29267   4.433   9.997   2.672 -0.0779  0.0445 -0.2742
13134W        W29268   5.343  15.208   2.578  0.1356  0.1148 -0.1426
13135W        W29269  16.940   8.939   0.425  0.0949 -0.0470  0.1336
13136W        W29270   2.364  16.738   1.387  0.3085 -0.3769  0.1039
13137W        W29271  15.871  15.644  15.521  0.0032 -0.3997  0.1319
13138W        W29272   3.260  16.429   1.273  0.0827 -0.0026 -0.0739
13139W        W29273  16.205   9.870  16.285 -0.0993  0.1050 -0.0840
13140W        W29274   0.929   2.952  11.583 -0.2849 -0.1585  0.0717
13141W        W29275  13.809  10.856  13.040 -0.3170  0.3591  0.3503
13142W        W29276  11.615  12.495   2.765 -0.0644  0.0393  0.1665
13143W        W29277  12.944  15.703   5.693 -0.2111 -0.1022 -0.0817
13144W        W29278   6.674  14.432  11.295  0.1559 -0.1734  0.3106
13145W        W29279   6.595  14.149  16.903  0.1287 -0.0046 -0.1468
13146W        W29280   7.788  11.319   3.169 -0.0678  0.1032  0.1979
13147W        W29281  16.483   6.968  11.168 -0.0009 -0.2022  0.4059
13148W        W29282   5.881   9.167   0.404  0.0213  0.3093  0.1216
13149W        W29283   4.976   3.831  11.462 -0.1200 -0.2940 -0.2917
13150W        W29284   9.233   9.173  16.206  0.0619  0.0064  0.4143
13151W        W29285   4.557   6.317   4.224 -0.1994 -0.2312  0.0606
13152W        W29286   3.010  11.521   0.484 -0.1029 -0.1827 -0.0793
13153W        W29287   3.276  10.323  12.627  0.1311 -0.2310  0.1195
13154W        W29288  17.458   3.807   2.231  0.1220 -0.2629  0.1111
13155W        W29289  11.729  14.418  12.368  0.2095  0.1838  0.0035
13156W        W29290   4.341   2.922  12.999 -0.1489  0.1737 -0.0925
13157W        W29291  14.398  13.464   1.508  0.0029 -0.1062  0.0716
13158W        W29292   9.978   6.687  13.294 -0.1298 -0.0559 -0.1596
13159W        W29293  15.709  10.908  16.791 -0.1442  0.2164 -0.2074
13160W        W29294  15.077   8.787   1.733  0.2287 -0.0404  0.1371
13161W        W29295   7.679   1.896  17.002  0.0379 -0.0803  0.2450
13162W        W29296   0.183   3.898  13.990 -0.1066 -0.3257  0.2130
13163W        W29297   8.585  13.385   6.328 -0.0376  0.1807  0.2766
13164W        W29298   6.012  14.541  14.118 -0.2755 -0.1345  0.1102
13165W        W29299   3.078   4.935   4.667  0.0518 -0.4368  0.0617
13166W        W29300   5.802   0.828  11.219  0.1582 -0.2308  0.0663
13167W        W29301  13.533   2.018   1.002 -0.3595 -0.2292  0.0405
13168W        W29302   0.492   4.250  16.933 -0.2614 -0.0122 -0.0401
13169W        W29303   5.411   3.539  16.667 -0.0615 -0.1450 -0.1122
13170W        W29304  10.552  13.312  13.875  0.1409 -0.1658 -0.2673
13171W        W29305  12.065   0.033  12.766  0.3233 -0.1316 -0.0799
13172W        W29306  11.625  17.567   4.454  0.1619 -0.3614  0.0104
13173W        W29307   5.860   3.852  12.174  0.0897 -0.2447 -0.2121
13174W        W29308   9.672   1.788   2.796  0.0361  0.1098 -0.1355
13175W        W29309   7.915   5.952   1.543 -0.0930  0.1160 -0.2612
13176W        W29310   9.546  12.817   5.330  0.0280 -0.0247 -0.2710
13177W        W29311   5.567   3.565   4.409 -0.1581  0.1677 -0.1649
13178W        W29312   8.293  11.246   4.576 -0.0059 -0.1178  0.3012
13179W        W29313  17.260   6.067  15.179 -0.0739 -0.2043  0.0243
13180W        W29314  17.190  12.832  13.486  0.0442  0.1654 -0.1050
13181W        W29315  14.043   3.221   2.057  0.1426 -0.0924  0.0178
13182W        W29316  17.299   8.935  12.804  0.0342 -0.2053 -0.2668
13183W        W29317  12.691   7.154  16.913  0.3385  0.0822  0.3307
13184W        W29318   7.413   6.837  13.928  0.0566 -0.0034  0.0903
13185W        W29319   4.381  16.788  16.075 -0.1477 -0.3167 -0.1629
13186W        W29320   2.751  15.227   0.450  0.0040  0.1712 -0.1787
13187W        W29321  12.238   1.586  11.778  0.1619  0.1025 -0.0340
13188W        W29322   6.526   7.318  16.495 -0.0766 -0.0355 -0.0010
13189W        W29323   1.583   7.585   0.779  0.0887 -0.3407  0.1426
13190W        W29324   4.827   6.273  15.303 -0.2861  0.0621  0.0585
13191W        W29325  13.186   9.083   3.317  0.0079  0.1624 -0.1119
13192W        W29326   8.930   5.811  13.657 -0.0446 -0.2698  0.4259
13193W        W29327  16.261   7.643  14.835  0.1544  0.1296 -0.0661
13194W        W29328  13.693   5.164  14.948 -0.0760  0.5980  0.2348
13195W        W29329  10.025   2.973   5.456  0.1582 -0.1775  0.0522
13196W        W29330   7.252   7.302  13.893 -0.2304  0.2737 -0.0563
13197W        W29331  16.416  14.532   3.926  0.1955  0.0930  0.1049
13198W        W29332  13.909   3.874   4.520 -0.0702  0.0204  0.0143
13199W        W29333   3.959   1.076   5.983  0.0376 -0.2203 -0.2171
13200W        W29334   9.293   2.111   3.067 -0.0712  0.2512 -0.0462
13201W        W29335  16.289  17.059   0.214 -0.0352 -0.0618  0.0747
13202W        W29336   1.882  11.090  16.249  0.0257  0.0034 -0.1701
13203W        W29337   8.587   3.123  17.156 -0.1474 -0.0641  0.1203
13204W        W29338  17.227  12.772  13.974 -0.1396 -0.3098 -0.0968
13205W        W29339   0.701   7.314  16.496  0.2848  0.1307 -0.2419
13206W        W29340  17.535  15.180   6.227  0.4741  0.1343  0.2734
13207W        W29341   3.907   5.349   2.751 -0.1012 -0.0472 -0.1546
13208W        W29342   5.166   6.946   1.174 -0.0764 -0.2447 -0.0746
13209W        W29343  12.327  12.169  13.296 -0.0837  0.0340 -0.1744
13210W        W29344   7.522  16.200  15.860  0.1442  0.0031  0.1678
13211W        W29345   4.019  14.352   0.095  0.2558  0.0353  0.2184
13212W        W29346   8.021  10.886  13.866 -0.0120  0.0029 -0.0317
13213W        W29347  13.896  13.517  14.947  0.2600 -0.2971  0.1678
13214W        W29348   4.032  15.245  14.360  0.0200 -0.0240  0.0752
13215W        W29349  16.296  17.648   6.045  0.0626 -0.1434  0.0232
13216W        W29350  10.759   1.419   5.920 -0.3102  0.2359  0.1560
13217W        W29351   4.150   7.070  13.153  0.0095 -0.0275 -0.1439
13218W        W29352   8.769  10.435  16.838  0.0600  0.0318 -0.1911
13219W        W29353   9.998  13.250   4.492 -0.0496  0.3962 -0.1331
13220W        W29354  14.841   2.638  13.408  0.1380 -0.2010  0.0530
13221W        W29355  11.363  12.972  16.220  0.1648  0.2395 -0.1864
13222W        W29356   1.002   6.636  15.468 -0.1003  0.3305 -0.1722
13223W        W29357   7.126  12.125  14.408  0.0945  0.0338 -0.0855
13224W        W29358   5.469   1.601   2.068  0.0901  0.0595 -0.1716
13225W        W29359  10.278   5.720  12.956 -0.4117  0.0090 -0.0238
13226W        W29360   6.814   7.789  12.401 -0.0783  0.1680  0.2198
13227W        W29361   8.052   9.898  12.621  0.0253 -0.0977 -0.0754
13228W        W29362   7.975   2.243   0.682  0.0992 -0.2866 -0.1137
13229W        W29363   5.062   5.388  12.017 -0.0335  0.4660 -0.0272
13230W        W29364   2.589  16.209  14.431  0.0862 -0.0304 -0.0368
13231W        W29365  13.125  14.189  16.469  0.0312  0.0941  0.0448
13232W        W29366   8.142   4.674  12.160  0.1611 -0.4721  0.0938
13233W        W29367  11.688  15.486  14.857 -0.0731 -0.0554  0.3194
13234W        W29368  17.286  10.133  15.435 -0.0589 -0.0207 -0.2010
13235W        W29369  14.469  12.449   1.622  0.0779 -0.0629  0.1675
13236W        W29370  11.713   6.151   1.885 -0.0325  0.1896  0.0446
13237W        W29371  10.990  15.792   2.681  0.1127  0.1406 -0.2968
13238W        W29372   3.975  11.141   3.754 -0.2102  0.1064 -0.0748
13239W        W29373  17.504  16.666   1.387 -0.1650 -0.1558  0.0804
13240W        W29374  11.270   6.133   1.481 -0.0972 -0.1489  0.0765
13241W        W29375   3.047   3.647   4.377  0.0447 -0.1826  0.1008
13242W        W29376   8.799   5.162  11.870  0.3680  0.2818  0.0502
13243W        W29377   1.407  14.763  17.094 -0.3115  0.2205  0.1884
13244W        W29378   4.347   2.839   0.410  0.0522  0.0458  0.2280
13245W        W29379   6.646   0.625  14.183 -0.1337 -0.1434 -0.2698
13246W        W29380   7.005   9.562   4.344 -0.0972 -0.0905 -0.1006
13247W        W29381   3.077  11.120   6.052 -0.0797 -0.1631  0.0211
13248W        W29382  11.181  15.913   2.084  0.2618 -0.2589 -0.0277
13249W        W29383   5.127   9.445  13.646  0.1288  0.1968 -0.1392
13250W        W29384   7.130   7.770   2.323 -0.0594 -0.1441 -0.0855
13251W        W29385   4.105   3.634   1.981 -0.1996 -0.0262 -0.0877
13252W        W29386   9.012   4.584   0.740  0.2235  0.1647 -0.0360
13253W        W29387   4.698  10.406   3.585 -0.0406  0.0989 -0.1104
13254W        W29388  11.054   9.139  17.151 -0.0802  0.0161 -0.0958
13255W        W29389   3.711  10.356   4.414 -0.1547 -0.2676 -0.4736
13256W        W29390   9.445   4.456   2.824  0.3700  0.3439 -0.0303
13257W        W29391  12.833  10.340  11.985  0.1344 -0.2122  0.0390
13258W        W29392  16.170   0.626   3.227 -0.0775  0.2393  0.0683
13259W        W29393  16.499  16.504   2.938  0.1343 -0.0570 -0.0503
13260W        W29394   4.979  13.358  17.174  0.1202  0.0522  0.2926
13261W        W29395   5.294   4.072  16.674  0.4221 -0.1098  0.2380
13262W        W29396   8.823   0.546   5.363 -0.0011  0.2952  0.0756
13263W        W29397  14.242   1.934   2.166  0.0150 -0.1468  0.1887
13264W        W29398  12.333  12.714   2.307 -0.2294  0.1032 -0.1359
13265W        W29399  12.043   0.571   0.295  0.2329  0.0459 -0.1979
13266W        W29400   1.928   7.368   3.451 -0.1736  0.1999 -0.0957
13267W        W29401  13.329   6.470   5.100 -0.2408 -0.2276 -0.0449
13268W        W29402  14.768  17.638   5.700 -0.3041 -0.2543  0.3493
13269W        W29403   3.427  10.874   5.604 -0.4380  0.1854 -0.3462
13270W        W29404   2.537   4.616  13.367 -0.2588 -0.0526  0.1814
13271W        W29405   9.278   8.291   4.156  0.1313 -0.1046 -0.0144
13272W        W29406   9.760  13.435   0.561  0.2536  0.1552  0.2213
13273W        W29407   9.567   6.329  13.766  0.5388  0.0437  0.2157
13274W        W29408   6.958   9.462   2.798 -0.0697 -0.0160 -0.0042
13275W        W29409   5.522   5.650  12.180 -0.4890  0.2209 -0.0283
13276W        W29410   1.600   5.683   5.521 -0.4523  0.0009 -0.0560
13277W        W29411  10.907  14.234  14.355 -0.3146 -0.1059 -0.1190
13278W        W29412   3.072   5.976   1.024  0.2385  0.1631  0.3062
13279W        W29413  11.763   8.286  17.131  0.3963  0.0335 -0.0363
13280W        W29414   4.121   2.329   4.474  0.1513  0.2823  0.2954
13281W        W29415   1.646  17.613   4.393  0.0831 -0.1113 -0.2560
13282W        W29416  10.028   1.046   2.350  0.0067 -0.2909 -0.0949
13283W        W29417  13.260   7.737  12.068 -0.1654  0.2336 -0.1671
13284W        W29418   9.690  15.500   5.663 -0.0621 -0.2086  0.0215
13285W        W29419  12.852  11.903   1.302  0.1788 -0.0110 -0.1130
13286W        W29420   4.583  16.020   0.092 -0.0168  0.0907  0.0838
13287W        W29421  14.446   3.233  14.712  0.1202 -0.0072  0.0878
13288W        W29422  12.641   1.818  12.589  0.0688  0.0927 -0.1432
13289W        W29423  17.186  13.487   3.197  0.1449  0.0693  0.0177
13290W        W29424   8.277   3.330  14.900 -0.0364  0.0379  0.2355
13291W        W29425   4.295  10.570  17.067 -0.0402  0.1395 -0.1550
13292W        W29426   4.278  11.050   0.075  0.1483 -0.1417 -0.0208
13293W        W29427  11.404  11.009   3.137  0.0032  0.0374 -0.2422
13294W        W29428   6.812   1.080  15.760  0.3311  0.3798 -0.1414
13295W        W29429   4.836  12.563   3.791 -0.2220  0.1090  0.1694
13296W        W29430   8.777   4.098   3.579 -0.0076  0.2716  0.0503
13297W        W29431   4.559  14.034  12.751 -0.1138  0.1929 -0.1194
13298W        W29432  13.724   0.799   0.532  0.1343  0.0566  0.2245
13299W        W29433   9.848   7.033  15.544  0.0517 -0.1175  0.0762
13300W        W29434  13.039   3.320   1.377 -0.0034 -0.2379 -0.0407
13301W        W29435   4.166   8.591   3.944  0.1655 -0.0833  0.0812
13302W        W29436  14.971   1.197  15.846 -0.0299 -0.1142 -0.2468
13303W        W29437   6.058  15.250   4.510  0.0473 -0.2410  0.1789
13304W        W29438  14.968   6.776   5.457  0.1155 -0.1673 -0.3568
13305W        W29439   3.263  15.427  12.520  0.0392  0.3302  0.3070
13306W        W29440  14.690  13.182   1.793 -0.2799  0.1767  0.1386
13307W        W29441   1.976  15.589  14.450 -0.1367 -0.0759 -0.1667
13308W        W29442   2.526   9.072  15.965  0.0255 -0.2961  0.1164
13309W        W29443  17.616   8.666   4.486 -0.1946  0.0524 -0.1626
13310W        W29444  16.585  15.733  16.167 -0.1279 -0.1050  0.0829
13311W        W29445   5.625   3.808  13.112  0.0024 -0.1114 -0.5833
13312W        W29446   3.255  15.811  12.795  0.3963  0.0313  0.0756
13313W        W29447   0.811   7.336  11.372 -0.0057 -0.0247 -0.2586
13314W        W29448  12.081  10.017   0.505 -0.1643 -0.2336  0.0986
13315W        W29449   6.438  14.301   4.534  0.2320 -0.1830  0.1849
13316W        W29450  17.502   0.735   1.568 -0.1148 -0.1132  0.0245
13317W        W29451  13.820   5.564  13.638 -0.0339 -0.1746  0.2160
13318W        W29452   3.950   8.975  12.534 -0.0418 -0.2604 -0.2595
13319W        W29453   5.569   3.528   5.049 -0.4401 -0.1583  0.2114
13320W        W29454  15.557   5.741  14.797  0.1622  0.1657  0.1188
13321W        W29455   1.512  17.224  15.087  0.0418 -0.1181  0.0772
13322W        W29456  11.538  15.355  15.998  0.1139 -0.2015  0.1525
13323W        W29457   5.057   5.745  17.066  0.3452 -0.0760  0.1868
13324W        W29458  12.381   2.192   1.650 -0.0733 -0.2953  0.0941
13325W        W29459   2.996  15.202  13.469  0.2476  0.1118 -0.1519
13326W        W29460  14.200  13.169   4.104 -0.1401  0.0934  0.1899
13327W        W29461   2.358  11.058   0.063 -0.0171  0.1275  0.4006
13328W        W29462  16.964  14.780   2.800  0.2329 -0.0598 -0.0957
13329W        W29463  16.037  13.685   0.139 -0.0372  0.2144 -0.1393
13330W        W29464   3.176   3.149  15.593  0.1415  0.0934  0.0713
13331W        W29465   1.769  16.143   3.527  0.0213 -0.1886  0.1173
13332W        W29466   7.310  10.504   5.238 -0.1356 -0.0044  0.0878
13333W        W29467   2.258  15.903   2.909 -0.2200  0.2270 -0.1937
13334W        W29468  15.261   3.473   2.123 -0.0454 -0.2442  0.0498
13335W        W29469   7.154   5.418   3.543  0.1612  0.2109  0.3643
13336W        W29470   3.155   6.882   1.146 -0.0377  0.0570  0.1064
13337W        W29471   0.643   4.100   4.003 -0.1955  0.0553 -0.0047
13338W        W29472   9.118  12.681   2.992  0.2502 -0.1370  0.3934
13339W        W29473   8.516  16.560  12.805  0.0910 -0.0277  0.0339
13340W        W29474  11.660  10.823   4.491 -0.1207 -0.3578 -0.2112
13341W        W29475  15.367  14.928   0.030  0.3792 -0.0096  0.1777
13342W        W29476  14.886   0.479   1.816 -0.1668 -0.2828  0.0681
13343W        W29477   4.649  15.881  15.956  0.1818  0.0561  0.1426
13344W        W29478  11.659  14.247  17.125 -0.1437 -0.2695 -0.1414
13345W        W29479  15.988  12.774  17.043 -0.1370  0.0810 -0.0067
13346W        W29480  16.028  14.942  14.623  0.2413  0.4558 -0.0388
13347W        W29481   3.495   4.605  12.183 -0.0668 -0.0085  0.0325
13348W        W29482   2.722  11.746   5.402  0.1933 -0.1001 -0.1495
13349W        W29483  16.767   5.356  16.716  0.1571  0.1016 -0.2674
13350W        W29484   1.978   9.438   5.713  0.1968 -0.1046  0.0510
13351W        W29485   7.609   1.818   1.585  0.2576 -0.2487 -0.1539
13352W        W29486   3.108  16.364   3.262  0.1521  0.0011 -0.1658
13353W        W29487  13.024  11.009   0.840 -0.3034  0.1111 -0.0212
13354W        W29488   1.699   1.563  16.241 -0.0176 -0.0800  0.0727
13355W        W29489  11.480   5.980   4.084 -0.0298 -0.1617  0.0174
13356W        W29490  13.093   1.731   1.150  0.0351 -0.2986  0.1412
13357W        W29491  11.448  13.980  12.369 -0.1457 -0.1971  0.0400
13358W        W29492  10.791  13.897   1.407 -0.0903 -0.0754 -0.0747
13359W        W29493  13.957  12.430   1.819 -0.0085  0.0612  0.1730
13360W        W29494   7.812  12.687   5.558  0.0123 -0.0285  0.1578
13361W        W29495   3.018   5.413   2.285  0.0555 -0.1978  0.0917
13362W        W29496   6.801  15.561   5.103 -0.0603 -0.0482  0.1953
13363W        W29497   1.493   5.817  11.635 -0.2564  0.1983 -0.1454
13364W        W29498   1.322   8.056   1.993 -0.4566  0.1101 -0.2077
13365W        W29499   7.076  11.641   4.302 -0.2850 -0.0116 -0.0590
13366W        W29500  17.185   8.285  14.912 -0.2144 -0.0698  0.3032
13367W        W29501  10.653   5.016  11.154  0.0218  0.2503  0.4860
13368W        W29502   2.585   3.574   0.240  0.0556  0.0611  0.1779
13369W        W29503   7.422  13.343   0.978 -0.0696 -0.1772  0.0470
13370W        W29504   7.631  11.812   0.790  0.2380  0.0743 -0.1349
13371W        W29505  10.309   2.586  14.949 -0.1120 -0.1070 -0.0812
13372W        W29506  12.314   2.289   5.001  0.0907  0.0400  0.1408
13373W        W29507   9.636   9.399  11.722 -0.1354  0.0885 -0.0889
13374W        W29508  16.448   7.579   1.354  0.0523 -0.2117  0.2220
13375W        W29509  16.925  12.121   1.011  0.0233 -0.2401 -0.0330
13376W        W29510   2.466   8.014  12.407 -0.0475 -0.2217  0.3990
13377W        W29511   1.222  12.129   3.211  0.1558  0.0824  0.0862
13378W        W29512   4.871   0.378  12.514  0.1495  0.1699  0.0090
13379W        W29513   6.806   6.334  11.408 -0.1081  0.0268 -0.0825
13380W        W29514   8.900   6.249  15.859  0.0556 -0.0596  0.0752
13381W        W29515  12.205   9.525   5.179  0.1413 -0.2862  0.3340
13382W        W29516   9.832   9.364   2.912  0.0578  0.1017  0.0649
13383W        W29517   5.993   3.187  15.484 -0.2289  0.2122  0.1600
13384W        W29518  14.577  13.990   2.966 -0.0574  0.0186  0.0047
13385W        W29519   2.078  13.672  14.129 -0.3269 -0.0533 -0.1744
13386W        W29520  17.361  15.599  15.162  0.1363 -0.2596  0.2823
13387W        W29521  16.478  15.930   3.827 -0.1379 -0.0726  0.1926
13388W        W29522  16.330   2.152   2.533  0.1722 -0.1581 -0.0087
13389W        W29523  16.495   1.614   0.908  0.1934 -0.1477  0.4310
13390W        W29524  16.424  13.327  14.346  0.0876 -0.2509 -0.1082
13391W        W29525   6.610  11.756  11.443  0.0678 -0.0609 -0.0539
13392W        W29526   9.529   4.499  11.762  0.2198  0.0977 -0.0885
13393W        W29527   9.462   5.760   1.588  0.1290  0.0500 -0.2073
13394W        W29528  10.068  11.159   3.671  0.0913  0.1196 -0.0302
13395W        W29529   3.321  12.993  12.657 -0.0722 -0.0135 -0.1909
13396W        W29530  10.151   4.644   4.926  0.0175  0.0477 -0.0372
13397W        W29531  13.495  16.124  13.025 -0.0758 -0.2304  0.3023
13398W        W29532   3.165   9.361   2.586 -0.1191 -0.3111  0.2120
13399W        W29533   0.386  10.912   5.695 -0.2360  0.2671  0.1790
13400W        W29534   9.027   1.458   3.543  0.0437  0.0447  0.2885
13401W        W29535  12.764   6.653  17.040  0.0775 -0.1799  0.3928
13402W        W29536   0.400  11.999  13.834  0.2706  0.2138 -0.0194
13403W        W29537   0.271   8.651   2.241 -0.1497  0.1729  0.0333
13404W        W29538  14.506  10.575   5.403 -0.1007  0.0302  0.1092
13405W        W29539   9.544   5.271   1.735  0.0701 -0.0228  0.1597
13406W        W29540   2.107  14.667   1.203 -0.0178 -0.2375 -0.1928
13407W        W29541   3.792   5.014   5.517  0.1622  0.1599  0.0566
13408W        W29542   4.218  11.110   4.232  0.0301  0.1625  0.0123
13409W        W29543   6.189  13.351  12.915  0.1390  0.0478  0.0909
13410W        W29544   8.915  17.547  16.557  0.1747  0.0815 -0.2774
13411W        W29545   9.120   0.185   5.506 -0.2025 -0.4960  0.1263
13412W        W29546   6.702  16.058   5.223  0.0155 -0.1658 -0.1407
13413W        W29547  14.045  16.147  16.122 -0.2417  0.2364  0.0182
13414W        W29548   8.669   3.218   2.064 -0.0065  0.0906  0.2656
13415W        W29549  14.677  12.123   4.431  0.2397  0.1047  0.0085
13416W        W29550   8.716  13.968   0.483 -0.0312  0.1637 -0.3176
13417W        W29551  10.388   3.320   6.211  0.2624  0.0600 -0.0790
13418W        W29552  16.626  10.910  11.705 -0.1028 -0.0840  0.1889
13419W        W29553   8.226   2.332   3.821 -0.0352  0.0455 -0.1376
13420W        W29554   0.004  13.892   1.228  0.0468  0.1478  0.0981
13421W        W29555   8.007  13.194  14.588  0.0335 -0.0004 -0.1620
13422W        W29556   8.270   1.382   4.487  0.1732  0.2307  0.0337
13423W        W29557  16.367  14.702   1.610  0.0379  0.1021  0.1960
13424W        W29558   3.511  14.071   1.466 -0.0293  0.2536  0.0694
13425W        W29559  12.622   5.397  17.150 -0.1896  0.2773 -0.0857
13426W        W29560   7.170  17.541   5.227 -0.1228 -0.0801 -0.1511
13427W        W29561   5.574  11.231  14.731  0.0201  0.2682  0.2328
13428W        W29562   0.461   2.757   3.691 -0.2436 -0.2347  0.0691
13429W        W29563   6.277   3.719  16.773  0.0120  0.1553  0.0434
13430W        W29564  17.630  12.423   2.451  0.0474  0.2163 -0.1382
13431W        W29565  12.372  10.218   2.591  0.0485 -0.1618  0.2216
13432W        W29566   0.918   0.363   1.350 -0.0955  0.0738 -0.3347
13433W        W29567   0.365   1.359   5.234  0.1119  0.2899 -0.1554
13434W        W29568   8.251  10.343   4.549  0.0302  0.0871 -0.1150
13435W        W29569  11.796  14.354   1.677  0.0513 -0.1158  0.1094
13436W        W29570  15.180   1.283   1.415 -0.0405  0.2640  0.0525
13437W        W29571   5.967  11.143  14.965 -0.0036 -0.2259  0.0150
13438W        W29572   4.694   2.996   1.462 -0.2322 -0.0883 -0.1361
13439W        W29573  13.322   0.542   5.118  0.1449 -0.0169 -0.2099
13440W        W29574   0.565  12.411  14.310  0.0696  0.2834  0.2371
13441W        W29575  16.830  12.967  14.258  0.1194  0.4344  0.0740
13442W        W29576   2.086   3.037   4.966  0.0195 -0.2140 -0.0227
13443W        W29577  14.295  11.603   2.846  0.1128 -0.1320 -0.1686
13444W        W29578  16.208  15.485   4.029 -0.2274  0.1312 -0.3106
13445W        W29579   1.131  11.788  14.199  0.1227 -0.3463  0.1226
13446W        W29580  13.240  12.580  15.740 -0.1083  0.0916  0.0470
13447W        W29581  11.547  11.238  12.653  0.1736  0.1590  0.1274
13448W        W29582   0.107  12.587   3.521 -0.2650  0.0456 -0.1996
13449W        W29583   2.248  14.092   5.761  0.1930  0.0454  0.0460
13450W        W29584  11.763   9.866   6.365  0.2431  0.1569 -0.1871
13451W        W29585  16.866  11.956  13.928 -0.0980  0.0294  0.1101
13452W        W29586  14.206   1.531   2.592  0.1227 -0.0567  0.1585
13453W        W29587  11.816   8.888   4.551  0.0112  0.0639  0.1678
13454W        W29588   9.101   1.878   6.231  0.1589  0.0258  0.1319
13455W        W29589  12.865  16.449   4.559  0.2928  0.1905 -0.0106
13456W        W29590   3.441   9.500   0.444  0.3282  0.1086  0.1863
13457W        W29591   3.873  11.204  15.452  0.1332  0.0090 -0.0354
13458W        W29592  14.522   8.842   0.297 -0.0782 -0.1783  0.0564
13459W        W29593  11.976  12.141  15.119 -0.2969  0.0566  0.1983
13460W        W29594  14.113   1.664   1.673  0.0850  0.1908  0.1334
13461W        W29595   9.795   0.312  16.005 -0.0933  0.0808 -0.1469
13462W        W29596  12.608  11.231  11.667 -0.1276  0.0119  0.2167
13463W        W29597   7.676   8.748  13.938  0.0846  0.2389  0.1249
13464W        W29598   5.643  11.426   5.339 -0.3379 -0.2221  0.2149
13465W        W29599  16.320   4.832  13.456  0.3085  0.1094  0.1519
13466W        W29600   5.724   1.716  16.114 -0.1369  0.0059 -0.2083
13467W        W29601   4.340  17.449   3.184  0.0210 -0.1302  0.0025
13468W        W29602   3.090  16.240  15.077 -0.1724  0.2389  0.0719
13469W        W29603   1.845  15.925  12.197 -0.3387  0.2173  0.0565
13470W        W29604  14.038  11.522  14.764  0.3376 -0.5521 -0.1362
13471W        W29605  15.837   3.343   3.042  0.1680 -0.0567 -0.1196
13472W        W29606   3.800  10.854  14.202 -0.0842 -0.2394  0.0081
13473W        W29607   4.020   7.637   2.630  0.0226  0.1823 -0.0298
13474W        W29608  15.529  12.377   1.658 -0.0012  0.1906 -0.4726
13475W        W29609  15.790  16.081  14.063  0.1774  0.0613  0.0218
13476W        W29610  10.210   3.889  12.370  0.0678  0.1572 -0.2571
13477W        W29611   2.189  17.652  15.987 -0.0498  0.2435  0.1086
13478W        W29612  11.864  14.832   0.061  0.1831 -0.2110  0.1077
13479W        W29613  11.319  11.008   4.103 -0.1407  0.0916 -0.2802
13480W        W29614   9.995   5.679  11.516 -0.1292  0.1956  0.0384
13481W        W29615  14.992   5.506  16.964 -0.2649  0.1270 -0.2051
13482W        W29616   6.312   2.932   4.441  0.1999 -0.2740  0.2720
13483W        W29617   5.408  14.958  14.556  0.3446  0.0877  0.0041
13484W        W29618  15.766  15.719   1.177  0.0087  0.3614  0.2570
13485W        W29619   9.820   2.224   3.094 -0.2456 -0.0310  0.1817
13486W        W29620  15.970  15.785   4.615  0.0823  0.0454 -0.0998
13487W        W29621  11.984  16.174   2.964  0.1271 -0.0770 -0.1380
13488W        W29622  14.134   7.184  15.698  0.0929  0.3698 -0.2412
13489W        W29623   3.799   3.909   2.810  0.0648 -0.2002 -0.2867
13490W        W29624   7.425   7.571  16.109  0.1498  0.3622  0.1999
13491W        W29625  15.828  17.105   1.712 -0.0880  0.2600  0.1017
13492W        W29626   5.326  11.051   5.506  0.2523  0.0863  0.1237
13493W        W29627   3.005   3.826   1.029 -0.0189  0.1660  0.1017
13494W        W29628  11.228   6.713  15.844 -0.1721  0.0817  0.1060
13495W        W29629   9.003  16.185   5.782 -0.1087  0.1020 -0.5238
13496W        W29630   9.146   7.195  15.817 -0.1684  0.4347  0.0931
13497W        W29631   6.636   6.173   0.705 -0.0562  0.1840  0.1163
13498W        W29632   7.167  12.985  15.192  0.1296 -0.1210 -0.0395
13499W        W29633  12.752  11.831  16.436  0.2203 -0.1427 -0.2339
13500W        W29634  14.048   9.829  15.077  0.0718 -0.0026  0.1580
13501W        W29635  17.250  13.808   5.131 -0.1992  0.2317  0.0166
13502W        W29636   7.306   4.346  13.686 -0.1350  0.1973  0.2379
13503W        W29637   6.086   8.587   4.739  0.0345  0.4513 -0.0802
13504W        W29638   7.793   8.114   2.706 -0.0439 -0.0215  0.0839
13505W        W29639  14.578   6.626   0.531 -0.0118  0.0739  0.0538
13506W        W29640   4.291   0.080   0.788 -0.0125  0.2372  0.2370
13507W        W29641  12.147  15.630  14.908 -0.1731  0.0674 -0.0385
13508W        W29642   7.944   5.106  13.490 -0.3047 -0.0300  0.0444
13509W        W29643   8.911  12.103   3.163  0.0674 -0.1369  0.0666
13510W        W29644  13.626   0.670   2.497  0.1663 -0.1919 -0.0674
13511W        W29645  16.571  13.776  14.082  0.1812  0.0451  0.1799
13512W        W29646   6.052   9.262   0.908  0.1491 -0.0570 -0.1544
13513W        W29647  15.639   2.493   0.497  0.2356 -0.0960  0.1987
13514W        W29648   0.840  13.061  12.711 -0.1142 -0.2771 -0.3151
13515W        W29649  13.343  12.831   4.930 -0.2499  0.1108  0.0458
13516W        W29650   7.063  17.067  15.036  0.2729  0.2559  0.0829
13517W        W29651   9.635  15.993  15.225  0.3674  0.0923  0.2810
13518W        W29652  15.978   6.974   3.974 -0.1229 -0.0417  0.0252
13519W        W29653   5.322   7.375   0.581 -0.1735  0.1822 -0.0360
13520W        W29654   0.452  13.362  16.125  0.0991 -0.0466  0.1606
13521W        W29655   3.663  17.193   3.305 -0.3854  0.1995  0.0184
13522W        W29656   5.554  10.404   4.144  0.2261  0.2598 -0.1151
13523W        W29657   1.361   8.528  12.095  0.3434 -0.3364 -0.3830
13524W        W29658   5.441  15.151  11.987  0.0160 -0.2652 -0.1800
13525W        W29659  11.784   3.083  13.900 -0.0283  0.2220 -0.0775
13526W        W29660   0.034   7.689  16.712  0.0415 -0.4288  0.2130
13527W        W29661   6.465   0.726  15.511 -0.0753 -0.1911  0.3357
13528W        W29662   2.431   5.698  13.616  0.2441  0.2220 -0.1285
13529W        W29663  17.263  13.399  12.420  0.0948 -0.3953 -0.0744
13530W        W29664  16.461   2.250   4.874 -0.0995  0.4838  0.1528
13531W        W29665   4.929  11.734   4.914  0.0149 -0.1467 -0.0205
13532W        W29666  16.158   1.446  13.395  0.2819 -0.2927 -0.0225
13533W        W29667   5.045   9.245   3.213 -0.1990 -0.0499 -0.1265
13534W        W29668   4.906   6.126   3.365 -0.0537  0.1658 -0.1782
13535W        W29669   2.363  16.446  12.667  0.1818  0.1449  0.0283
13536W        W29670   2.175  13.367  13.129 -0.3459 -0.0536 -0.4938
13537W        W29671   2.833  10.940  13.387 -0.0792 -0.1181  0.0343
13538W        W29672   7.973   9.184  13.376  0.2315 -0.0910  0.2367
13539W        W29673   3.366   8.980   1.799  0.1293  0.1523  0.2473
13540W        W29674  15.486  15.207  13.744 -0.1254 -0.1214  0.2500
13541W        W29675  17.158   1.980   2.203 -0.0238  0.1953 -0.0984
13542W        W29676  11.599  13.377   2.580  0.1903 -0.1376 -0.4341
13543W        W29677   7.094   8.209   2.108 -0.0102  0.1520  0.0328
13544W        W29678  15.679   0.477  15.935 -0.1198 -0.0529  0.2138
13545W        W29679  16.601   5.331   3.660  0.1172 -0.0873  0.0930
13546W        W29680   1.558   2.998   6.079  0.0507  0.0628 -0.0501
13547W        W29681   3.466   7.802   2.591 -0.1451 -0.1288 -0.2267
13548W        W29682   4.247  17.592   2.725  0.0945  0.0689  0.2839
13549W        W29683  12.372   9.044  17.021  0.1643 -0.0160  0.1297
13550W        W29684   5.778  12.591   3.358  0.0773 -0.0194 -0.0366
13551W        W29685   9.767  12.451   3.619  0.0543  0.0974 -0.4116
13552W        W29686   6.296  13.353   4.008  0.0184  0.1784  0.2284
13553W        W29687   4.126   2.032  13.855  0.0877  0.3910  0.2854
13554W        W29688  10.157  15.679   2.017  0.2753  0.2649 -0.2253
13555W        W29689   4.100  12.345   2.509  0.0421 -0.3572  0.1601
13556W        W29690  10.198   4.357   3.182  0.2323 -0.1356  0.1684
13557W        W29691   9.573   5.115  16.184 -0.3097  0.1460 -0.4019
13558W        W29692   3.636  14.160   5.513 -0.1517 -0.1120  0.2486
13559W        W29693   5.252   9.307   2.292 -0.1932  0.0068  0.3894
13560W        W29694   6.825  16.684   6.055  0.0373  0.0797 -0.0043
13561W        W29695  17.275   3.805   5.130  0.1773  0.0269  0.0614
13562W        W29696   0.776   3.095   5.556  0.1463 -0.0305 -0.1368
13563W        W29697  15.276   8.881   0.815  0.3262 -0.0453 -0.0966
13564W        W29698   7.300   8.973  17.097 -0.1226  0.0824 -0.2513
13565W        W29699   4.870   5.629   3.567  0.0548  0.1208  0.1762
13566W        W29700  12.395   6.475   0.208  0.1486 -0.1160 -0.1943
13567W        W29701   4.753  10.788  16.923 -0.1509  0.3507 -0.1048
13568W        W29702  10.834  12.581   6.655  0.2132  0.1024  0.0142
13569W        W29703  15.550   3.552  11.796 -0.1347  0.0450  0.4295
13570W        W29704  10.332   8.040  15.218  0.1520 -0.2832 -0.0014
13571W        W29705   0.886   6.940   3.371 -0.2032  0.2245 -0.1543
13572W        W29706  11.254  12.858  14.578  0.0152  0.1617 -0.0503
13573W        W29707   8.385  12.289   1.897 -0.1167 -0.3270 -0.3176
13574W        W29708   5.086   7.755   0.821 -0.3890  0.1345  0.0216
13575W        W29709   1.171   0.735  15.181  0.2871  0.2569  0.2708
13576W        W29710   3.520   6.615  16.117  0.0810 -0.0353  0.1846
13577W        W29711  14.923  12.488  13.465  0.1099 -0.1835  0.0488
13578W        W29712   7.659  14.871  16.510 -0.1382  0.2233  0.3246
13579W        W29713   5.165   8.768   5.742  0.1069 -0.1257 -0.0397
13580W        W29714   1.614   1.845   5.717 -0.0026  0.0568  0.0255
13581W        W29715  11.412   2.817  13.655 -0.0081 -0.3667 -0.1447
13582W        W29716  11.341  15.608  13.871 -0.3927  0.1424  0.0262
13583W        W29717  10.543   1.188  16.108  0.2201  0.1368 -0.1421
13584W        W29718   4.180   9.220   2.425  0.0680  0.0644 -0.0514
13585W        W29719   8.248   9.859   1.510 -0.1430 -0.1544  0.0644
13586W        W29720  12.975   8.477  13.026 -0.0291 -0.1554 -0.3146
13587W        W29721  15.598   8.865  14.731  0.0413 -0.0385 -0.1776
13588W        W29722   9.705   6.070   4.430 -0.2465 -0.2509 -0.0331
13589W        W29723   8.031   4.837   5.054  0.0252  0.1730 -0.0317
13590W        W29724   3.054  12.032   2.664 -0.0358  0.2315  0.0016
13591W        W29725  16.756  13.747   4.731 -0.3142 -0.3330 -0.0448
13592W        W29726  12.607  15.744  17.160 -0.0327  0.1105  0.1473
13593W        W29727   3.618   1.315   1.091  0.1696  0.0706  0.0498
13594W        W29728   1.494  11.273   5.855  0.1444 -0.0292  0.0308
13595W        W29729   1.557  16.685  16.420  0.1139  0.0837 -0.1933
13596W        W29730   2.409  16.962   4.720  0.1205 -0.1600 -0.1841
13597W        W29731   0.560   3.982  14.334 -0.0523 -0.0564  0.0189
13598W        W29732  14.339  10.628   3.512  0.0971 -0.4879  0.0595
13599W        W29733  17.554   4.807  12.988  0.2640  0.1295 -0.1152
13600W        W29734   1.699   8.967   0.803  0.2452  0.0241  0.1497
13601W        W29735   1.686   9.523  13.562 -0.1113  0.0573 -0.0505
13602W        W29736   6.760   8.964   0.767 -0.1075 -0.2787 -0.0908
13603W        W29737  11.012  16.119  15.972 -0.0770 -0.2404 -0.1577
13604W        W29738   9.223   9.549  13.037  0.2042  0.1367  0.0744
13605W        W29739  15.612   4.991  11.750  0.1112 -0.1752  0.2865
13606W        W29740   1.901   3.863   2.419  0.2317  0.2405 -0.1591
13607W        W29741   6.319  10.026   3.272  0.4478  0.0512 -0.2249
13608W        W29742   1.842   8.136  12.221 -0.3213  0.4470 -0.0293
13609W        W29743  15.647   9.682   0.148  0.1344  0.1780  0.3952
13610W        W29744   3.633   7.982  16.522 -0.1916  0.2355 -0.2126
13611W        W29745   2.051   5.574  13.901 -0.0851  0.3732 -0.2655
13612W        W29746  14.630   5.402   0.767 -0.0494 -0.1093  0.0812
13613W        W29747  11.750  16.369   2.454 -0.1028 -0.0031 -0.3898
13614W        W29748   7.806   3.727   5.458 -0.1233  0.0764 -0.0119
13615W        W29749  10.391   8.071  15.835 -0.2843 -0.0794 -0.1102
13616W        W29750  15.940   0.455   2.704  0.2716 -0.0434  0.0128
13617W        W29751   3.993  16.147   3.241 -0.2483 -0.0676  0.2175
13618W        W29752  15.730  14.604  16.512 -0.1496  0.2703  0.2628
13619W        W29753   8.427   2.923   4.411 -0.0805  0.0058  0.3271
13620W        W29754   6.516   8.213   3.322 -0.0917 -0.0952  0.2638
13621W        W29755   5.698  15.442  12.456  0.1481 -0.0180  0.0254
13622W        W29756   1.699  12.160  13.461 -0.0351 -0.1124  0.0177
13623W        W29757   3.235   3.158   2.304  0.2844  0.0837  0.3646
13624W        W29758   0.223  16.580  16.303  0.0326  0.0943  0.2082
13625W        W29759   8.192  15.046  13.794  0.0743  0.3259 -0.3409
13626W        W29760  16.417   3.013   0.797 -0.1870  0.0877 -0.0902
13627W        W29761   3.991  16.952  15.106  0.0785 -0.0783  0.0144
13628W        W29762   6.783  10.748   4.547  0.0202 -0.0175  0.0672
13629W        W29763  13.320  11.810   3.947  0.0448  0.0256 -0.2217
13630W        W29764  16.013   5.644   2.293  0.2050  0.0369 -0.1664
13631W        W29765   0.319   8.042  11.717 -0.1407 -0.0115  0.2986
13632W        W29766  13.524   1.677   5.291  0.0023  0.3380 -0.2596
13633W        W29767   2.185  10.179   2.537 -0.2301 -0.0525 -0.1884
13634W        W29768  16.089  14.349  16.780  0.0753 -0.0408  0.1622
13635W        W29769   4.969   3.065   6.046  0.0918 -0.2034  0.1209
13636W        W29770  11.283   5.067  13.722 -0.1343  0.0047 -0.1420
13637W        W29771   2.579  12.492   1.008 -0.1020 -0.0329  0.0725
13638W        W29772   8.153   0.240  16.949  0.0597 -0.1300 -0.3353
13639W        W29773   5.728   6.509  12.361 -0.0616  0.1429 -0.0245
13640W        W29774  12.622  13.908   0.191  0.0762 -0.0792 -0.2428
13641W        W29775   7.697  14.808  17.047  0.2062 -0.0777 -0.0863
13642W        W29776  10.574   8.184   2.714  0.3047  0.3056 -0.0419
13643W        W29777   6.223   0.974   2.072  0.3196 -0.1630 -0.2242
13644W        W29778   7.335   1.548   2.849  0.2511  0.2348 -0.2313
13645W        W29779   1.340   1.174  12.096 -0.1475 -0.0297  0.1300
13646W        W29780   7.579   4.989  14.509  0.1407  0.1775  0.1848
13647W        W29781   7.320  15.336   6.730 -0.2453  0.0827 -0.3932
13648W        W29782   6.569  16.770   1.216 -0.1610  0.1816 -0.1522
13649W        W29783   8.359   8.959   1.757 -0.1151 -0.1730  0.0618
13650W        W29784  13.749   2.463   2.720 -0.1065  0.2004  0.1244
13651W        W29785  10.313  10.713  16.731 -0.1418  0.1196 -0.0683
13652W        W29786   5.540  15.441  13.295  0.0626 -0.2462 -0.1629
13653W        W29787   9.304   4.607  14.168  0.2620  0.1088  0.2978
13654W        W29788   8.650   5.524   3.238 -0.1034 -0.1167  0.1095
13655W        W29789  16.828  10.282  13.312  0.0265  0.0981 -0.0667
13656W        W29790  12.871  13.311   5.820 -0.2844 -0.0055  0.1988
13657W        W29791  12.118   4.644  16.494  0.1021 -0.0096  0.0102
13658W        W29792  16.598   8.216   1.914  0.0341 -0.0529 -0.0259
13659W        W29793  11.374  10.872   2.408  0.0752 -0.1372 -0.0447
13660W        W29794   7.112   0.685  14.092 -0.1859  0.1724  0.0880
13661W        W29795  11.986   1.027   4.680  0.1257 -0.0224 -0.1572
13662W        W29796   8.025   8.382  13.223  0.1195  0.0492 -0.2470
13663W        W29797  11.044   6.317   3.193 -0.0067 -0.0274 -0.1677
13664W        W29798   9.169  12.769  12.909  0.3580  0.1816 -0.1919
13665W        W29799   9.744  15.054  10.737 -0.0683  0.2712  0.1277
13666W        W29800   6.263   1.733  15.538  0.1826  0.1429  0.0076
13667W        W29801   1.859   2.304   4.955  0.0365 -0.0045 -0.1212
13668W        W29802   0.338  17.596  12.723  0.0054 -0.0430  0.1079
13669W        W29803   0.051   6.912   2.091 -0.2876  0.0324  0.0695
13670W        W29804  14.885  12.351  15.788  0.0829 -0.0740 -0.1100
13671W        W29805   2.442  14.038   2.572  0.0757 -0.3426 -0.0323
13672W        W29806   0.386  12.086  16.556  0.0785  0.0624  0.2108
13673W        W29807   2.266   6.748  15.363 -0.1350  0.1037  0.3461
13674W        W29808   6.918   8.346  13.684 -0.0366 -0.0758 -0.0231
13675W        W29809  17.033   4.603  12.251 -0.0862 -0.0060  0.2618
13676W        W29810  16.414   1.419  15.717  0.0443 -0.1928 -0.1339
13677W        W29811  16.294  10.257  14.058 -0.1456 -0.0493 -0.1362
13678W        W29812  13.679   8.140   3.474 -0.1841  0.0400  0.0909
13679W        W29813  14.512   4.302   3.380 -0.3327 -0.0792 -0.1647
13680W        W29814   2.934  13.231   2.239 -0.3037  0.1268  0.1387
13681W        W29815   1.200   6.849  16.609 -0.1994 -0.1189 -0.1821
13682W        W29816   5.717  10.778  14.563  0.1668  0.0157  0.0357
13683W        W29817   8.000   1.248  14.004  0.0455  0.0064 -0.1401
13684W        W29818  14.003  17.408  13.521 -0.0589  0.0853 -0.2060
13685W        W29819   9.980  13.971   2.926 -0.0981  0.0136  0.3322
13686W        W29820   6.491   8.967   2.571 -0.2939 -0.0821 -0.0554
13687W        W29821   3.078   3.943   3.861  0.1325 -0.3570 -0.0566
13688W        W29822   9.342   5.680   3.883  0.1536 -0.0607 -0.0791
13689W        W29823   2.344   7.187   1.023  0.0589  0.0198  0.3748
13690W        W29824  15.529  17.084  12.634  0.2275  0.2866 -0.1489
13691W        W29825  13.299   5.199  12.016  0.0934  0.1535 -0.2587
13692W        W29826  16.869   8.407  12.830 -0.0945 -0.1740 -0.1239
13693W        W29827  16.185  13.200   0.134 -0.1776  0.2799 -0.1024
13694W        W29828  16.740   3.340   5.137 -0.0504  0.1128 -0.1304
13695W        W29829  17.144   1.464   5.642  0.1091  0.1402 -0.1433
13696W        W29830  10.194  12.707  11.762 -0.0504  0.2392 -0.0122
13697W        W29831   6.754   1.577  14.561 -0.1169  0.2500  0.0793
13698W        W29832   6.956  13.201   1.173 -0.0597  0.0801  0.0342
13699W        W29833  14.905   5.407  13.521 -0.1141  0.0711 -0.0723
13700W        W29834   7.370  14.010   2.514 -0.1673  0.1177 -0.1220
13701W        W29835  10.437  11.683  15.044 -0.2504 -0.1149 -0.0486
13702W        W29836   7.312  10.234  16.349 -0.0260  0.0094  0.5129
13703W        W29837   5.449   8.616  13.950  0.0647  0.0398 -0.2119
13704W        W29838   3.048   2.946   5.933 -0.1666  0.0395  0.4235
13705W        W29839   9.021   4.577  13.276 -0.2193  0.2968 -0.1281
13706W        W29840  16.421   6.028  14.956 -0.0964 -0.0935  0.4080
13707W        W29841   6.119   2.890  12.263 -0.1925  0.2902  0.0584
13708W        W29842   7.651  15.441   5.112  0.0687 -0.0723  0.1123
13709W        W29843   4.377  11.534  15.488 -0.3319  0.2330 -0.0544
13710W        W29844   3.344   4.409  15.108  0.0222  0.1310  0.0274
13711W        W29845   1.109  17.333   3.733  0.1658  0.0641 -0.2346
13712W        W29846   9.886   2.353   1.783 -0.0784 -0.1432  0.1001
13713W        W29847   5.984  12.236   3.068 -0.1021  0.0358  0.2275
13714W        W29848   8.384   3.971  12.467  0.5697  0.1903  0.0667
13715W        W29849   1.481  15.979   0.649 -0.1184  0.1271  0.1165
13716W        W29850  11.417   0.497   5.699  0.0331  0.0209  0.2107
13717W        W29851   6.051   8.163  12.247  0.1530  0.4310  0.0098
13718W        W29852   5.880   4.418   3.719 -0.0908  0.0206 -0.0250
13719W        W29853  10.243   1.486   2.202 -0.0024  0.2472  0.0486
13720W        W29854  12.155  14.523   5.570 -0.1968 -0.1869  0.2697
13721W        W29855   0.613   0.551   0.392 -0.1191 -0.1689 -0.2626
13722W        W29856   5.815  11.418   2.486 -0.2612 -0.0406 -0.1934
13723W        W29857   2.233   5.119   4.287  0.2552 -0.3306  0.0545
13724W        W29858   1.176   6.283  11.407  0.0081 -0.2057 -0.0318
13725W        W29859   7.511   1.376   0.756 -0.2136  0.2294  0.1097
13726W        W29860  16.470   7.162  12.284  0.1440 -0.2248  0.3641
13727W        W29861  16.938   1.975   0.880 -0.1202  0.4317  0.0468
13728W        W29862   1.341  16.012  16.072 -0.1971  0.0224 -0.0362
13729W        W29863  14.090  15.571   0.879 -0.2090 -0.1041  0.0763
13730W        W29864  15.105   7.259   3.124  0.0721 -0.1295  0.0549
13731W        W29865   6.507   2.921   1.892 -0.0483 -0.0919  0.1201
13732W        W29866   7.308   4.339   1.001  0.0218  0.0422  0.3440
13733W        W29867   0.646   4.165  13.109  0.1847 -0.2752 -0.1017
13734W        W29868  12.273   5.139  13.342  0.0442  0.1934  0.2638
13735W        W29869   9.541  15.252  12.417 -0.1747  0.0709  0.0905
13736W        W29870   2.653   0.775  13.971  0.0154 -0.0229  0.1375
13737W        W29871  15.060  11.667  13.143  0.1757  0.3152 -0.0694
13738W        W29872  13.473   7.759   5.128 -0.0124  0.1201  0.1376
13739W        W29873   9.046  12.766  15.660  0.0566  0.0420 -0.1000
13740W        W29874  16.191  13.206   3.213  0.2111  0.3541  0.0657
13741W        W29875   3.892   9.247  14.458  0.0001 -0.0364  0.0240
13742W        W29876   5.360  14.485  14.867 -0.0576 -0.0055  0.0707
13743W        W29877  11.496  16.936   5.470  0.1083 -0.1381  0.0799
13744W        W29878   0.269  17.221   6.265 -0.0086 -0.3576  0.0856
13745W        W29879  13.642  15.905  12.648 -0.1260  0.0844 -0.1569
13746W        W29880   2.015   2.503   4.048  0.2600  0.1542 -0.0831
13747W        W29881   0.594   0.457  15.003  0.2533 -0.1599  0.1450
13748W        W29882   7.990  11.613  12.357 -0.1469  0.1652  0.2334
13749W        W29883   1.869  10.274  15.752  0.0525  0.2129 -0.0073
13750W        W29884  16.050  15.244   2.871 -0.0235  0.1151  0.0861
13751W        W29885  14.017   0.376   1.965  0.0488 -0.2137 -0.0884
13752W        W29886   2.251  15.429   5.804  0.1336  0.3489 -0.2958
13753W        W29887  10.370  12.507  14.636  0.3338 -0.2970  0.0397
13754W        W29888   9.974   8.564   3.557  0.1450 -0.1080 -0.1920
13755W        W29889   8.268   3.524  12.881  0.2324 -0.1382 -0.0065
13756W        W29890   1.852  10.243  15.243 -0.0107 -0.1543 -0.1583
13757W        W29891   2.570   4.218   5.031 -0.0872 -0.2639  0.0502
13758W        W29892  17.335   4.758  16.113  0.1340  0.2688  0.0805
13759W        W29893  13.775  10.329   0.386 -0.2035 -0.0689  0.0562
13760W        W29894   2.726   9.176  12.086 -0.0811  0.0198  0.1728
13761W        W29895   4.012   0.183  14.678 -0.2236 -0.3584 -0.2024
13762W        W29896  10.373   0.503   0.639 -0.1006 -0.0108 -0.1956
13763W        W29897  15.549   6.518   2.436  0.2259  0.0849  0.0725
13764W        W29898  17.533   5.343   5.106 -0.2583 -0.0064  0.3654
13765W        W29899   4.110   7.146  16.691  0.1378 -0.1937 -0.0355
13766W        W29900   0.663   8.296   0.783  0.1722 -0.0259 -0.2802
13767W        W29901   8.855   6.203   5.398  0.1067  0.1044 -0.1318
13768W        W29902  14.710  11.070  15.112  0.1179  0.0788  0.1970
13769W        W29903   3.639  14.588   3.279  0.0157 -0.0035  0.1554
13770W        W29904   6.990   6.009  13.723 -0.0555 -0.1322  0.2110
13771W        W29905   3.547   9.203  12.495  0.2133  0.0872 -0.2303
13772W        W29906   2.507   4.115  15.043 -0.0617 -0.0263 -0.3976
13773W        W29907  12.249   3.065  15.403 -0.0977 -0.2252 -0.0867
13774W        W29908  16.628   3.041  13.850 -0.1388 -0.0964  0.0814
13775W        W29909  16.354   3.962   0.724  0.5749  0.0545  0.1185
13776W        W29910  17.305  11.925   5.940  0.0088 -0.0616 -0.2444
13777W        W29911   3.491   8.323  12.778 -0.0624 -0.2400  0.2390
13778W        W29912   3.154  13.682   1.512  0.2440  0.2194  0.1930
13779W        W29913  13.300  17.181   0.572 -0.0005 -0.0514  0.2816
13780W        W29914   4.011   4.357   3.402  0.0503 -0.0062  0.0595
13781W        W29915   7.982   4.178   1.400 -0.2606  0.0862 -0.0163
13782W        W29916  16.467   8.713  13.205 -0.0137  0.1291  0.2299
13783W        W29917   8.961  13.741   4.696 -0.1191 -0.0287  0.0263
13784W        W29918   4.379   5.832   3.381 -0.1389 -0.0586 -0.2198
13785W        W29919   6.268  10.544  16.262 -0.1150  0.0297  0.0454
13786W        W29920   2.889   1.541  15.747 -0.0215  0.2043 -0.0277
13787W        W29921  16.907   0.963   0.354 -0.0851 -0.1438 -0.0511
13788W        W29922   0.914   7.056   4.748  0.2243 -0.0540  0.1021
13789W        W29923  15.348  11.436   5.604  0.1775 -0.0327  0.3789
13790W        W29924  11.117  16.047  12.099  0.1749 -0.1027  0.0883
13791W        W29925   8.405  17.462  16.764 -0.0713  0.0241  0.1723
13792W        W29926   3.401  14.673   0.550 -0.0723  0.2139 -0.2693
13793W        W29927  13.744   2.638  13.782  0.0192  0.0579  0.0164
13794W        W29928   0.501  15.523   4.808  0.1278 -0.3931 -0.3641
13795W        W29929   8.834   3.017  11.761 -0.2355  0.0399  0.0502
13796W        W29930   5.171  15.812  15.804 -0.2295  0.0691 -0.1445
13797W        W29931   5.455   6.953  12.366 -0.0478 -0.0030  0.0320
13798W        W29932   7.944   0.322   3.319 -0.1639  0.2128 -0.0209
13799W        W29933   8.210  11.619  13.264  0.1090  0.2359 -0.1613
13800W        W29934   5.659  10.809   5.126  0.0646 -0.0894 -0.0467
13801W        W29935  16.608   2.231   2.926  0.1142  0.0526  0.2329
13802W        W29936   7.539   5.724   3.217 -0.0149 -0.1284 -0.0038
13803W        W29937   3.775   8.151   0.861  0.0547 -0.0553 -0.0022
13804W        W29938   2.834   5.985   3.530 -0.1184 -0.3958  0.1959
13805W        W29939  12.622   5.966   3.322  0.1747 -0.1298  0.1572
13806W        W29940  15.031   0.762   1.209 -0.2624  0.2636  0.1775
13807W        W29941   7.737   3.623  14.579  0.0399  0.1983 -0.1812
13808W        W29942   8.176  17.227  11.981 -0.1074  0.2094  0.0042
13809W        W29943   4.121   9.554  14.005  0.0642 -0.0966  0.3025
13810W        W29944   5.101  13.439  12.445 -0.1060  0.1050  0.2942
13811W        W29945   4.746   1.266   0.273  0.1842 -0.0164  0.1730
13812W        W29946  10.686  16.815  14.917  0.2104  0.5120 -0.2209
13813W        W29947  16.857   5.350   1.286  0.0849  0.2754 -0.2029
13814W        W29948  13.289   4.184   0.145 -0.0302  0.0847 -0.0156
13815W        W29949   3.820   8.171   1.338  0.1770  0.0919 -0.0359
13816W        W29950  11.634  14.917   6.034  0.0725  0.3162 -0.1675
13817W        W29951  16.591  16.006  12.406 -0.1736  0.0109  0.2066
13818W        W29952  17.104   5.513   0.879 -0.2957 -0.1703  0.1257
13819W        W29953   4.762  16.790   4.071  0.1629 -0.0345  0.2386
13820W        W29954   5.493   2.151  16.732  0.1988  0.1488 -0.2447
13821W        W29955  11.452   0.205  15.886  0.0434  0.2981 -0.0587
13822W        W29956   6.759  14.497  13.457 -0.2749 -0.0723 -0.0152
13823W        W29957   6.478   0.993   3.254 -0.4060  0.0150 -0.0321
13824W        W29958  17.403  10.636  11.731 -0.1782  0.1413 -0.1547
13825W        W29959  10.439  11.881   2.204  0.0826  0.2638  0.2356
13826W        W29960   2.910   4.696   4.189 -0.0204 -0.0701 -0.1179
13827W        W29961   9.623   8.212   1.056  0.1335  0.2985  0.0586
13828W        W29962   0.783  15.651  16.656  0.2636 -0.2049 -0.1283
13829W        W29963  13.923   6.705   5.411 -0.2252 -0.0688 -0.1854
13830W        W29964   2.577  11.754  12.680  0.1934 -0.0499 -0.0633
13831W        W29965  10.144   4.899   2.468 -0.1410 -0.1319 -0.0951
13832W        W29966   2.914  17.647   2.253 -0.2322  0.0218  0.4299
13833W        W29967  11.056   0.521  13.175 -0.3344  0.2536 -0.2246
13834W        W29968  14.978  14.536   1.047 -0.0557  0.1314  0.3669
13835W        W29969   2.783  10.427  12.511  0.2196 -0.0506 -0.1725
13836W        W29970   3.319   0.270  14.194  0.2897  0.0746  0.0348
13837W        W29971   1.840   2.171  14.328 -0.0835  0.1918  0.1988
13838W        W29972  11.631  16.026  16.049 -0.1026  0.1162 -0.0984
13839W        W29973   5.732  16.184   4.609 -0.2067 -0.0204 -0.0026
13840W        W29974   8.034   8.184   2.202 -0.1253 -0.2849 -0.2340
13841W        W29975   1.413   3.652  11.345  0.3983 -0.3853  0.5096
13842W        W29976   9.116  16.572  12.494 -0.0076  0.0134  0.1482
13843W        W29977   8.569  14.547   4.817  0.1311  0.0252 -0.0977
13844W        W29978   6.915   5.378  11.972  0.0370 -0.2702  0.1506
13845W        W29979  16.415  15.562   2.693 -0.1420 -0.1826 -0.1289
13846W        W29980  15.879  16.402  16.310 -0.2599  0.1340  0.0210
13847W        W29981  13.461   3.292   0.587  0.1485 -0.0448  0.0335
13848W        W29982  13.292   2.633   5.104 -0.1382 -0.1196  0.0639
13849W        W29983   9.630   5.512  14.348 -0.0743  0.0829 -0.1392
13850W        W29984  10.503  12.239   0.763 -0.0305  0.1168 -0.2380
13851W        W29985   0.432  15.428  16.322  0.1291  0.1521  0.1690
13852W        W29986   5.976  15.914   4.968 -0.1974  0.0903  0.0636
13853W        W29987  14.416   7.911  14.988 -0.2229  0.1354  0.0138
13854W        W29988  15.148   1.378  13.932 -0.3368  0.0194 -0.0740
13855W        W29989  14.774   4.436  14.005 -0.0075  0.0635 -0.1608
13856W        W29990   0.807   5.402  14.772  0.0511 -0.0170  0.0840
13857W        W29991   1.901   5.902  16.804  0.0036  0.2646  0.0965
13858W        W29992   9.323   2.345   1.721 -0.1014  0.1450 -0.1685
13859W        W29993   1.143   7.560  14.896  0.0164  0.0018  0.0266
13860W        W29994  12.226   4.043   2.581 -0.2090 -0.0816  0.4486
13861W        W29995  15.129  13.086  16.481 -0.1752 -0.0871 -0.3227
13862W        W29996   0.360   9.828   3.825  0.2054  0.1089  0.3555
13863W        W29997  13.328  10.368   0.926  0.0050 -0.0051  0.0874
13864W        W29998  12.672   2.182  16.913  0.0351  0.0984 -0.1135
13865W        W29999  15.750   1.995   4.885  0.4568  0.1650 -0.1127
13866W        W30000   7.730  14.322   0.986  0.1352  0.1792 -0.0462
13867W        W30001   5.674  16.291  13.360 -0.2781 -0.1948  0.2717
13868W        W30002   0.806  15.620   1.974 -0.0734  0.3259  0.1382
13869W        W30003   8.676   4.460  11.266  0.2435 -0.1942  0.1000
13870W        W30004  10.227  14.471   1.826 -0.2652  0.0370 -0.0483
13871W        W30005  14.376  15.404   0.510 -0.3199  0.0304  0.0940
13872W        W30006  11.279  17.119  15.513  0.0654 -0.0124  0.0414
13873W        W30007  16.423  16.086  12.920  0.1266 -0.0535 -0.1043
13874W        W30008   8.333   4.468   0.564 -0.0606  0.1452 -0.0998
13875W        W30009   7.175   1.794  11.755  0.2006  0.2282 -0.0144
13876W        W30010   6.302   3.280   3.248 -0.2372 -0.1315 -0.0268
13877W        W30011   3.910  11.623  12.193 -0.1894 -0.1232 -0.2027
13878W        W30012  12.535  14.386   1.943 -0.1454 -0.0249  0.3789
13879W        W30013  16.275   2.795  13.246  0.0191 -0.0631 -0.1692
13880W        W30014   3.667   6.023  16.827  0.1576  0.1472 -0.0696
13881W        W30015  12.295  11.164  12.145  0.1422 -0.1401  0.0612
13882W        W30016   2.704  16.309   2.248 -0.0967  0.0525  0.1469
13883W        W30017   3.591   6.084   3.259 -0.0839 -0.2117  0.1821
13884W        W30018   6.714   9.499   5.772 -0.1937  0.1133  0.0618
13885W        W30019   9.516  11.969   0.003  0.2361  0.1239  0.0753
13886W        W30020  14.223   1.098   4.929 -0.1853  0.0647  0.3432
13887W        W30021   4.755  11.060   0.971 -0.0713 -0.1822 -0.3923
13888W        W30022  14.215  12.201   2.268 -0.2090 -0.2434 -0.1632
13889W        W30023   9.180   3.228  10.609  0.0770 -0.2091  0.0680
13890W        W30024   7.760   7.383  15.370  0.0284  0.3035  0.0713
13891W        W30025  16.797   2.801   1.025  0.0439  0.1918 -0.0900
13892W        W30026   6.920  10.517   2.573  0.0999  0.0849 -0.0570
13893W        W30027  11.583  14.443   3.210  0.0664 -0.1270 -0.0451
13894W        W30028   8.676  12.738   0.592 -0.1157 -0.2868 -0.1568
13895W        W30029   6.354   2.351   2.488 -0.3865  0.2046 -0.2135
13896W        W30030   5.564   6.635   1.184 -0.2133  0.0102  0.0460
13897W        W30031  17.497   1.541   2.621 -0.1002 -0.4472 -0.1433
13898W        W30032   2.037   1.940   5.235 -0.1356  0.4872  0.4218
13899W        W30033  13.467  17.482  15.940  0.2351 -0.2295  0.0910
13900W        W30034   8.154   7.792   2.529 -0.0160 -0.1194 -0.2028
13901W        W30035   7.261   2.468  13.768 -0.0967 -0.1822 -0.0429
13902W        W30036   9.245  17.054  12.000  0.2603  0.0388 -0.0911
13903W        W30037   6.164   0.309   4.568  0.3352  0.3248  0.2080
13904W        W30038   7.743   8.431  10.388 -0.2404 -0.1881 -0.0403
13905W        W30039   0.002   6.438  11.563 -0.3137  0.0310  0.2577
13906W        W30040  17.609  14.058  12.737 -0.0614 -0.0344  0.1767
13907W        W30041  13.110  17.590  16.285 -0.3235  0.0157  0.0995
13908W        W30042  12.393   0.503  17.010  0.0405  0.2448 -0.2993
13909W        W30043   8.195  12.955  15.698 -0.3732 -0.2542 -0.0981
13910W        W30044  10.841   9.053   6.098  0.1380  0.2661 -0.0984
13911W        W30045   6.283   6.845   2.869  0.1417  0.2139  0.0185
13912W        W30046  17.124   3.270  13.963  0.1543 -0.2126 -0.0277
13913W        W30047   0.102   3.005  14.986  0.0152 -0.1155 -0.0603
13914W        W30048  11.747   3.883  14.482  0.0780  0.0186 -0.0552
13915W        W30049   9.311  10.715  15.629  0.1195  0.0704 -0.0677
13916W        W30050  16.484   6.991   4.370 -0.2506 -0.2530  0.0703
13917W        W30051   3.264   7.738   2.025  0.0866 -0.2617 -0.2079
13918W        W30052   2.361   0.449  16.168  0.0788 -0.1495  0.0283
13919W        W30053   9.393  15.858   0.944 -0.0980 -0.0374 -0.0633
13920W        W30054   1.458   9.071   2.955  0.2731  0.1725 -0.2056
13921W        W30055  13.730  17.443   1.580  0.2068 -0.0485  0.0546
13922W        W30056  16.658   6.953   5.125 -0.0411  0.0472  0.0193
13923W        W30057   5.797   8.436  16.646  0.3637 -0.3059  0.3926
13924W        W30058   8.504  16.287   0.760 -0.0280 -0.2911  0.3030
13925W        W30059  16.761   1.574   1.354  0.0867  0.0178 -0.0542
13926W        W30060   6.722  12.465   3.734 -0.3635 -0.0401  0.1184
13927W        W30061   9.927   1.865  16.313  0.0306 -0.0247 -0.1058
13928W        W30062   4.078   5.496   5.265  0.3573 -0.2048 -0.0347
13929W        W30063  13.851  16.141   3.721 -0.0211  0.1646 -0.1262
13930W        W30064   8.038   5.841  11.957 -0.2068 -0.0461 -0.1357
13931W        W30065   5.750   3.734   0.847  0.1086  0.0528  0.1526
13932W        W30066  13.714  10.741  16.761  0.0698 -0.3453  0.1622
13933W        W30067  14.459  12.465  12.283  0.0334 -0.0178 -0.1692
13934W        W30068   0.410   1.433  12.545  0.0061  0.0222  0.0728
13935W        W30069  17.022  11.222  16.913  0.0876 -0.2527 -0.1056
13936W        W30070  14.432   1.834  13.534 -0.0078  0.0214 -0.0164
13937W        W30071   9.247   8.858   5.386  0.0686  0.1560 -0.1737
13938W        W30072  16.721   4.933   2.733 -0.0980  0.3145  0.0759
13939W        W30073   2.751  15.996  13.382  0.0476 -0.0132  0.1307
13940W        W30074   9.587   7.137   0.361  0.0856 -0.0154 -0.0386
13941W        W30075  15.264  11.069  15.993 -0.0929  0.0377  0.2295
13942W        W30076   7.380  10.328  13.691  0.4437 -0.0061 -0.0358
13943W        W30077  15.623   6.299   1.790  0.1296  0.3375 -0.2511
13944W        W30078  15.098   9.225  14.055 -0.1039 -0.0413  0.4522
13945W        W30079  11.135   0.788  14.879  0.3712 -0.3055  0.3219
13946W        W30080   6.329   6.432   5.108 -0.3877  0.2615 -0.1774
13947W        W30081   7.054  10.859   0.186  0.2782 -0.0981 -0.0232
13948W        W30082  14.763   2.033   4.955 -0.1649  0.1303  0.1164
13949W        W30083   4.160   4.962  13.766 -0.2557  0.1436  0.1542
13950W        W30084  17.652   8.048   0.840  0.2762 -0.1694 -0.1406
13951W        W30085  11.888   5.726   3.941 -0.0997  0.2492 -0.1493
13952W        W30086   6.299  16.035   4.439 -0.1214  0.2996  0.0646
13953W        W30087   7.183   6.545  14.783  0.1304  0.4462 -0.2281
13954W        W30088  12.780   0.181   1.652  0.0302 -0.1145  0.0494
13955W        W30089   4.368   3.778  15.546 -0.1190 -0.1790  0.0518
13956W        W30090   3.346  15.509  17.041  0.1738 -0.0137  0.0087
13957W        W30091   2.200   1.095  15.150 -0.2591  0.2301 -0.0544
13958W        W30092  11.994   2.796  12.962  0.0594 -0.1732  0.2044
13959W        W30093  16.063  13.886  11.955  0.1844 -0.0516  0.0563
13960W        W30094   9.029   0.668   4.843 -0.0383  0.1214 -0.0388
13961W        W30095  10.964  13.027   0.129 -0.2725 -0.0691 -0.3864
13962W        W30096   4.643   3.736   3.664 -0.0062  0.0715 -0.0906
13963W        W30097   3.283   6.625  13.126  0.0018 -0.1896 -0.0716
13964W        W30098   6.682  15.968   1.030 -0.0433 -0.3501 -0.0124
13965W        W30099   3.472   3.507  15.843 -0.0092 -0.3332 -0.2877
13966W        W30100   6.538   7.422  12.009  0.2200 -0.3620 -0.1551
13967W        W30101  13.579   1.161   5.311 -0.0764  0.0403 -0.2774
13968W        W30102  12.952  15.057   0.474  0.2451 -0.0057 -0.0023
13969W        W30103  10.589   0.537   3.446 -0.2232  0.0005 -0.3262
13970W        W30104  16.073   7.289   4.869 -0.2096  0.2046 -0.1518
13971W        W30105  15.140  15.610   4.054 -0.2565  0.1364 -0.1848
13972W        W30106  12.033   8.727  15.828 -0.0113 -0.1293  0.0035
13973W        W30107  16.902  10.179  15.774  0.4758  0.2491 -0.1366
13974W        W30108  16.808   2.053  11.007 -0.0431 -0.0434 -0.2818
13975W        W30109   1.192   1.641  15.602 -0.0236 -0.1369 -0.1289
13976W        W30110   7.912   3.965  15.477 -0.0674 -0.1598  0.2404
13977W        W30111  16.835   7.114   3.872  0.1734  0.0611  0.0741
13978W        W30112  10.880   8.766  15.710 -0.2958 -0.0891 -0.0261
13979W        W30113   2.446   5.245  11.785 -0.0048 -0.3412 -0.0692
13980W        W30114   4.278  10.065  16.884 -0.0001 -0.1908  0.2305
13981W        W30115   8.286  10.036  13.919 -0.1595 -0.2692  0.1570
13982W        W30116   3.464   8.593   0.945 -0.1193  0.1994 -0.0351
13983W        W30117  16.593  10.799   1.671  0.4538 -0.0284  0.2972
13984W        W30118   2.053   3.782   5.764 -0.2688  0.2470 -0.3448
13985W        W30119   0.700  10.271   0.368  0.1893 -0.0990  0.1071
13986W        W30120   0.730  17.006   3.530  0.1354  0.2283  0.1606
13987W        W30121   0.830   8.082   0.399  0.2588  0.1911  0.1859
13988W        W30122   5.553  14.279  16.992 -0.1240 -0.1551  0.1207
13989W        W30123  11.838   1.808  11.981 -0.0788 -0.2407 -0.0447
13990W        W30124   4.213  13.571  12.700 -0.2685 -0.2174  0.2586
13991W        W30125   8.980  16.381   3.898 -0.1972 -0.0318 -0.0614
13992W        W30126  14.509   1.047  17.168  0.3227 -0.3274  0.2634
13993W        W30127   6.984  12.979  17.138 -0.3568 -0.1363 -0.0191
13994W        W30128   7.247  11.031  12.355 -0.1767 -0.2472 -0.0056
13995W        W30129  11.909   7.842  15.682  0.0039 -0.0967 -0.0252
13996W        W30130  12.106  13.584   5.363 -0.3284  0.0336  0.3138
13997W        W30131   7.077   7.363   0.978 -0.3158 -0.2071  0.0969
13998W        W30132   5.597   3.642  16.184 -0.1486  0.2443  0.0918
13999W        W30133  16.346  17.079   5.089 -0.3412 -0.0399  0.0051
14000W        W30134  11.850   2.408  16.019 -0.3212 -0.1977 -0.1736
14001W        W30135  10.094   1.420   2.673  0.0186  0.0547 -0.1759
14002W        W30136  12.567   2.302   3.059  0.0091  0.1791 -0.2522
14003W        W30137   3.203  12.264   2.256  0.1571 -0.1976 -0.0746
14004W        W30138   4.090   4.797  12.348  0.0437 -0.1123 -0.0855
14005W        W30139   7.971   3.083  13.690  0.0176  0.1459 -0.1608
14006W        W30140  16.388   8.810  15.813  0.0551 -0.0571  0.3749
14007W        W30141  13.267   4.142   1.054 -0.0663  0.1542  0.1395
14008W        W30142   6.667   5.469   2.817 -0.0112 -0.4458 -0.1502
14009W        W30143  11.961   2.310   1.295  0.1030 -0.0676  0.0453
14010W        W30144   2.842  16.539  14.716 -0.1521  0.2623 -0.2594
14011W        W30145   9.988   8.641   0.486  0.2076  0.0677  0.1675
14012W        W30146   1.983  16.997  14.719  0.0233 -0.0722  0.2455
14013W        W30147  10.868  16.537   0.907 -0.2939 -0.0739  0.1401
14014W        W30148  12.145   8.914   4.169 -0.0157  0.0013 -0.2356
14015W        W30149   2.642   9.630  13.408 -0.2115 -0.2613  0.0283
14016W        W30150   0.676   8.261  12.986 -0.3753  0.0628  0.1164
14017W        W30151  14.065   9.768   1.833  0.0048  0.0682  0.2291
14018W        W30152  17.567  14.780  13.747 -0.0440  0.1654 -0.0015
14019W        W30153   0.979  15.770  17.117 -0.0358  0.0593  0.2696
14020W        W30154   7.231  10.746   2.883  0.1934 -0.1777 -0.3727
14021W        W30155  15.963  11.275   5.985 -0.0982 -0.2041 -0.2634
14022W        W30156   1.617  15.058   3.565  0.0987  0.0399  0.0343
14023W        W30157  17.480  13.211   1.796 -0.3929 -0.1443 -0.3690
14024W        W30158  14.400   9.201   3.857  0.1347  0.0158 -0.0736
14025W        W30159   6.646  12.432  12.775  0.1208  0.0342  0.1846
14026W        W30160  12.621   3.873   0.869 -0.3544  0.2100  0.4785
14027W        W30161  10.572  13.351  13.213  0.0252 -0.0430 -0.1030
14028W        W30162  13.272   4.578   2.844  0.1606  0.0977  0.0300
14029W        W30163  10.686   9.244   4.931  0.2918 -0.1500 -0.0171
14030W        W30164  15.237  11.092  16.848 -0.1653  0.0122  0.0808
14031W        W30165   7.555  10.285  15.878 -0.2191  0.2667 -0.0613
14032W        W30166   9.922  17.211   2.472  0.2703 -0.0029  0.3954
14033W        W30167   2.501  11.983   0.008 -0.2602 -0.1387 -0.1676
14034W        W30168  17.429   4.534  14.618 -0.0221 -0.0053 -0.1457
14035W        W30169   2.824  15.403  12.743 -0.2057  0.2252 -0.2263
14036W        W30170  16.007   1.469  12.844  0.0845  0.0600  0.1410
14037W        W30171  15.708  12.382   0.209 -0.1488 -0.0477  0.2495
14038W        W30172   2.052  16.572  13.734 -0.0364 -0.0510 -0.0515
14039W        W30173   9.827   3.927   1.627  0.0765  0.2043  0.1520
14040W        W30174  10.600  14.265  13.382  0.1827  0.3399 -0.1329
14041W        W30175  14.790   6.443   1.817  0.0748 -0.1199  0.3859
14042W        W30176  10.090   7.643   2.113 -0.1671  0.1261 -0.2838
14043W        W30177   8.444   0.209   2.162 -0.0548 -0.2284 -0.2044
14044W        W30178   3.111   8.962   4.024 -0.1255 -0.2124 -0.2147
14045W        W30179  13.041   4.415   3.246 -0.0123 -0.0985  0.1439
14046W        W30180   2.393   0.573  14.560 -0.1373 -0.2270 -0.1399
14047W        W30181  13.979   6.913   0.995  0.0559 -0.1589 -0.3554
14048W        W30182  11.795   4.576   1.398  0.0130 -0.1444  0.0046
14049W        W30183  13.172   8.341  15.848 -0.1906 -0.1892 -0.1237
14050W        W30184  10.194   6.209  13.090 -0.1151 -0.0339 -0.2672
14051W        W30185   4.195  13.209   5.086  0.0587 -0.1039 -0.0523
14052W        W30186  14.565   4.008  14.552 -0.0038 -0.0515 -0.1952
14053W        W30187   0.675   2.583  14.176 -0.0787 -0.4471 -0.1098
14054W        W30188   5.768  12.991  12.991 -0.1245 -0.1115  0.2997
14055W        W30189   5.962   7.831   1.770  0.0190  0.0437 -0.0706
14056W        W30190  15.897  14.643   3.543 -0.2400 -0.3620  0.1686
14057W        W30191  13.465  14.433  15.075 -0.1213 -0.2963 -0.1579
14058W        W30192   4.761   8.832   0.737  0.0355 -0.0527 -0.2463
14059W        W30193   8.098   7.040  12.078  0.0292 -0.0368 -0.1968
14060W        W30194   8.436   9.524   3.336  0.3859  0.3309 -0.2741
14061W        W30195   2.318   8.201  14.179 -0.3133 -0.0206 -0.0919
14062W        W30196   7.647  16.080  11.834 -0.1084  0.1415 -0.1239
14063W        W30197  16.786  12.186  12.155 -0.2026  0.0286  0.0090
14064W        W30198   9.279  11.190  12.378  0.0484 -0.4678 -0.0472
14065W        W30199   3.865   1.414   5.104 -0.1916  0.0470 -0.0766
14066W        W30200  12.274   2.573   5.538  0.0677 -0.0076 -0.0732
14067W        W30201  13.234   2.125   2.068 -0.0584  0.0870  0.0347
14068W        W30202   0.475  12.940   4.166 -0.0065 -0.1401  0.3217
14069W        W30203   9.638   2.780  15.995 -0.1239 -0.1510 -0.0033
14070W        W30204   6.823  13.238  15.450  0.1687 -0.1243  0.0475
14071W        W30205   4.967   0.139   1.434  0.0793  0.0272 -0.1351
14072W        W30206  10.623  14.964   2.648 -0.1414  0.1311 -0.0115
14073W        W30207   4.164   2.645  15.094 -0.1253 -0.0171  0.1349
14074W        W30208  15.213  14.177   3.748 -0.1911 -0.2087  0.1421
14075W        W30209   2.247   9.244   2.929 -0.2503 -0.0818 -0.0578
14076W        W30210   5.124  12.840   3.470 -0.3063  0.2813  0.0777
14077W        W30211   3.491  11.500  12.729  0.1682  0.3242 -0.4740
14078W        W30212  12.711   2.868  15.419  0.3773  0.2663  0.0449
14079W        W30213   8.106   3.644   4.100  0.0172 -0.2921  0.3333
14080W        W30214  11.589   8.957  12.795  0.3458  0.0811 -0.1659
14081W        W30215  14.617  14.938   1.919  0.0773 -0.2857  0.0051
14082W        W30216   5.089  16.348   6.653  0.0333 -0.1496  0.1456
14083W        W30217   4.609   7.473   2.793  0.0044  0.3305 -0.0069
14084W        W30218  16.581  10.655  16.437 -0.0807  0.2425 -0.1745
14085W        W30219  10.719  15.892  14.643 -0.5287  0.1362 -0.1127
14086W        W30220   9.677   2.413  11.316  0.1668 -0.1271 -0.0390
14087W        W30221   8.749   9.809   1.266 -0.0133  0.0657  0.0056
14088W        W30222   5.684   4.205  16.960 -0.1682 -0.1016 -0.0321
14089W        W30223  13.747   0.959  16.245 -0.1935 -0.0300 -0.1746
14090W        W30224  11.887  15.950  15.259  0.3852  0.1326 -0.1441
14091W        W30225   3.721   8.040   3.054 -0.5160 -0.1307 -0.0448
14092W        W30226  13.783  11.879   3.492  0.1702  0.3378 -0.0449
14093W        W30227   5.002  17.285   1.364  0.1605 -0.1470  0.2960
14094W        W30228  12.347  11.423   3.944  0.2125  0.0324  0.0965
14095W        W30229   2.713   3.951   1.421  0.1811 -0.1088  0.1449
14096W        W30230   0.452  15.571   6.045 -0.2133  0.2908 -0.1489
14097W        W30231  16.114   2.926   5.520  0.0175 -0.0391  0.1747
14098W        W30232   7.135   9.885  12.596 -0.1315 -0.1030  0.3318
14099W        W30233  17.044  15.796  14.022 -0.1099  0.0227 -0.0879
14100W        W30234   9.473   9.174  14.264 -0.0589  0.0238 -0.1776
14101W        W30235  12.700   3.198   2.806 -0.1867 -0.1077  0.2249
14102W        W30236   8.320  16.627  17.135 -0.3437 -0.1294  0.1680
14103W        W30237   2.951  12.116   0.993  0.0861 -0.4787 -0.1530
14104W        W30238  16.290   2.354   3.339  0.0366 -0.1177  0.0085
14105W        W30239  11.354  14.578   0.427 -0.0370  0.1724  0.1606
14106W        W30240  10.444   5.018  12.984 -0.1847  0.0457  0.2140
14107W        W30241   0.762  13.911   0.226 -0.0923 -0.0271  0.1558
14108W        W30242  10.183  10.250   3.046  0.0142 -0.5071  0.1957
14109W        W30243   8.819  17.542  13.653 -0.0235  0.1099 -0.0735
14110W        W30244  14.319   0.339   3.528 -0.2190  0.0699  0.2411
14111W        W30245   9.312   4.933   4.593  0.1065 -0.2167  0.0248
14112W        W30246   5.427   7.914  17.147 -0.3160 -0.0431 -0.3333
14113W        W30247   6.926  15.774  16.781 -0.2631 -0.3079  0.2305
14114W        W30248  12.592   9.365   2.882 -0.3467  0.2624 -0.1722
14115W        W30249  15.261   3.094  16.500 -0.1969 -0.0626  0.2328
14116W        W30250   1.525   8.793   3.368 -0.1631  0.2644  0.0227
14117W        W30251   9.882  12.115  15.827 -0.1802  0.2795  0.0752
14118W        W30252  12.148   0.811  14.299  0.3038  0.2943 -0.3803
14119W        W30253   3.637   5.027  14.020  0.0901  0.2383 -0.1957
14120W        W30254  10.003  12.242   1.050 -0.1694  0.0650 -0.0862
14121W        W30255  11.687   3.714   3.058 -0.1114  0.0812  0.2211
14122W        W30256   6.121   6.595  15.500  0.1698  0.2608 -0.2776
14123W        W30257   3.964  14.772  12.262 -0.3074 -0.0029  0.0808
14124W        W30258   0.915   4.859   3.986 -0.0837  0.0239 -0.0595
14125W        W30259  10.976   7.228  16.675 -0.1119 -0.1377  0.1100
14126W        W30260  13.922   9.971  13.511 -0.0587  0.0137  0.0338
14127W        W30261  13.878   4.592  13.006 -0.1620  0.0137  0.0461
14128W        W30262  11.213   7.651  14.906 -0.1882 -0.0549 -0.2322
14129W        W30263  15.712   1.808   3.765  0.2947  0.1073  0.0679
14130W        W30264  14.511   0.206   2.725 -0.0508  0.0969 -0.2362
14131W        W30265   6.611   6.485  12.820  0.1180 -0.1529  0.1212
14132W        W30266   6.801   8.807   2.934  0.1400  0.1382  0.0909
14133W        W30267   0.586   7.431   1.787 -0.0595 -0.1495  0.0492
14134W        W30268   3.828  15.632   1.109  0.2553 -0.0311  0.1454
14135W        W30269   8.060   4.679  13.757 -0.0146  0.4711  0.5591
14136W        W30270  12.050   9.345   4.622 -0.0730 -0.0795  0.1142
14137W        W30271   6.134  11.401  13.477  0.0128 -0.0156 -0.3975
14138W        W30272   4.034  14.665   2.126  0.0989 -0.0743  0.0249
14139W        W30273   6.707  11.483   0.890 -0.0386  0.3364  0.2091
14140W        W30274   8.270   6.883  16.380  0.0675 -0.3909  0.1227
14141W        W30275   5.665   1.782   4.122  0.1035 -0.2708  0.0997
14142W        W30276   1.835  11.763   2.187  0.0892 -0.2430 -0.0072
14143W        W30277   8.462  12.120   6.090  0.1799 -0.0260  0.1253
14144W        W30278  10.164   8.277  11.795 -0.1611  0.2093  0.3562
14145W        W30279   9.508   1.476  12.226  0.0269 -0.0262  0.2250
14146W        W30280   3.080   6.681   5.505  0.2083 -0.2397  0.0217
14147W        W30281  12.753  14.143   6.298  0.0626  0.0281 -0.0534
14148W        W30282  12.900   5.459   3.416  0.1569  0.1552 -0.1403
14149W        W30283   9.143  12.958  15.200 -0.1453 -0.0152  0.0493
14150W        W30284  15.022  15.813   6.601  0.1222  0.2174  0.0896
14151W        W30285  11.272  11.083  14.193 -0.3916 -0.0964 -0.0066
14152W        W30286   0.133   7.913   3.323 -0.1022 -0.1631 -0.1586
14153W        W30287  17.284  16.687  13.688  0.0172 -0.1733  0.1636
14154W        W30288   7.330  16.152  12.619 -0.2393  0.0948  0.1699
14155W        W30289   4.456  14.271  14.563 -0.0895 -0.1690 -0.1651
14156W        W30290  14.137  12.120  15.015  0.1935  0.0920 -0.0750
14157W        W30291  16.643  17.242  14.096  0.1895  0.2580 -0.1437
14158W        W30292  12.194  15.092   3.980 -0.3359  0.1646 -0.0846
14159W        W30293   7.821   0.674  15.250 -0.2471 -0.1041 -0.1636
14160W        W30294  13.753   8.185   0.980  0.1194  0.1611 -0.2035
14161W        W30295   9.477  13.092   5.910  0.1669 -0.0294  0.4877
14162W        W30296  14.427   8.457   2.869 -0.2669 -0.1108 -0.3861
14163W        W30297   7.766   3.017  16.680 -0.0094  0.3534 -0.0375
14164W        W30298   7.383   3.028   0.761  0.1851  0.1336  0.0516
14165W        W30299   2.827   3.496  12.047  0.1609  0.2339  0.0975
14166W        W30300   4.114  15.910  13.173 -0.1643  0.1843 -0.3558
14167W        W30301   6.583  15.437  16.826 -0.3488 -0.0599 -0.0876
14168W        W30302   9.113   0.855   2.782 -0.2297 -0.0373  0.1350
14169W        W30303   5.292   4.792   3.380  0.0754  0.0990  0.1718
14170W        W30304  15.292   4.581  15.638  0.0853  0.0471  0.3741
14171W        W30305   4.586   9.851  14.149 -0.0181  0.0063 -0.0618
14172W        W30306   6.145  13.821  15.146  0.0148 -0.1134  0.0535
14173W        W30307   5.587   4.333  14.008 -0.1511 -0.3834 -0.4519
14174W        W30308  11.201  12.070   2.797  0.2108  0.4939 -0.0055
14175W        W30309   8.691   4.514  15.338  0.0099  0.3603  0.0375
14176W        W30310   9.205   2.176  14.878  0.0752 -0.0581 -0.0138
14177W        W30311   6.252   1.509  12.436 -0.1804 -0.1824 -0.0181
14178W        W30312  11.069   3.175   3.428  0.1982  0.2897 -0.1321
14179W        W30313  15.330   8.404  11.640  0.1508 -0.0793  0.1569
14180W        W30314  10.693  15.314   3.533  0.0407 -0.2528  0.3053
14181W        W30315   6.053  10.956   3.765  0.0184 -0.0038  0.2940
14182W        W30316   1.511   9.904  14.079  0.0411  0.1616 -0.2847
14183W        W30317   2.842  16.971  15.043 -0.0713 -0.1429 -0.2268
14184W        W30318  14.935  15.343  16.522  0.0089 -0.0179  0.0177
14185W        W30319   4.077  13.430   1.031 -0.1960 -0.3496 -0.1544
14186W        W30320  15.851  15.125  14.112  0.0374 -0.1093  0.2885
14187W        W30321  11.149   3.382  15.938 -0.1799  0.1137 -0.1220
14188W        W30322   4.686  15.880   3.765 -0.2137  0.0023 -0.1568
14189W        W30323  13.587  12.893  14.897 -0.2357 -0.0167  0.3010
14190W        W30324  14.305   6.351  13.658  0.1759 -0.0590 -0.0925
14191W        W30325   0.812  10.592   5.819  0.1618  0.1928  0.0213
14192W        W30326  15.110  16.457   4.602  0.3685  0.3647 -0.0998
14193W        W30327   8.389  14.482   5.327  0.0514 -0.0011  0.0430
14194W        W30328   7.316  16.391   6.233  0.0538 -0.0015  0.4391
14195W        W30329   2.501   2.614   2.993 -0.0453 -0.1690  0.1300
14196W        W30330  13.889   0.842   4.505  0.1779 -0.0185 -0.3156
14197W        W30331   9.576  14.445   4.771  0.0518  0.0625  0.1969
14198W        W30332   1.061   5.242   1.437  0.1501 -0.0310 -0.0193
14199W        W30333   1.097  13.789   2.996  0.0821  0.1223  0.0334
14200W        W30334  15.235  17.071   4.728 -0.0563 -0.0758 -0.0332
14201W        W30335  15.597   3.338   0.792  0.0827  0.0966  0.1412
14202W        W30336  15.026   1.106   5.292 -0.1390 -0.0265  0.2253
14203W        W30337   8.306   2.401  15.912 -0.1267  0.0272  0.0400
14204W        W30338  15.527  17.340   3.148 -0.2570 -0.3059  0.2962
14205W        W30339   5.384   5.967   0.154 -0.0496  0.2018 -0.0414
14206W        W30340   1.052   8.946  13.747  0.0674  0.2075 -0.0084
14207W        W30341  14.725   2.536   4.727 -0.1155  0.0262  0.3616
14208W        W30342   1.907  10.671  16.546  0.3303 -0.1345 -0.1183
14209W        W30343  10.542   8.064   0.709 -0.1177 -0.1885  0.0491
14210W        W30344  13.222   3.141   4.420  0.2152 -0.0765 -0.0138
14211W        W30345   2.872   2.670  15.298  0.0112 -0.0429 -0.1792
14212W        W30346  14.393  13.724  11.964  0.1204 -0.0278  0.1499
14213W        W30347  14.296   3.008   4.121 -0.0065  0.1495  0.4396
14214W        W30348   7.999  15.228  17.175 -0.0661 -0.0111  0.0876
14215W        W30349  14.455  15.971  15.919 -0.3775 -0.2486  0.0529
14216W        W30350  12.168   8.038   2.677 -0.3953  0.0721  0.1431
14217W        W30351   9.187  10.367  10.811  0.2696 -0.1835  0.0411
14218W        W30352  14.461   0.623  16.187 -0.0495 -0.0237  0.0145
14219W        W30353   5.762  15.803   2.803 -0.1215 -0.0094  0.0029
14220W        W30354   7.602   0.503  14.281 -0.1700  0.0019  0.1284
14221W        W30355  17.010  10.266   1.238 -0.0287  0.0289 -0.2944
14222W        W30356  12.383  15.761  14.004 -0.0783  0.1071 -0.0258
14223W        W30357  10.713  12.730   6.104 -0.3893 -0.0116  0.0191
14224W        W30358   2.090   8.096   1.278  0.1456  0.0949 -0.0165
14225W        W30359  17.406   0.393   5.404  0.0201 -0.2140 -0.0465
14226W        W30360   5.012  15.992  14.344  0.2064  0.0100  0.0703
14227W        W30361  11.856  15.961   5.546 -0.2316  0.0800 -0.1870
14228W        W30362  12.464   7.668  13.161  0.0967 -0.0817 -0.1704
14229W        W30363   7.545   8.046   2.206  0.0499 -0.1481 -0.2522
14230W        W30364  12.014  13.335   4.578  0.1100  0.3299 -0.1234
14231W        W30365   1.126  15.520   2.976 -0.1824 -0.3752 -0.2554
14232W        W30366  11.447   5.104   4.563  0.2951  0.1459  0.3575
14233W        W30367   6.906  11.019   2.624 -0.1907  0.3057  0.1022
14234W        W30368   7.107   3.005   5.041 -0.2428 -0.1911  0.1370
14235W        W30369  14.292   9.888   4.882  0.0724  0.0092 -0.2071
14236W        W30370   2.664  13.881   6.264  0.3400 -0.1608  0.1039
14237W        W30371  13.209  12.300  14.684  0.2096 -0.1818 -0.1360
14238W        W30372  12.588   8.760  13.327 -0.1209  0.2172 -0.0661
14239W        W30373  15.829   2.576  16.073 -0.1816 -0.3304 -0.2580
14240W        W30374  14.253   3.664   1.823 -0.0631 -0.1051  0.0553
14241W        W30375   7.658   1.414   5.126  0.1441 -0.1272  0.1265
14242W        W30376   0.559   9.180  16.239  0.0617  0.0138 -0.3913
14243W        W30377   6.126  13.822  14.552 -0.0313  0.1160 -0.1985
14244W        W30378  17.058  10.600  16.389 -0.0370 -0.1238  0.2452
14245W        W30379   2.920   3.490   1.360 -0.0346 -0.1447  0.0565
14246W        W30380  11.850   9.759   4.384  0.1787 -0.1001 -0.0558
14247W        W30381  14.829   8.386  11.582 -0.1316  0.0525 -0.0105
14248W        W30382   0.497   2.940  15.949  0.1710  0.0230 -0.2046
14249W        W30383   9.590  17.089   5.253  0.2445  0.1487  0.0335
14250W        W30384   1.499  15.836   6.025 -0.1460  0.0978  0.3098
14251W        W30385   6.265   3.486  13.660 -0.2297  0.1010  0.3005
14252W        W30386  16.083   7.550  13.893  0.0638 -0.4173 -0.2415
14253W        W30387   4.619   5.656  12.056 -0.0233 -0.2786  0.2801
14254W        W30388   7.736   3.374  13.962  0.0720 -0.2195  0.1606
14255W        W30389  13.150  16.568   1.866 -0.3124 -0.1426  0.1500
14256W        W30390  10.615  12.457  13.409  0.1120  0.2072 -0.0280
14257W        W30391  15.742   3.394   2.053  0.2764  0.3703  0.2284
14258W        W30392  11.703  12.918   5.761 -0.1522 -0.1527  0.1760
14259W        W30393   3.765  10.720  12.204 -0.1833  0.1978 -0.0784
14260W        W30394  14.189  17.559   0.643  0.0056 -0.1529  0.2389
14261W        W30395  10.917  15.977   5.307 -0.1204 -0.0448  0.1210
14262W        W30396  11.717   9.432  16.159  0.0052 -0.1703  0.0725
14263W        W30397  13.640  13.178  15.899 -0.1252  0.2868  0.0461
14264W        W30398  11.343  10.276   6.129 -0.3627  0.0337  0.1735
14265W        W30399   9.894   0.247   0.140  0.1819 -0.1838  0.4512
14266W        W30400   8.519   7.013  10.615  0.3462 -0.0165  0.2786
14267W        W30401   7.144  10.701   1.052  0.0789 -0.0727  0.1517
14268W        W30402   4.773  13.199  15.198 -0.1179  0.1358 -0.0493
14269W        W30403   3.091   6.720  14.188 -0.1855  0.1137  0.1184
14270W        W30404  11.213   3.279   4.001 -0.0259 -0.3290 -0.1516
14271W        W30405   2.545   1.119  12.802 -0.1070  0.0709  0.1223
14272W        W30406   8.822  11.065   0.545 -0.0015 -0.0208 -0.0376
14273W        W30407   7.813  15.000   0.926 -0.2719 -0.1871 -0.0138
14274W        W30408  17.435   6.615  13.210 -0.0994  0.1901  0.1996
14275W        W30409   7.136   1.869   1.515  0.1699  0.1201  0.0810
14276W        W30410   9.747   1.713   0.890 -0.1373  0.2275 -0.4089
14277W        W30411   5.820   4.413  14.461 -0.1858 -0.0547 -0.1335
14278W        W30412  14.968   5.353   4.322  0.2079 -0.1332  0.1558
14279W        W30413   5.726   1.762   3.649  0.1491  0.0986  0.1377
14280W        W30414  11.867   0.726   5.611  0.1616 -0.0078  0.2018
14281W        W30415   5.710   7.267  11.762  0.1239  0.0431  0.0609
14282W        W30416   7.139   5.922   0.267 -0.4035 -0.0441 -0.2340
14283W        W30417   3.933  16.074   4.292 -0.2210  0.0902 -0.0820
14284W        W30418   8.620  12.766  16.023  0.1869  0.0469 -0.2711
14285W        W30419   3.670   2.114   6.381 -0.0332 -0.0787 -0.2071
14286W        W30420   3.975   5.465  11.304  0.0977 -0.2134 -0.2240
14287W        W30421   2.947   3.282  17.151 -0.0103 -0.1178 -0.0581
14288W        W30422  16.847   7.495  12.306  0.1036 -0.1330 -0.1263
14289W        W30423  16.665   8.292   0.941 -0.0563  0.1173  0.2227
14290W        W30424   4.439   8.899   2.675 -0.0697 -0.3793  0.0743
14291W        W30425  11.131   9.523  14.354 -0.1594 -0.0958  0.1311
14292W        W30426   7.906   5.780   5.063  0.1919  0.2166 -0.1680
14293W        W30427  13.362   6.665  13.488  0.2387 -0.1955  0.1269
14294W        W30428  12.254   4.357  14.709  0.0075  0.1319 -0.2385
14295W        W30429   2.255   0.133  16.564  0.2082 -0.0997  0.0118
14296W        W30430  10.644   9.553  15.415  0.2612 -0.0140 -0.1076
14297W        W30431   5.159  17.530   6.918 -0.0904 -0.1324  0.0983
14298W        W30432  11.215   7.126   1.365  0.0351 -0.2272  0.1676
14299W        W30433   9.551  13.485   2.322  0.0111  0.2764  0.0016
14300W        W30434   7.781   7.161  13.598  0.2814 -0.0029 -0.2161
14301W        W30435   6.998  16.041   6.376  0.2729  0.1050 -0.1197
14302W        W30436  11.398  10.972   1.318  0.1325 -0.1883  0.0632
14303W        W30437   5.582  17.133  13.989 -0.3937 -0.0658 -0.1113
14304W        W30438   1.000   7.903   4.910  0.1880 -0.0412 -0.1675
14305W        W30439   3.022  14.752  16.491  0.2091 -0.0811 -0.0097
14306W        W30440  13.695   1.991  12.400  0.1332  0.1666 -0.2061
14307W        W30441   2.998  11.313   5.518 -0.2564 -0.0876  0.0032
14308W        W30442  17.088   9.939   3.268 -0.0938  0.0872  0.2009
14309W        W30443   6.901  14.052  13.965  0.1278  0.1505 -0.0532
14310W        W30444   3.808  16.649   5.970  0.2672  0.0289 -0.1175
14311W        W30445   9.607   0.043   0.535  0.0972  0.1749  0.0082
14312W        W30446   8.761  16.424   6.207 -0.4712 -0.3848  0.1614
14313W        W30447   5.631   6.677   6.149  0.1191 -0.1361  0.4854
14314W        W30448   0.674  10.028  16.446  0.4462  0.0484 -0.1604
14315W        W30449   9.923  10.951  15.943  0.2094 -0.0163 -0.0742
14316W        W30450   8.447   4.929   5.442  0.0838 -0.3509 -0.3215
14317W        W30451   5.594   5.071  11.221  0.1842  0.0218 -0.0621
14318W        W30452   8.901   7.375  14.212 -0.0938  0.1086  0.0114
14319W        W30453  17.437   6.159  13.376 -0.0015 -0.1724 -0.1330
14320W        W30454  10.404  13.603   4.229  0.1273  0.3001  0.0661
14321W        W30455   1.612   6.886   2.877  0.3403 -0.1106 -0.0183
14322W        W30456   9.099   6.902  12.146  0.0068 -0.1749  0.2635
14323W        W30457   1.110  16.513   1.851 -0.1031 -0.1916  0.0707
14324W        W30458   0.740   4.665  13.269 -0.0281  0.0428  0.0036
14325W        W30459  17.013  11.707  16.720  0.1006 -0.0915  0.1286
14326W        W30460   9.821   1.196  13.113 -0.1499  0.2501  0.0354
14327W        W30461  10.671   9.684  14.574 -0.1946  0.1447  0.0713
14328W        W30462  13.694   7.402  15.966  0.0476 -0.0959 -0.1645
14329W        W30463  12.540  13.909  16.058  0.0764  0.2829  0.2959
14330W        W30464   4.001  12.770   4.807  0.0945 -0.4160  0.1430
14331W        W30465  14.545   1.503  12.290  0.1243 -0.1338 -0.1748
14332W        W30466   6.095   0.162   0.614 -0.2197 -0.0127 -0.2462
14333W        W30467   3.461  12.656  16.543 -0.0544 -0.1117 -0.0654
14334W        W30468  14.493  14.803   3.830  0.0322 -0.4093  0.0911
14335W        W30469   9.303  14.321   4.282  0.1667  0.0363 -0.0030
14336W        W30470   2.275   6.676  12.545 -0.3164  0.0204  0.3114
14337W        W30471  14.535  17.588   1.407 -0.0495  0.1688 -0.2320
14338W        W30472   3.739   2.776  17.059  0.1173  0.3099  0.1359
14339W        W30473   3.039   1.164   5.709 -0.1550 -0.1050  0.1445
14340W        W30474   3.414  11.904  13.097 -0.2485 -0.0169  0.3041
14341W        W30475   1.693  17.242   3.157 -0.0357 -0.0955  0.0774
14342W        W30476   2.031   3.151   1.458  0.0711 -0.0095  0.0687
14343W        W30477  17.347   3.962  12.905 -0.0592  0.2181 -0.1490
14344W        W30478   8.293  14.220  14.589  0.0172  0.1937 -0.1026
14345W        W30479  17.478  11.130  11.291  0.1062  0.2187 -0.1318
14346W        W30480  11.616   1.410   2.373  0.0467  0.0525  0.1471
14347W        W30481   6.809   0.547  16.410 -0.1450 -0.1390 -0.0879
14348W        W30482   5.394   1.253  11.984  0.0800 -0.1878  0.0292
14349W        W30483   4.958  14.774  14.413  0.0854  0.1866  0.0098
14350W        W30484  14.339  13.197   5.849  0.0367 -0.4293  0.1287
14351W        W30485  10.269  14.393   3.229 -0.1493 -0.2089 -0.2680
14352W        W30486   1.013   6.270   4.083  0.3950  0.0088  0.1476
14353W        W30487  13.014   6.397  12.154  0.1841 -0.0325 -0.2436
14354W        W30488  11.567  14.414  15.021 -0.1976  0.0260 -0.3253
14355W        W30489  10.350   5.757  15.713  0.1733  0.0940 -0.3869
14356W        W30490  10.139   2.965   0.224 -0.0073 -0.3992  0.0027
14357W        W30491  11.636   5.415   2.120 -0.1182  0.1508  0.1399
14358W        W30492   6.293   6.335  11.308 -0.0516 -0.1259 -0.0524
14359W        W30493  16.760   4.385   4.654 -0.1193  0.1008 -0.3021
14360W        W30494  14.358  16.633   6.136  0.2374  0.1743  0.1602
14361W        W30495   5.970   1.565   1.988 -0.2546  0.1685 -0.0548
14362W        W30496  13.774  15.124  14.397  0.2041 -0.0461  0.0129
14363W        W30497  12.872   8.980   1.665 -0.1298  0.1627 -0.0043
14364W        W30498  11.280  16.255   2.504  0.1694 -0.0166 -0.2447
14365W        W30499  13.413   2.733   3.050  0.0033 -0.1246  0.0742
14366W        W30500  17.402  10.085   4.613 -0.0807 -0.3030 -0.2374
14367W        W30501  14.749  11.965  14.247 -0.3171 -0.2298  0.0590
14368W        W30502   5.469  13.373  14.183  0.0779 -0.3109  0.1597
14369W        W30503   9.142  10.224  15.593  0.0427 -0.1303 -0.1781
14370W        W30504  13.017   4.844   2.446 -0.1046  0.0890  0.0317
14371W        W30505  12.277   7.422  15.737  0.0869 -0.0824 -0.0400
14372W        W30506   0.987  15.761   2.407  0.1145 -0.0152 -0.5586
14373W        W30507  12.335   3.097  12.617 -0.1257 -0.0131  0.2460
14374W        W30508   2.189   6.552   1.215  0.0172  0.0502 -0.1687
14375W        W30509  14.855  13.887  13.641  0.1740  0.3006 -0.0836
14376W        W30510  14.121   3.935   0.271 -0.1260 -0.0467  0.0074
14377W        W30511  13.551   9.312   4.489  0.1247 -0.2043 -0.1459
14378W        W30512   2.162   7.898   3.162 -0.1276 -0.2153  0.0755
14379W        W30513   3.670  13.109  15.571 -0.3061  0.5337  0.1388
14380W        W30514  11.444  13.400   1.758 -0.1974 -0.0321 -0.1424
14381W        W30515  13.042  14.177   0.197 -0.1446 -0.2174  0.3109
14382W        W30516   0.511  15.307  12.596 -0.0911  0.0977 -0.0462
14383W        W30517  12.270   7.148  15.178  0.1888  0.0437  0.2764
14384W        W30518   6.316   1.254   3.747 -0.2794  0.2057 -0.1036
14385W        W30519   6.181  12.332  12.801 -0.0479 -0.1280 -0.0325
14386W        W30520   1.647   0.898   1.288 -0.0877  0.0385  0.1575
14387W        W30521  17.426   5.239   0.169 -0.3021  0.2436  0.3479
14388W        W30522   9.271   4.759  12.569 -0.1097  0.0691  0.0501
14389W        W30523  15.008   7.836   1.382 -0.0198 -0.0786 -0.0412
14390W        W30524   2.427   7.758  16.743 -0.0162  0.1892 -0.1405
14391W        W30525  12.941  11.056  16.423 -0.1059 -0.0679  0.3712
14392W        W30526   4.432  16.556   4.901  0.0200  0.1167 -0.0208
14393W        W30527   9.647  16.481  13.417 -0.1948 -0.2983 -0.3273
14394W        W30528   8.227   2.549   1.681 -0.2323 -0.1297  0.0444
14395W        W30529   6.831  13.489   0.677  0.0356  0.1918 -0.0699
14396W        W30530   0.536  14.357   2.052 -0.0578  0.0083 -0.1339
14397W        W30531   0.281   4.525   1.780 -0.0469 -0.0123  0.3585
14398W        W30532  14.634   7.097  15.834 -0.1477  0.0023  0.1185
14399W        W30533  12.157   2.958   5.824 -0.3595  0.4068  0.2274
14400W        W30534   9.017   5.770   3.031  0.0097  0.0177 -0.1753
14401W        W30535   4.853  16.967   1.796 -0.1659 -0.0346 -0.1209
14402W        W30536   8.175  10.918   2.785  0.0146 -0.1616 -0.1598
14403W        W30537  14.145   7.934  12.147 -0.1177 -0.0908  0.4091
14404W        W30538   8.792   5.260   5.152 -0.0439  0.1185 -0.2707
14405W        W30539   2.711   4.856  13.756 -0.1524  0.1263  0.0355
14406W        W30540  10.449  13.126   2.981  0.1948 -0.1813  0.0710
14407W        W30541   4.075   6.162  14.805  0.1266 -0.2876  0.2821
14408W        W30542  17.557   6.132  17.103  0.0535  0.1322  0.1597
14409W        W30543   8.580  17.660  12.885  0.0412  0.0246 -0.0826
14410W        W30544  17.217  10.582   0.911  0.1626 -0.1931 -0.0540
14411W        W30545  16.152   6.530  12.979 -0.1396 -0.1044  0.1136
14412W        W30546   8.002  11.575   1.375  0.0055  0.1020 -0.0209
14413W        W30547   5.516  11.819   0.850 -0.4592  0.0548  0.3664
14414W        W30548   9.694   0.886   4.361  0.1911 -0.2337 -0.1893
14415W        W30549   1.469   8.471   2.879 -0.0307  0.0509  0.2267
14416W        W30550  17.338  15.335  15.993  0.0628  0.1145 -0.2462
14417W        W30551   7.269   7.309   5.784  0.1478 -0.1641  0.1197
14418W        W30552  17.127  15.127   4.458  0.1024 -0.1596 -0.0942
14419W        W30553   7.982   1.958  14.053 -0.1808 -0.0237 -0.1881
14420W        W30554   9.775   8.856   2.666 -0.0495 -0.0652  0.2070
14421W        W30555  10.797   0.571   4.495  0.2489 -0.0148  0.1220
14422W        W30556   0.660   9.170   4.477  0.0781  0.0373 -0.3133
14423W        W30557  12.272   2.455  16.737 -0.0483  0.1469  0.1197
14424W        W30558   4.892  16.711  12.363 -0.1424 -0.3078  0.1321
14425W        W30559   4.433   9.519   1.352 -0.0228 -0.1214 -0.2486
14426W        W30560   7.360   3.870  15.342 -0.0535 -0.1176 -0.1798
14427W        W30561   5.496  16.187  14.064  0.1110  0.1743 -0.1600
14428W        W30562   6.483   3.866   3.572 -0.1833 -0.0313  0.0988
14429W        W30563   4.315  15.472  15.664 -0.2030 -0.1315 -0.2803
14430W        W30564  14.904  17.280   5.043 -0.5257 -0.1293 -0.0474
14431W        W30565   9.564   4.675   0.245  0.2834 -0.0356  0.0336
14432W        W30566   1.148  10.469  16.406 -0.0791  0.0070 -0.0138
14433W        W30567   9.738   8.205  15.167 -0.0939  0.1179  0.0936
14434W        W30568  16.036  15.934  16.173 -0.1435  0.1196  0.0761
14435W        W30569  16.646   7.944  11.734 -0.0037  0.1094 -0.4033
14436W        W30570  15.220  17.387   3.669  0.0043  0.0213  0.1771
14437W        W30571   3.143   1.560  16.273  0.0591 -0.0131 -0.0166
14438W        W30572  13.350   2.875  14.008  0.2653  0.0041 -0.0679
14439W        W30573  15.086   1.661  15.623 -0.0649 -0.1002  0.1069
14440W        W30574  15.597  10.320   3.826  0.0186 -0.0478 -0.0216
14441W        W30575  16.377   7.856   3.531  0.1147  0.1910 -0.1120
14442W        W30576   7.954   6.437   0.352 -0.0981  0.0200 -0.1079
14443W        W30577   7.587   0.972  14.106  0.5020  0.0541  0.1714
14444W        W30578  13.457   5.960   5.147  0.0944 -0.1607  0.0173
14445W        W30579   8.947   5.255   0.075  0.1264 -0.3134  0.1730
14446W        W30580   1.349  12.907   4.802  0.1182  0.0242 -0.0322
14447W        W30581   9.881   8.894  13.242  0.1847 -0.0962  0.2350
14448W        W30582  14.653   6.217   0.327 -0.1648  0.0531 -0.2125
14449W        W30583   4.825  10.916   2.366  0.0918  0.0059  0.2507
14450W        W30584  14.230  16.520   5.211 -0.1803  0.0297  0.1729
14451W        W30585   3.083   4.006   4.821 -0.3197  0.3735  0.1241
14452W        W30586  17.031   2.836  17.148 -0.0340 -0.2102 -0.0837
14453W        W30587  15.132   7.572   2.703  0.1254  0.1629  0.1169
14454W        W30588  13.331  12.330   3.966  0.2522  0.2938  0.2578
14455W        W30589  15.566  17.241  16.272 -0.2338 -0.4113 -0.0017
14456W        W30590   1.668   5.756   0.160 -0.1974  0.0183 -0.2201
14457W        W30591  11.799  16.545   4.005 -0.1025  0.0385  0.0819
14458W        W30592   5.963  16.894   3.939 -0.0557 -0.1260 -0.0073
14459W        W30593   1.499  11.451  16.394  0.0693  0.2008  0.1941
14460W        W30594  13.863   8.814  11.294  0.0142 -0.1248 -0.0741
14461W        W30595   8.635  11.164   1.946  0.3544 -0.2232  0.0253
14462W        W30596  12.769   9.409   0.808 -0.0167  0.1787  0.0308
14463W        W30597   4.379  11.396  14.486 -0.3796  0.1247 -0.1735
14464W        W30598   4.111  11.922  16.161  0.1752 -0.0740  0.0822
14465W        W30599  17.581   4.224  16.217  0.1483  0.0271 -0.0623
14466W        W30600   1.879  10.664  13.765 -0.0511 -0.0902 -0.1904
14467W        W30601   1.336   4.714   3.293 -0.1015 -0.0559 -0.0729
14468W        W30602   7.896   7.245   2.559 -0.2308 -0.0788 -0.0703
14469W        W30603   5.090  11.697  12.148  0.2599 -0.0639 -0.1361
14470W        W30604  12.344  10.834  16.279 -0.0333 -0.0504 -0.0861
14471W        W30605  16.341   9.541  11.684 -0.2513  0.0419  0.1997
14472W        W30606   4.254  12.871   3.097 -0.0040 -0.2363 -0.3617
14473W        W30607   7.078   6.594  15.310 -0.1007  0.1478  0.1099
14474W        W30608  11.641   4.957  16.695  0.2278 -0.0099 -0.0359
14475W        W30609   5.086   8.999  16.839 -0.2289  0.0412 -0.0892
14476W        W30610   7.576  10.716  11.925 -0.2089  0.0043 -0.0139
14477W        W30611  17.657  14.501   1.768  0.0037 -0.1595 -0.0441
14478W        W30612  14.841  11.118  13.288  0.0042  0.0470  0.2786
14479W        W30613  13.151   7.547  16.301  0.0559  0.1510  0.1683
14480W        W30614  14.611   0.840  16.683 -0.0115 -0.1527 -0.0084
14481W        W30615   7.295   1.776   0.553  0.3208  0.1389  0.1139
14482W        W30616  10.000  10.224  13.765  0.0854 -0.1086  0.2918
14483W        W30617  12.222   4.972  11.866 -0.0434 -0.1495  0.3175
14484W        W30618  12.562   1.806  13.192  0.2368 -0.1026  0.0463
14485W        W30619   1.218   1.359  16.180  0.1739  0.0731  0.0030
14486W        W30620   3.586   1.197   3.827 -0.2369 -0.0154  0.2103
14487W        W30621  14.059  10.618   0.061 -0.1009 -0.0037  0.5098
14488W        W30622   5.391  10.170   1.102  0.0164 -0.0173 -0.1167
14489W        W30623   2.817  10.328  11.639  0.1802  0.1481 -0.0212
14490W        W30624   0.698   9.944   4.339  0.0780  0.1565  0.2756
14491W        W30625   5.464   9.126   1.300  0.0035  0.1205 -0.1247
14492W        W30626   5.586  11.649  15.008 -0.0991 -0.0999 -0.3698
14493W        W30627   5.504   9.092   4.282  0.1486  0.1110 -0.2146
14494W        W30628   7.759  11.633  15.091 -0.1591 -0.1699 -0.1193
14495W        W30629   2.457   4.440   0.983 -0.1084 -0.2195 -0.0633
14496W        W30630   9.307   7.316   4.314  0.0447  0.0168 -0.0538
14497W        W30631   2.109   7.027   2.798  0.1128  0.1812 -0.1363
14498W        W30632  14.908  10.396   1.076 -0.0600  0.0074 -0.2830
14499W        W30633  10.438   2.540  13.823 -0.2619 -0.2373  0.0122
14500W        W30634  11.533   7.721  16.358 -0.4108  0.1779 -0.3139
14501W        W30635   4.051  10.691   6.209  0.1644  0.0698 -0.0276
14502W        W30636   7.678  15.926   3.853 -0.2509 -0.0913  0.0245
14503W        W30637   3.889  14.732  16.001  0.3693  0.0781 -0.3244
14504W        W30638   2.589   7.937  13.865  0.1368 -0.0588 -0.2554
14505W        W30639  16.542  10.418  11.868 -0.0307  0.1736  0.1381
14506W        W30640   2.879  14.597   6.118  0.3227 -0.0281  0.0126
14507W        W30641  14.833   8.575   1.238  0.2158  0.0504 -0.0362
14508W        W30642  16.276  13.474   0.512 -0.0425  0.0740  0.1971
14509W        W30643   9.384   5.978  14.475 -0.1570  0.0534  0.0282
14510W        W30644   8.466  16.191   5.107  0.0843 -0.0907  0.3181
14511W        W30645   6.862   9.307  11.608  0.2944  0.0842  0.3211
14512W        W30646   2.347  16.207   0.485  0.0999  0.0781  0.0640
14513W        W30647  10.545   2.704   4.004  0.1179  0.1231  0.5020
14514W        W30648   5.955   5.370  11.045  0.0736  0.1128  0.0986
14515W        W30649  13.096  10.323  11.512  0.3951  0.3324 -0.1885
14516W        W30650  12.674  17.282  16.779 -0.0747 -0.1230 -0.1364
14517W        W30651  12.140  13.785   0.898  0.1828 -0.2557  0.3119
14518W        W30652   8.129  12.224   3.658 -0.3274 -0.3130 -0.0900
14519W        W30653  11.053   5.721   1.680 -0.0250  0.0360  0.1093
14520W        W30654  11.311  14.211   5.178 -0.1736 -0.0204 -0.0688
14521W        W30655  15.941   4.141  15.728 -0.2867 -0.0780 -0.2283
14522W        W30656  16.665  10.817  12.342  0.0886  0.0932  0.0525
14523W        W30657   6.760   5.088   3.609 -0.1429  0.2637 -0.2256
14524W        W30658   0.280  16.873   1.311 -0.0512 -0.2026 -0.0045
14525W        W30659   7.625  16.090   2.563  0.2368 -0.1418 -0.0278
14526W        W30660  12.723   9.561   4.322 -0.3538 -0.0424  0.3476
14527W        W30661   6.669  17.539   5.145 -0.1674  0.0805  0.0721
14528W        W30662  15.479   4.160  14.341  0.1284 -0.2138  0.0568
14529W        W30663   8.178  10.471   3.584  0.2454  0.0801 -0.0981
14530W        W30664   7.521  15.726  16.079  0.1643 -0.2921 -0.0030
14531W        W30665  11.162  12.180  15.604 -0.0822  0.1007 -0.0609
14532W        W30666   8.758  14.880   3.097 -0.1976 -0.2124  0.1205
14533W        W30667  15.947  12.446  14.738  0.4500 -0.2782  0.0748
14534W        W30668  11.204  14.255  15.317 -0.1201  0.0302  0.1656
14535W        W30669   7.348  16.046  16.566  0.0673 -0.1910  0.1893
14536W        W30670  17.303   8.793  15.381 -0.0622  0.0918 -0.1617
14537W        W30671  14.067   6.921  16.861 -0.3242 -0.2142  0.0962
14538W        W30672  15.650   6.412   0.725 -0.0613  0.1616  0.1737
14539W        W30673  12.732  10.730   4.559 -0.1256  0.2221  0.0708
14540W        W30674   4.567   9.385  13.836  0.0736  0.0826  0.2530
14541W        W30675   2.876  10.584   4.171 -0.0414  0.4008  0.2589
14542W        W30676   0.514  13.531  17.062 -0.0501 -0.0151  0.1422
14543W        W30677  11.861   3.651   0.217  0.1156  0.4223 -0.1220
14544W        W30678   4.254   9.099  16.925 -0.1004  0.0327  0.1564
14545W        W30679  11.654   5.118  14.076  0.1000  0.1649  0.0094
14546W        W30680   6.679  11.145   1.243  0.2596 -0.0304 -0.0126
14547W        W30681  17.649   1.664   4.756  0.2240 -0.2118  0.0682
14548W        W30682  17.462  11.497   5.083 -0.1227  0.0234  0.1068
14549W        W30683  10.755   6.828  14.721  0.0337 -0.1358  0.0999
14550W        W30684  15.473  12.508  16.885 -0.0659  0.2965 -0.2209
14551W        W30685   8.450   4.554   2.340  0.0025 -0.2976  0.0748
14552W        W30686  13.649   0.053   5.838 -0.0209  0.3834  0.1119
14553W        W30687  11.051   7.865   3.693  0.0126  0.1723 -0.3646
14554W        W30688  10.875  16.252   1.860  0.0684  0.1237  0.0411
14555W        W30689  15.657   6.154  11.977 -0.0373  0.0902 -0.0084
14556W        W30690   0.351   7.924   0.504  0.0722 -0.1685  0.2414
14557W        W30691  16.454   3.079  14.443 -0.1484 -0.1834  0.1313
14558W        W30692   3.915   1.703   3.800  0.0573 -0.0435  0.0126
14559W        W30693  17.157   9.258  12.074 -0.2033 -0.0733 -0.0692
14560W        W30694   2.361  12.062  13.063  0.0359 -0.0122  0.4350
14561W        W30695  13.848  13.232  16.799  0.3166 -0.1106  0.2288
14562W        W30696   7.660   4.619   3.182  0.0310 -0.1488  0.1067
14563W        W30697   4.330   9.756  11.809  0.1271 -0.1834  0.0158
14564W        W30698   3.424  17.335   4.135  0.3491 -0.1005  0.0398
14565W        W30699  14.871   4.464  12.061  0.1669 -0.0696  0.1491
14566W        W30700   1.897  16.236   4.104 -0.1094  0.2315  0.1843
14567W        W30701  17.045  13.952   3.250  0.1248 -0.0973  0.0286
14568W        W30702  10.795  10.344   3.032  0.2442 -0.0114 -0.0164
14569W        W30703   5.842   5.148   0.116  0.1510 -0.1298 -0.0881
14570W        W30704   5.406  11.006   3.428 -0.1647 -0.1292  0.2096
14571W        W30705   5.359   1.384  16.039 -0.0588 -0.1212  0.0633
14572W        W30706  14.713   7.238   3.957 -0.3644  0.1076  0.0976
14573W        W30707  14.677  13.859  12.379 -0.2181 -0.1154  0.3315
14574W        W30708   7.586   6.737   2.135  0.0643  0.2457 -0.0478
14575W        W30709   2.736   1.368   3.396  0.2314 -0.0928  0.1610
14576W        W30710   2.110  10.515   2.128 -0.3190 -0.0740 -0.0447
14577W        W30711   8.079   7.436   5.516 -0.2103 -0.2169 -0.3041
14578W        W30712   1.550   1.881  15.340 -0.0724 -0.1389  0.1275
14579W        W30713   6.467   9.162   1.573 -0.1419  0.2320 -0.1794
14580W        W30714  14.004  12.603  17.018  0.0784 -0.1256  0.0353
14581W        W30715   9.826  11.841   6.064 -0.0595 -0.0241 -0.1373
14582W        W30716   7.507   4.809   0.882 -0.0337 -0.2404 -0.0465
14583W        W30717  13.471   1.385   3.510  0.1211  0.1557  0.1368
14584W        W30718  13.040   9.555  14.347  0.0956  0.1455  0.2695
14585W        W30719   5.917  16.724   2.710 -0.1569  0.0952 -0.0154
14586W        W30720  16.428   6.666  12.239 -0.2763  0.0267  0.1133
14587W        W30721  16.082  13.655   0.946  0.0102 -0.3085 -0.0777
14588W        W30722  12.152  12.348   4.415  0.0741  0.0873  0.2526
14589W        W30723  15.310   1.234   2.940  0.1178  0.0342  0.1589
14590W        W30724  17.447   5.963   3.133  0.2579  0.2179 -0.2003
14591W        W30725  17.629   6.233  12.208 -0.0041  0.2560  0.0101
14592W        W30726   2.811   8.252   0.434  0.2572  0.2515  0.0289
14593W        W30727   6.248   5.580  15.720  0.0863  0.0370 -0.1776
14594W        W30728   7.214  17.576   4.234  0.4432 -0.6748  0.1618
14595W        W30729  17.435   6.537  16.057  0.2531 -0.1860 -0.4588
14596W        W30730   1.178  11.213   5.369 -0.0271 -0.0174 -0.2188
14597W        W30731   2.220  12.837  16.387  0.2832  0.2170 -0.1680
14598W        W30732  11.005   6.642  14.202 -0.5801 -0.1056 -0.1443
14599W        W30733  10.736  17.322  12.898 -0.0160  0.0750  0.3410
14600W        W30734   3.382  17.606   3.205 -0.1386 -0.0886 -0.0701
14601W        W30735   8.416   8.008   4.665 -0.2414  0.1860 -0.0775
14602W        W30736   4.064   9.277   4.486 -0.0146 -0.0157  0.2148
14603W        W30737   2.541   8.146   0.954 -0.1032 -0.2307 -0.5436
14604W        W30738   9.336   3.265  14.337  0.1155 -0.1157 -0.1367
14605W        W30739   3.932   0.320  16.941  0.1353  0.1355  0.2380
14606W        W30740  17.055  13.543   4.380  0.1411  0.2532 -0.2641
14607W        W30741  10.691   7.673  14.347 -0.1736  0.0209  0.0162
14608W        W30742  14.198   8.458  14.764 -0.1131 -0.1078  0.1201
14609W        W30743   9.231   6.631   3.454 -0.1670  0.1592  0.0408
14610W        W30744   1.628  11.874   0.533  0.2046 -0.0597  0.2429
14611W        W30745   3.295   2.497   0.427  0.0142  0.1508  0.2588
14612W        W30746   9.033  16.499   2.059  0.0629  0.1131  0.2536
14613W        W30747   8.143  13.922  13.940  0.0062 -0.0398 -0.0922
14614W        W30748   9.246   0.806   1.142 -0.1498 -0.0212  0.2816
14615W        W30749  13.190   3.247  16.216 -0.0310  0.0713 -0.2376
14616W        W30750  12.251  11.988  16.421  0.0366 -0.2724 -0.5089
14617W        W30751   8.680   7.925  17.164 -0.1478 -0.1207 -0.2424
14618W        W30752   6.528   1.975  14.203 -0.1248  0.1357  0.2358
14619W        W30753  10.032   1.014  14.342  0.0517  0.1168 -0.1594
14620W        W30754  11.303  14.321   2.842  0.0263  0.0897  0.0772
14621W        W30755  12.740   9.034  12.229 -0.1353 -0.4320  0.1025
14622W        W30756   5.161  14.253   2.738  0.2311  0.2367  0.1847
14623W        W30757   7.088  12.062   3.651  0.0364  0.1125 -0.0285
14624W        W30758   6.764   1.143   4.006  0.2481  0.4665 -0.1903
14625W        W30759   2.696  11.004  16.859 -0.4025  0.2342 -0.2292
14626W        W30760  16.724   8.375   5.106  0.1573  0.1581 -0.1809
14627W        W30761  12.916  14.258  13.268  0.1669  0.0193 -0.1451
14628W        W30762  12.457  13.945  15.115  0.2497 -0.0608 -0.1584
14629W        W30763   1.005   2.255   0.072 -0.1996  0.0180  0.0200
14630W        W30764  13.096  10.924   1.768  0.0224  0.0989 -0.0410
14631W        W30765  11.247  11.872   1.876  0.1705  0.1682  0.0387
14632W        W30766  13.033   3.728  16.344 -0.0675 -0.3127 -0.4754
14633W        W30767   4.075   3.620   2.482  0.0221 -0.0031 -0.2957
14634W        W30768  14.028   1.428  14.695  0.0970 -0.0002 -0.0464
14635W        W30769  10.440   6.130   6.268 -0.1247 -0.1604 -0.2049
14636W        W30770  15.149   9.864   3.811 -0.0200 -0.3315  0.1210
14637W        W30771   4.690  10.715   4.817 -0.1549  0.3610 -0.2420
14638W        W30772  15.546  15.954  13.230 -0.2188  0.0023  0.2024
14639W        W30773  16.532  12.224   5.526  0.1403  0.1527  0.1837
14640W        W30774   2.152   4.461  14.281 -0.0597  0.0147 -0.0179
14641W        W30775   0.744   8.341  14.928  0.1175 -0.3400 -0.1906
14642W        W30776   2.797   6.008  13.615 -0.0086  0.1022 -0.0063
14643W        W30777   4.233   2.047  12.585 -0.2297 -0.0566 -0.0394
14644W        W30778   9.587   3.226  13.463 -0.3373 -0.0476 -0.1457
14645W        W30779   4.421   8.290  14.820  0.0856 -0.1254  0.0576
14646W        W30780  13.746  13.072  13.131 -0.2315  0.0364  0.1610
14647W        W30781  12.206   9.383  13.195 -0.2578 -0.2591  0.2046
14648W        W30782   7.473   6.421  16.595 -0.3132  0.4217 -0.0344
14649W        W30783   5.231   1.008   5.093  0.0280  0.1065 -0.2285
14650W        W30784  13.087   9.438   5.598  0.0565  0.0090  0.2594
14651W        W30785  17.321   0.236  15.988 -0.2865 -0.0476 -0.1003
14652W        W30786   1.021  12.698  15.053  0.3007 -0.2423 -0.2299
14653W        W30787  15.212   9.098  16.929 -0.0658  0.2479 -0.0530
14654W        W30788  13.802  16.156   1.438  0.4780  0.0937  0.0351
14655W        W30789   3.807  15.742  12.007 -0.0245 -0.2073  0.1582
14656W        W30790  11.797   3.295  13.002 -0.2717 -0.2563  0.0480
14657W        W30791   6.514  15.650  15.871  0.0412 -0.3055 -0.0112
14658W        W30792   7.652   4.536   5.180  0.0443 -0.0039  0.1150
14659W        W30793  11.029   2.202  12.616 -0.0328  0.0788 -0.0278
14660W        W30794  16.921  16.341  14.851 -0.3003  0.0507 -0.0520
14661W        W30795   9.182  14.618  17.044  0.0081  0.0624  0.0560
14662W        W30796  10.011   7.329  14.549  0.1250 -0.0545  0.2597
14663W        W30797  13.480  17.517   2.598 -0.0064  0.0062 -0.1937
14664W        W30798   7.113  15.875  15.637 -0.1278  0.1187 -0.1933
14665W        W30799  14.720   0.994  13.838 -0.1089 -0.2019 -0.3383
14666W        W30800   2.664   0.121   1.322  0.0012  0.0060  0.1967
14667W        W30801  14.724   3.453   4.596 -0.0117  0.1827 -0.0492
14668W        W30802   1.830   1.893  15.817  0.1161 -0.2937 -0.0560
14669W        W30803  10.015  12.635   4.072  0.0120  0.0174  0.2964
14670W        W30804   8.792   2.478  14.279 -0.0737 -0.2084  0.0758
14671W        W30805   1.822   7.996   0.821 -0.0842  0.1298  0.0848
14672W        W30806  17.352  15.094   1.936  0.0314  0.1025 -0.2380
14673W        W30807   0.135   0.306  15.869 -0.1141  0.0995 -0.0330
14674W        W30808  12.777   9.672   2.537  0.1486  0.0106 -0.0639
14675W        W30809   5.789   1.036   0.812 -0.0794  0.2424 -0.3067
14676W        W30810  17.575  10.430   5.621 -0.2267 -0.0382  0.5164
14677W        W30811   6.876   9.338  15.525  0.3749 -0.0441 -0.0675
14678W        W30812  17.350   9.368   3.291  0.1139  0.2583 -0.0232
14679W        W30813  11.233  12.882  12.831 -0.0482 -0.0156 -0.2987
14680W        W30814  10.837  14.594   4.360  0.0176 -0.1887  0.1707
14681W        W30815  13.123   3.924   0.625 -0.0305  0.0658 -0.2937
14682W        W30816   7.893   8.640   0.498 -0.0920  0.2208 -0.0135
14683W        W30817   2.806   7.734   1.838 -0.3735  0.0617  0.2845
14684W        W30818  10.748   9.512   1.150 -0.1394  0.0432  0.1006
14685W        W30819   5.067   4.025   2.890  0.0983 -0.2775 -0.0626
14686W        W30820   7.589   1.090  15.445  0.2118 -0.0433  0.0750
14687W        W30821  14.481   9.508   3.013 -0.2546  0.0630  0.0682
14688W        W30822  15.819  11.508   1.468 -0.0985 -0.0234 -0.1429
14689W        W30823   2.563   7.759   4.096  0.1825  0.2946  0.0500
14690W        W30824   8.099   5.713  16.990  0.0043  0.0324 -0.1054
14691W        W30825  15.097  10.330   2.852  0.0199  0.1778  0.0899
14692W        W30826   4.734   0.003  12.144 -0.1701  0.0684 -0.0186
14693W        W30827  15.798  14.802   1.466 -0.0668  0.0892 -0.0044
14694W        W30828  15.487  12.687  16.372  0.1079 -0.0848 -0.2617
14695W        W30829   6.672  13.871   5.589  0.1960 -0.1495 -0.1690
14696W        W30830  17.019   8.725   5.704 -0.0334 -0.1046  0.2023
14697W        W30831  16.531  16.196   0.454 -0.2316 -0.0481  0.3414
14698W        W30832  17.032  13.280   2.732  0.0229  0.0517  0.1658
14699W        W30833   6.841  16.809   5.543  0.2339  0.1372  0.1432
14700W        W30834   6.466   2.437   1.620  0.2620 -0.2921 -0.2176
14701W        W30835   6.488  12.246   2.262 -0.0540 -0.2588 -0.0659
14702W        W30836   6.816   3.265   0.097 -0.1570 -0.1000 -0.2387
14703W        W30837   4.515  10.519   4.128  0.0071 -0.2358 -0.1556
14704W        W30838   7.837  17.348  15.205  0.1014  0.1269 -0.1360
14705W        W30839  11.534   3.126  16.407 -0.1385  0.2198 -0.0847
14706W        W30840   7.465   6.537  16.130 -0.0270  0.0048  0.0563
14707W        W30841   7.037   1.336   1.004 -0.0349 -0.0860  0.0481
14708W        W30842  17.391   9.783   5.091  0.0996  0.0651  0.1059
14709W        W30843   6.095   6.459  16.205 -0.0971 -0.1542 -0.3187
14710W        W30844   7.702  12.378  16.737 -0.0739  0.0522  0.2818
14711W        W30845   9.486   1.671   5.483 -0.1358 -0.2614  0.0862
14712W        W30846  11.401  13.466  15.369  0.1494 -0.0515  0.1051
14713W        W30847   3.861   2.817   0.812 -0.0060 -0.1459  0.0232
14714W        W30848   4.432   2.082   0.088 -0.1994  0.1621 -0.0792
14715W        W30849   4.709  10.935  13.006 -0.0585  0.0272 -0.3253
14716W        W30850  16.109  12.068  12.971  0.1575 -0.2373 -0.3099
14717W        W30851   0.081  15.305   3.141  0.1767  0.0500  0.0314
14718W        W30852  16.928   1.168   3.846 -0.2164 -0.1712 -0.0540
14719W        W30853   7.219   6.790  12.956  0.0322 -0.0894 -0.1376
14720W        W30854   7.936   0.682   3.793 -0.2756 -0.0782  0.1128
14721W        W30855   7.870  14.072   4.623 -0.1332  0.1458 -0.1690
14722W        W30856   1.411  11.139  13.201  0.1196 -0.1332 -0.3440
14723W        W30857  10.075   2.106   0.117 -0.1854 -0.2019 -0.0951
14724W        W30858  16.258  11.778  16.695  0.1900 -0.0521  0.0155
14725W        W30859  10.701   1.021   4.125 -0.3041 -0.0883  0.0292
14726W        W30860   9.242   2.155   4.060 -0.0402 -0.1662 -0.1641
14727W        W30861  17.512   1.940   3.623 -0.0159 -0.2559  0.2103
14728W        W30862   8.007  11.730  16.012 -0.0901 -0.1579  0.1624
14729W        W30863   7.325  12.804  12.895  0.0825 -0.3002  0.1416
14730W        W30864  14.182   6.244   5.405 -0.0925 -0.3058 -0.0103
14731W        W30865   7.823  12.050   4.502  0.0031 -0.1606 -0.1225
14732W        W30866   2.840  14.831  15.918 -0.2332 -0.0637 -0.1213
14733W        W30867   6.993   8.387  11.353 -0.1107  0.1075 -0.2568
14734W        W30868   0.353  17.019   0.094 -0.1227  0.2562 -0.0880
14735W        W30869   2.768  15.782   5.378 -0.4112  0.1419 -0.2409
14736W        W30870  13.817   8.107  14.518  0.0597 -0.3131 -0.0436
14737W        W30871   7.959   7.146   4.646  0.0914  0.2559 -0.2384
14738W        W30872   4.214  16.803  15.587 -0.1921  0.1206  0.2315
14739W        W30873  13.037   2.999   5.277  0.1123 -0.0861 -0.0591
14740W        W30874   0.008  12.965  13.882  0.2443 -0.2112 -0.1925
14741W        W30875   8.952   7.630   4.148 -0.1760 -0.2175  0.1283
14742W        W30876  10.603  17.232  13.418 -0.1612  0.0815  0.0074
14743W        W30877   7.614  12.164  13.732  0.4012  0.4558 -0.0252
14744W        W30878  15.439   2.830   4.520 -0.2114 -0.0022  0.0541
14745W        W30879  11.877   1.482   4.302  0.3377 -0.1240 -0.0687
14746W        W30880   0.664   7.580   0.387 -0.1236  0.0220  0.2607
14747W        W30881   9.687  14.238   2.086  0.2511  0.1857 -0.0429
14748W        W30882   0.766  17.115   6.325 -0.0249  0.2052 -0.0204
14749W        W30883  12.076   0.087   0.087 -0.0695  0.2405  0.1479
14750W        W30884   1.655  15.376   3.084 -0.0834  0.2840  0.1640
14751W        W30885  17.454   0.015   2.174  0.3358 -0.1062  0.0863
14752W        W30886   5.203   6.024  16.700 -0.0289 -0.1917  0.1819
14753W        W30887   7.417   4.555  14.711 -0.0809  0.2054  0.2014
14754W        W30888  10.496  12.319  15.706  0.2053 -0.0590 -0.0165
14755W        W30889   7.416   9.172  14.633  0.1126  0.1127  0.0004
14756W        W30890  14.169   4.179   1.629 -0.1674  0.3058 -0.2033
14757W        W30891  13.289  12.849   3.699  0.0602 -0.1260 -0.2036
14758W        W30892   3.615   3.346  15.341  0.1963 -0.1776 -0.1110
14759W        W30893   9.887   3.791  14.001 -0.2946 -0.0907  0.1279
14760W        W30894   8.614  12.225   3.643 -0.1870 -0.1299  0.0359
14761W        W30895   0.394  10.273   5.795 -0.1220 -0.0520  0.0415
14762W        W30896   9.469  16.171  14.368  0.0905  0.1348 -0.1576
14763W        W30897   3.545  16.555  12.358 -0.2453 -0.0318 -0.2842
14764W        W30898   3.498   3.833  13.279 -0.3282  0.1009 -0.2056
14765W        W30899  13.166  10.938   2.732  0.0684  0.0351 -0.0767
14766W        W30900  12.811  14.003   5.344  0.1078 -0.2479 -0.1910
14767W        W30901   8.457   2.526  13.843  0.0919 -0.0546  0.2633
14768W        W30902   6.440   9.643  13.368 -0.0650 -0.0518 -0.1120
14769W        W30903  16.961   2.946   5.834 -0.1833  0.0822  0.2593
14770W        W30904  10.168   8.216   5.105  0.0380  0.0550  0.0395
14771W        W30905   6.037  10.317   1.950  0.0762 -0.3578  0.0158
14772W        W30906  14.272   1.544   5.742 -0.1075  0.0082 -0.0312
14773W        W30907   4.710   3.320  15.152 -0.1217 -0.0835  0.2034
14774W        W30908  16.483   0.108   1.236  0.2931 -0.0203  0.0239
14775W        W30909  13.008  13.544  13.436 -0.0094 -0.3177  0.0029
14776W        W30910  15.454  17.373  14.322  0.1278 -0.2207 -0.1584
14777W        W30911   1.008  14.328   5.243  0.2214 -0.3570 -0.1327
14778W        W30912   1.785   0.640   6.271 -0.1121  0.2484  0.0753
14779W        W30913  14.822   4.445  14.684  0.1885  0.1452  0.0608
14780W        W30914  16.340  13.719  12.906 -0.0907 -0.0741 -0.0606
14781W        W30915  13.788  12.915  16.431  0.2304 -0.2951  0.1692
14782W        W30916   2.850  14.551   5.436 -0.1122  0.0155 -0.1140
14783W        W30917  15.097   6.668   2.692 -0.3225 -0.1000  0.1710
14784W        W30918   7.224  16.645  15.188  0.5329  0.0838 -0.1972
14785W        W30919  11.718   8.322   0.450 -0.1935  0.2668 -0.1537
14786W        W30920   3.339  10.200  17.078 -0.0296  0.0078  0.1220
14787W        W30921   3.628  10.715  14.749  0.0071  0.3093  0.3292
14788W        W30922   4.927   2.728   4.716 -0.0201  0.3808 -0.0064
14789W        W30923  10.407   8.096   4.521  0.2110 -0.2701  0.1623
14790W        W30924   7.718  15.833  15.554  0.0513 -0.0518  0.1355
14791W        W30925   7.287   9.154  11.875  0.0178  0.0342  0.2334
14792W        W30926   1.305   4.484  13.856 -0.0699  0.1069  0.0135
14793W        W30927   0.808   2.054   2.744  0.0120  0.0899 -0.0252
14794W        W30928  12.162  16.177   4.047 -0.1469  0.2498 -0.3005
14795W        W30929   9.086   9.887   3.214  0.0475  0.2515  0.0456
14796W        W30930   0.811  10.179  12.379  0.0943  0.0999 -0.0276
14797W        W30931  15.896  13.280   4.157 -0.1039  0.3661 -0.1855
14798W        W30932  15.657  13.671   4.393  0.1400 -0.2621 -0.1913
14799W        W30933  10.687   8.294  16.565 -0.1189 -0.1021  0.0086
14800W        W30934  12.433   0.370   4.665  0.3001 -0.3126  0.0544
14801W        W30935   1.499  10.724   1.120  0.2423 -0.2897  0.2322
14802W        W30936   2.834  10.646  13.785 -0.0923 -0.2469 -0.1498
14803W        W30937   1.323   4.948   2.653 -0.1822 -0.1540 -0.0315
14804W        W30938   6.459   1.186  14.725 -0.0307  0.4453 -0.1010
14805W        W30939   7.449   9.514  14.218 -0.0551 -0.1466  0.0900
14806W        W30940   1.807   1.348   1.426 -0.0730  0.0085  0.2243
14807W        W30941   4.755   8.901  14.241 -0.0816 -0.1887  0.0744
14808W        W30942  11.433  12.230  12.927 -0.3515  0.1335 -0.1992
14809W        W30943  12.277  13.739   3.197 -0.0255 -0.2370 -0.1751
14810W        W30944   7.757   7.452  14.818 -0.0553 -0.0433 -0.1644
14811W        W30945   9.284   9.889   5.545  0.0462 -0.0179  0.1601
14812W        W30946  10.571  16.727  14.405 -0.2340 -0.0166 -0.1362
14813W        W30947   0.306  14.404  16.842 -0.2592  0.0376 -0.1499
14814W        W30948  11.482   6.406   3.429 -0.0011 -0.1144 -0.1601
14815W        W30949  16.828   5.879   1.268 -0.1162  0.0825 -0.0364
14816W        W30950  15.859  10.639   3.515 -0.0089 -0.1709 -0.0594
14817W        W30951  14.704  13.124  16.815  0.1426  0.0342 -0.0749
14818W        W30952   7.212   4.771   3.489  0.3412  0.4274 -0.1184
14819W        W30953  13.696   7.173  15.466  0.2408 -0.0707 -0.2085
14820W        W30954  11.335   0.729  13.916  0.0038 -0.3578 -0.1155
14821W        W30955   4.834   3.751   0.286  0.2735  0.0884 -0.1956
14822W        W30956   7.479  13.481   2.411  0.2067  0.1388  0.0411
14823W        W30957  11.022   5.713  11.908 -0.2018  0.0610 -0.0650
14824W        W30958   8.267  11.252  16.597 -0.0649 -0.1189 -0.1254
14825W        W30959  13.208   2.229   0.417 -0.4749  0.0253 -0.2329
14826W        W30960   4.384   5.217  12.218 -0.0034 -0.0461  0.0630
14827W        W30961  10.268  15.238   3.744  0.2903 -0.1641  0.0441
14828W        W30962   2.116  13.161  17.095  0.3142  0.0796  0.0689
14829W        W30963   9.753  11.043   4.650 -0.1499 -0.0446 -0.2250
14830W        W30964  15.065  14.756   4.072  0.0049 -0.0460 -0.1448
14831W        W30965   1.755  11.757   5.754 -0.1878 -0.0702 -0.1109
14832W        W30966  12.049  15.415  13.487 -0.0723  0.2365 -0.1577
14833W        W30967   0.183  16.299  13.742 -0.3380  0.0135 -0.0912
14834W        W30968   9.978  15.645  14.993 -0.0668  0.2094 -0.1471
14835W        W30969  10.402  10.899   1.484  0.0285 -0.1103  0.0039
14836W        W30970   0.546  12.543   2.660 -0.1670 -0.0461 -0.0741
14837W        W30971   1.268   9.671  13.037 -0.0261  0.1378  0.1126
14838W        W30972   3.042  11.751   1.374 -0.0502 -0.0245 -0.0714
14839W        W30973  11.794  16.156   1.783  0.1632 -0.0542  0.2183
14840W        W30974   2.205   1.423   6.559 -0.0609 -0.0952 -0.0120
14841W        W30975  17.581  14.728   2.265 -0.2551  0.2553  0.0194
14842W        W30976   5.831   7.458  16.965  0.2762  0.1446 -0.2506
14843W        W30977  17.395  16.459  12.343  0.1170  0.1034  0.1141
14844W        W30978  16.184  14.018  16.276 -0.2477  0.0976 -0.1750
14845W        W30979   2.314  12.838  13.533  0.1809  0.2486 -0.1068
14846W        W30980   2.630  12.552   4.349 -0.3708 -0.0503 -0.2375
14847W        W30981  13.583   0.508   0.164  0.0821 -0.3550  0.2332
14848W        W30982   7.361  11.086  12.868 -0.0601 -0.1340 -0.3383
14849W        W30983   7.520   4.250   2.846  0.1522  0.2748 -0.0426
14850W        W30984  11.752   0.681   6.506  0.1711 -0.1604  0.1458
14851W        W30985  17.054  15.055   3.225 -0.1545 -0.0261 -0.1491
14852W        W30986  13.920   9.167   4.097  0.2253  0.0051  0.0076
14853W        W30987   3.057  14.907   5.710 -0.1213  0.0379 -0.0276
14854W        W30988   9.135   3.523   5.384 -0.2466 -0.1908  0.0471
14855W        W30989   1.937  13.537   4.521 -0.1952  0.0415 -0.1930
14856W        W30990  10.249  17.593  13.331  0.1307  0.6805  0.0003
14857W        W30991  16.086  14.109  15.028 -0.0514  0.1049 -0.0014
14858W        W30992   4.693   1.765  16.347  0.1817  0.0494  0.2188
14859W        W30993   5.054   3.289  13.333  0.1975 -0.0395 -0.0879
14860W        W30994  13.396  14.162  10.955 -0.2012  0.1375 -0.0566
14861W        W30995   6.812   9.906   3.273 -0.0403 -0.2940  0.0868
14862W        W30996  13.225   4.286   4.502  0.1596  0.0147  0.0806
14863W        W30997   7.124  12.764   4.886 -0.2342 -0.0061 -0.2074
14864W        W30998  11.089  10.880  17.093 -0.1522 -0.0665 -0.3629
14865W        W30999  16.159  17.151   1.296  0.1465 -0.1363  0.3054
14866W        W31000  13.821   6.796  11.510  0.0076 -0.3380  0.0640
14867W        W31001   2.901  12.859  13.389  0.3013 -0.2215  0.0751
14868W        W31002  10.568  14.627  14.558 -0.0434 -0.0827 -0.3726
14869W        W31003   3.306   5.125  13.382  0.0163 -0.1145  0.1048
14870W        W31004  11.162   7.228  15.757  0.3544  0.1912  0.1991
14871W        W31005   3.837  16.761  13.725 -0.1896 -0.0246 -0.1063
14872W        W31006   6.264  12.980   6.315  0.0578  0.0098 -0.0013
14873W        W31007   3.411  14.498   4.150 -0.0579 -0.2275 -0.0702
14874W        W31008   9.611  10.215  12.113  0.3003  0.2280  0.2652
14875W        W31009   9.110   8.668   1.754  0.0974 -0.0590 -0.0012
14876W        W31010   3.418  16.468  15.809 -0.1013  0.1074  0.0101
14877W        W31011   7.005  14.137  11.537 -0.2652 -0.0549  0.0748
14878W        W31012   7.665   7.676   2.469  0.0025  0.0521  0.0671
14879W        W31013  11.390  12.836  15.675  0.0320 -0.3138  0.1941
14880W        W31014   2.102   9.561  12.428  0.0893  0.0696  0.2219
14881W        W31015   0.038   8.068  14.268  0.1508 -0.0801  0.0534
14882W        W31016   1.010  13.249   1.019  0.1761  0.2101  0.2801
14883W        W31017  11.947   8.880  10.669  0.0811 -0.0015 -0.1809
14884W        W31018   2.128   1.827   4.037  0.2669  0.1677 -0.2579
14885W        W31019   7.916   7.548   3.426  0.2329  0.0038  0.1060
14886W        W31020  13.343   5.494   0.113  0.2226  0.0741  0.0279
14887W        W31021  15.468   1.996   2.968  0.2541  0.1852  0.2288
14888W        W31022  13.074   4.018   4.935  0.0102 -0.0438 -0.0344
14889W        W31023  15.912   8.612  16.634 -0.0121  0.1789 -0.1945
14890W        W31024   8.621   8.965  17.103  0.1466 -0.0190 -0.3084
14891W        W31025  11.058   3.530   0.225 -0.1101  0.3231 -0.1222
14892W        W31026   0.473   4.873  14.905  0.2216  0.0480  0.2921
14893W        W31027  12.758  16.479   4.061  0.0539  0.3348  0.1130
14894W        W31028   2.209  16.573  14.611 -0.1580  0.3266  0.1839
14895W        W31029   8.041   9.864   5.090 -0.0998  0.1116 -0.1600
14896W        W31030   3.501  10.576   2.582  0.0935 -0.2058  0.1385
14897W        W31031  17.444   2.071  15.625 -0.0295  0.0117  0.2581
14898W        W31032   8.033   3.163  12.568 -0.1456 -0.0686  0.0154
14899W        W31033   7.486   6.264   3.267  0.0600 -0.0148 -0.0899
14900W        W31034   5.047   5.151   4.868  0.2173  0.1395 -0.2882
14901W        W31035  15.604   3.419   2.546 -0.0150  0.0133  0.0241
14902W        W31036   2.165   4.726  13.655  0.0976  0.2654  0.2543
14903W        W31037  16.105   9.089  14.473 -0.0770 -0.0724  0.1274
14904W        W31038   0.577   1.202   0.221  0.1310  0.2966  0.0260
14905W        W31039  12.562   1.079  14.874 -0.0252 -0.3188  0.1690
14906W        W31040  14.253   8.614   3.324 -0.0357  0.1623  0.1502
14907W        W31041  15.802  14.283   6.033 -0.0331  0.1030 -0.0935
14908W        W31042  15.040   4.128   1.881 -0.3006 -0.0329  0.0496
14909W        W31043  12.932  10.833  15.396 -0.1476 -0.0335 -0.0566
14910W        W31044   0.858   9.578   3.971 -0.0619  0.1149 -0.0692
14911W        W31045  12.092  17.595   5.897  0.1629  0.1871  0.0582
14912W        W31046  10.197  15.090  15.091 -0.0286  0.2823 -0.2916
14913W        W31047  16.279   5.229  14.270 -0.0280  0.0666  0.1178
14914W        W31048   1.084   4.208  13.463 -0.0835 -0.0690  0.3783
14915W        W31049  12.737  13.715  12.238  0.0891  0.0858  0.0163
14916W        W31050   1.444   6.022  12.759 -0.4585 -0.1404  0.2676
14917W        W31051   5.641   5.781  16.999 -0.0486 -0.0987  0.2159
14918W        W31052   1.460  15.799   2.749  0.3138  0.0753 -0.2518
14919W        W31053   1.046  16.122   6.017  0.2255 -0.1300  0.3893
14920W        W31054   5.181   6.472   1.383  0.1613 -0.0324  0.2754
14921W        W31055  14.489   7.543   1.013  0.3005 -0.2994 -0.0420
14922W        W31056   0.330  12.659  12.285 -0.2454  0.1448  0.0017
14923W        W31057   1.689  12.309  12.595  0.0859 -0.1207 -0.1121
14924W        W31058   6.577   0.722  11.519 -0.0498  0.0422  0.3037
14925W        W31059  12.708  13.286   0.105  0.0369  0.1203 -0.0239
14926W        W31060   7.580   3.022  15.459  0.1571  0.1671  0.1729
14927W        W31061   5.511  10.913   4.683  0.1057 -0.2680 -0.2084
14928W        W31062   5.976   4.465   4.232 -0.0049  0.2322  0.0000
14929W        W31063   1.702   6.279  11.819 -0.1422 -0.0350  0.0713
14930W        W31064   0.583  15.611   3.817  0.2233 -0.1796 -0.0968
14931W        W31065   1.900   3.064  13.853 -0.2412 -0.3307 -0.0609
14932W        W31066   6.497  15.851  13.611 -0.0639  0.3268  0.0347
14933W        W31067   8.896   3.604  16.099  0.0556  0.1318 -0.1967
14934W        W31068  10.797  14.988   4.871  0.3084  0.0723  0.2819
14935W        W31069  10.232   5.329   1.880  0.1738 -0.1063  0.1233
14936W        W31070   3.190  15.905   3.008  0.0558 -0.0220 -0.2142
14937W        W31071  16.352  12.223  13.399 -0.2416 -0.1218  0.0179
14938W        W31072   8.690  15.923   6.080  0.1988 -0.2559  0.1828
14939W        W31073   3.460  11.854  13.960  0.0755 -0.1152  0.0505
14940W        W31074  14.151   2.468   5.405  0.2618  0.0218 -0.3072
14941W        W31075   0.165   8.722  15.585  0.0982  0.3150 -0.0003
14942W        W31076  12.705   0.085  16.553  0.1287  0.1793  0.0007
14943W        W31077  12.234   0.064   3.134  0.0330  0.1021 -0.3314
14944W        W31078   0.605  15.117  15.979 -0.0686 -0.1066 -0.1351
14945W        W31079   1.986   3.029   3.759 -0.0676 -0.3577 -0.1029
14946W        W31080   5.915   7.317   0.566  0.2159  0.1088  0.0026
14947W        W31081   6.694  12.634   4.755 -0.1136  0.1584 -0.1357
14948W        W31082   8.980  16.119   0.656 -0.0136  0.1113  0.0977
14949W        W31083   6.159  16.333  15.348 -0.3005  0.2405  0.0491
14950W        W31084   1.057  15.125   1.125  0.1258  0.1178 -0.0059
14951W        W31085   1.761  12.490  12.107 -0.0577 -0.2258 -0.2608
14952W        W31086  14.414   6.594  15.038 -0.2325  0.2720  0.0662
14953W        W31087   5.058  12.171  13.433  0.4299 -0.4311 -0.0495
14954W        W31088  14.988   8.194   5.773 -0.0411 -0.2408 -0.0581
14955W        W31089  15.331  10.928  12.812  0.0878  0.0023  0.0125
14956W        W31090  12.924   8.214  17.149 -0.1623 -0.0683  0.1059
14957W        W31091   3.198  15.333   2.428 -0.2459  0.2900 -0.1432
14958W        W31092  12.279  12.816   4.244 -0.1475 -0.0723  0.0240
14959W        W31093  11.683   9.185   1.629  0.1281 -0.0079 -0.1804
14960W        W31094   4.379   3.451   4.395 -0.1726  0.1142 -0.0309
14961W        W31095  10.461   5.362  13.714  0.1617 -0.1963  0.0861
14962W        W31096   9.401  17.293   3.297  0.0331  0.0105 -0.0824
14963W        W31097   9.539   9.361  15.061 -0.2885  0.2832 -0.0899
14964W        W31098   9.475   8.904  12.014 -0.0524 -0.0498  0.1399
14965W        W31099   2.100  10.052   3.512  0.0442  0.1266 -0.1218
14966W        W31100   8.995   6.355   4.961 -0.1816  0.0938  0.0755
14967W        W31101   3.468   9.725  14.776  0.0218  0.0164  0.0472
14968W        W31102   4.243   0.913  16.220  0.1170  0.1810  0.0585
14969W        W31103  10.889   0.805   0.906 -0.5821  0.0856 -0.3621
14970W        W31104   0.615   8.955  15.015  0.2067 -0.3136 -0.0834
14971W        W31105   2.463   6.348   0.442  0.1755  0.3318 -0.0555
14972W        W31106  15.564  15.683  12.752 -0.0731  0.0826 -0.0304
14973W        W31107  14.255  16.229   5.623 -0.0408 -0.2986 -0.0013
14974W        W31108   8.006  14.536   4.659 -0.0619 -0.0222  0.0827
14975W        W31109  15.904   6.383  12.392 -0.0642 -0.2243 -0.4701
14976W        W31110  14.729  12.848   3.808  0.0337  0.1095  0.3316
14977W        W31111   5.461  10.579   1.323  0.0920  0.2171  0.0224
14978W        W31112  17.508   4.558   4.680 -0.1135 -0.1252 -0.1797
14979W        W31113   7.609   8.126  17.011 -0.1711 -0.0970  0.3787
14980W        W31114   8.032   0.305   5.170  0.2190 -0.3175  0.0414
14981W        W31115   5.309  17.063  16.082  0.3767 -0.0876  0.3026
14982W        W31116   4.747   8.283  11.548 -0.1100 -0.1305 -0.0418
14983W        W31117   9.122  12.958   2.063  0.0214 -0.2543 -0.3097
14984W        W31118  12.314  16.041  14.456 -0.0879  0.0742  0.1373
14985W        W31119   0.755  16.346  12.453  0.0878 -0.1802  0.3427
14986W        W31120   0.476   0.343   1.068 -0.0987 -0.0591  0.1420
14987W        W31121  11.088   4.424   1.968  0.1113  0.4431  0.1939
14988W        W31122   5.662   1.380   2.718  0.1069 -0.0075 -0.1568
14989W        W31123  12.219  11.927   3.690 -0.1277  0.0208  0.0681
14990W        W31124   8.289  13.428  12.892 -0.2126  0.0124  0.0618
14991W        W31125  10.354   9.597   4.851  0.0526  0.0287  0.3155
14992W        W31126  17.126  14.268   5.464  0.0409 -0.0654 -0.0238
14993W        W31127   0.680  12.245  15.700 -0.2491  0.4285  0.1324
14994W        W31128  14.556   2.517  15.470 -0.1607 -0.1395 -0.0943
14995W        W31129   0.758   7.021  14.512 -0.3385  0.2648  0.0415
14996W        W31130  13.092  16.755   2.748 -0.1187  0.0768 -0.4343
14997W        W31131  13.773   9.762  13.097  0.0056 -0.1069  0.3453
14998W        W31132   2.510   3.604  16.512 -0.0456  0.1877 -0.0839
14999W        W31133   6.580   1.721   3.476 -0.0941  0.1561 -0.4774
15000W        W31134   4.425  12.321  16.075  0.2661  0.0835 -0.0592
15001W        W31135  10.011   9.905   4.061 -0.1195  0.0827  0.0816
15002W        W31136  13.181   3.411   4.857 -0.2338 -0.0747 -0.0858
15003W        W31137  14.968   5.238   1.650  0.1803  0.0906 -0.0475
15004W        W31138   8.199   4.530   3.164 -0.3178  0.1821  0.1714
15005W        W31139  11.910  15.111  16.796  0.0898 -0.0872  0.2150
15006W        W31140   2.966  10.594   0.550  0.0890  0.0987 -0.4005
15007W        W31141   0.439   6.961  16.233 -0.0744 -0.2881 -0.3370
15008W        W31142   3.984   2.646  13.658 -0.1362 -0.0820  0.1261
15009W        W31143   1.206   4.939  15.075  0.0286 -0.0961 -0.0964
15010W        W31144  10.994  13.373   2.883 -0.0321 -0.3199 -0.1069
15011W        W31145   7.336   5.772  12.136 -0.0965  0.0142  0.0829
15012W        W31146  10.043   0.860   0.586  0.2145 -0.0028  0.0456
15013W        W31147   4.094  12.786   0.962 -0.1612 -0.1263 -0.0908
15014W        W31148  11.691  16.767  11.703  0.0958 -0.0512 -0.0892
15015W        W31149  12.166   3.172  10.342 -0.0074 -0.0489  0.6070
15016W        W31150  13.751  11.550  16.585 -0.0689 -0.0890  0.0063
15017W        W31151  12.830   1.015   3.587 -0.0558  0.3063  0.1047
15018W        W31152   1.997  15.267  17.016 -0.1465  0.0080  0.3193
15019W        W31153  14.720  16.354   5.327 -0.4153  0.2673 -0.0408
15020W        W31154  15.470   6.380   5.610 -0.3740  0.3035  0.1903
15021W        W31155   4.165  11.980  15.343 -0.1167 -0.1156  0.1890
15022W        W31156   9.117  13.614   3.277  0.0033 -0.4699  0.2794
15023W        W31157   5.240   2.470   0.690 -0.1864  0.3352  0.1470
15024W        W31158   2.496  10.494   1.793  0.0418  0.2972 -0.2277
15025W        W31159   7.340  13.331  17.180  0.1080 -0.0200 -0.0624
15026W        W31160  17.612   1.732   1.102  0.2935  0.0007 -0.0728
15027W        W31161   8.502   1.121   1.052 -0.1129  0.2210  0.0785
15028W        W31162  10.913   3.518  14.960 -0.1188 -0.0220  0.1317
15029W        W31163  14.203  15.600  16.137  0.0061 -0.1155 -0.2894
15030W        W31164   6.214   5.417  15.218  0.2775 -0.0285 -0.2645
15031W        W31165  14.165  10.064   3.895  0.0322 -0.1053 -0.0014
15032W        W31166  10.134   8.897  12.724  0.1482  0.0310 -0.1606
15033W        W31167   4.734   9.656   0.959 -0.2371 -0.2749  0.2019
15034W        W31168   7.452   8.810  11.543 -0.3070  0.0650  0.1212
15035W        W31169  11.582   2.919   3.894 -0.0009  0.0810 -0.1876
15036W        W31170  12.780  11.910  12.604 -0.3415 -0.0547 -0.0959
15037W        W31171   9.410   0.921  12.599 -0.3434 -0.2743 -0.2536
15038W        W31172  10.246  14.718  12.175 -0.2433  0.0803  0.1547
15039W        W31173  15.044   8.719   3.017  0.3082  0.0929  0.2256
15040W        W31174  12.430  13.820   4.493 -0.1620 -0.1057 -0.0796
15041W        W31175   0.092   4.018  15.699  0.1581 -0.0593 -0.0814
15042W        W31176  14.999  13.700   2.230  0.1374  0.1177  0.0693
15043W        W31177  11.467  15.702  15.269  0.0387 -0.0631 -0.0175
15044W        W31178  16.534  11.792   3.233  0.1422  0.0118  0.0368
15045W        W31179  10.040  12.628  15.976 -0.1100  0.1901 -0.2338
15046W        W31180   0.555   1.739  14.507 -0.2777 -0.1937 -0.3567
15047W        W31181  14.538   6.088  16.045 -0.0270 -0.0513  0.0932
15048W        W31182   9.446  17.105   0.218 -0.2200  0.0013 -0.2377
15049W        W31183  14.829   2.457  14.607 -0.1642  0.0090  0.1254
15050W        W31184  11.222   2.518  12.234  0.0882 -0.1246 -0.1630
15051W        W31185  14.799   0.868   3.668 -0.1387  0.2170  0.0652
15052W        W31186   4.617  17.659  17.032 -0.2345 -0.3526  0.0003
15053W        W31187   7.008  16.267  14.840  0.1272  0.3431  0.2194
15054W        W31188  17.475   5.034   5.526  0.1326 -0.2577 -0.0528
15055W        W31189   5.937  14.986  14.420  0.1749 -0.0241 -0.3771
15056W        W31190  15.406   1.072  16.123 -0.1746 -0.0833  0.1339
15057W        W31191  11.085  14.061   0.163  0.1279 -0.0701  0.1344
15058W        W31192  16.785   7.716   1.670 -0.0699  0.0015  0.1111
15059W        W31193   0.991   1.547   2.097 -0.3121  0.0517  0.1807
15060W        W31194   7.042   8.461  11.806  0.2199 -0.1525 -0.0757
15061W        W31195  14.151   2.552   3.010  0.1042 -0.2752  0.0255
15062W        W31196   5.046  12.099  13.973 -0.1343  0.1171 -0.3147
15063W        W31197  12.099   8.603  14.219 -0.0943  0.0176  0.0539
15064W        W31198  15.642   5.311   1.345  0.0896  0.0360 -0.2405
15065W        W31199  15.283  14.351   2.806  0.1027 -0.0562 -0.0848
15066W        W31200   9.715  12.258   4.633 -0.0953 -0.0360  0.2243
15067W        W31201   3.700  11.943  12.593  0.1065  0.0697 -0.4504
15068W        W31202   3.379  12.374  12.003 -0.0522 -0.0143 -0.3293
15069W        W31203   5.542   1.685  13.888 -0.0041  0.0644  0.0865
15070W        W31204   3.083   2.040  13.118 -0.2794 -0.1159 -0.0809
15071W        W31205   5.155   5.741   4.790  0.1029  0.0681  0.0405
15072W        W31206   0.542  10.431  11.551 -0.3166  0.3666 -0.1385
15073W        W31207  10.292  12.982   4.877  0.2916 -0.0009  0.0099
15074W        W31208  16.554   6.108   4.829 -0.0646 -0.0008  0.2227
15075W        W31209   5.022   7.119  16.768 -0.0961 -0.1650  0.2918
15076W        W31210   4.579   7.536   3.341  0.0114  0.1375  0.1169
15077W        W31211  14.639  10.250  14.204  0.1173  0.2104 -0.0369
15078W        W31212   0.279   8.941   5.360 -0.0980 -0.0560  0.2067
15079W        W31213   6.401   8.740  16.089 -0.0147  0.0688  0.3056
15080W        W31214  14.191  16.569  14.086 -0.0728  0.1137  0.2777
15081W        W31215   2.817   4.284  16.076  0.2968 -0.1575 -0.1528
15082W        W31216   8.253  10.985  13.445 -0.2213 -0.3148  0.1327
15083W        W31217   2.199  16.820   4.223 -0.0275 -0.0789 -0.0252
15084W        W31218   7.458  15.031   4.039  0.2364  0.1413  0.1312
15085W        W31219   5.923   9.848   1.882  0.0124 -0.1301 -0.0774
15086W        W31220   4.112  15.415  12.322 -0.2333 -0.2362 -0.2149
15087W        W31221   5.228  16.886   6.087 -0.2772  0.0324 -0.2167
15088W        W31222   8.492  14.188  16.003  0.0618 -0.0016  0.1362
15089W        W31223  11.789  11.771  14.865  0.0326 -0.0230  0.0888
15090W        W31224  11.894   7.687  13.514 -0.3576  0.1090  0.2078
15091W        W31225   2.491   1.735   1.078 -0.0704  0.1693 -0.2810
15092W        W31226  16.312   0.675   1.506  0.0142  0.1979  0.0637
15093W        W31227   6.414  10.213  13.683 -0.2209  0.2630 -0.1285
15094W        W31228   2.467   7.807  13.388  0.1303 -0.0418  0.2753
15095W        W31229   0.681   7.824  15.711 -0.0646  0.0024  0.1551
15096W        W31230  17.192  16.533   6.071 -0.0485 -0.2752 -0.0987
15097W        W31231  16.327   7.562  11.994 -0.1471 -0.1022 -0.1702
15098W        W31232  12.691   4.825  17.126 -0.2953  0.0982 -0.1228
15099W        W31233   7.534   0.684  12.385  0.1279 -0.0437  0.2230
15100W        W31234  11.653   3.530  16.096 -0.0341  0.0349 -0.0444
15101W        W31235  15.345   1.632  13.497 -0.0171 -0.1352  0.2090
15102W        W31236   5.038  16.088  14.845  0.0774  0.0747 -0.0479
15103W        W31237  12.132  16.133  15.820 -0.0006 -0.0047  0.1202
15104W        W31238   4.060   9.273  15.845  0.1662  0.3818 -0.1396
15105W        W31239  16.098   6.095  12.767 -0.3558  0.1471  0.0080
15106W        W31240   1.027   0.701   5.755 -0.0642  0.0115 -0.2356
15107W        W31241  16.296   5.297  14.738 -0.1239  0.0931  0.0921
15108W        W31242   3.789   7.657   1.644  0.0128 -0.0199 -0.3003
15109W        W31243   5.310  11.113   4.111 -0.1826  0.3333  0.1206
15110W        W31244   1.113   0.041   6.409 -0.0502 -0.1867 -0.0624
15111W        W31245   2.771  12.441  16.337  0.1320  0.2038  0.1506
15112W        W31246  16.457   9.447  11.106  0.0898  0.2213 -0.1081
15113W        W31247   3.137   0.682  13.982  0.3382  0.0571 -0.0270
15114W        W31248   7.454   9.732   2.723 -0.0412 -0.0121  0.2049
15115W        W31249  11.004   7.578  13.425  0.0003 -0.0098 -0.0145
15116W        W31250   4.180  15.692   0.027 -0.2809 -0.1989 -0.2607
15117W        W31251   6.661   5.481   3.334  0.0363  0.1355 -0.0064
15118W        W31252   0.718  15.540   4.322  0.1427 -0.1381  0.0953
15119W        W31253   0.713   1.171  15.922 -0.1061  0.0645 -0.3486
15120W        W31254   5.762   5.658   2.524 -0.2083 -0.1930 -0.1271
15121W        W31255  15.444   0.074  12.058 -0.3248 -0.1974 -0.0970
15122W        W31256  15.344   9.373   2.432  0.3101 -0.1262 -0.0346
15123W        W31257  11.586   1.882   4.503  0.1326  0.0749 -0.0151
15124W        W31258   2.751   5.058   0.922 -0.0953 -0.1817  0.1589
15125W        W31259   4.074   4.193   0.100  0.1063  0.0352  0.2511
15126W        W31260  10.020  12.733   0.188  0.2871  0.1867  0.3232
15127W        W31261   8.422  17.204   2.848 -0.0804  0.0313  0.0506
15128W        W31262  14.987   4.730   4.354 -0.0884 -0.1385 -0.4432
15129W        W31263   5.694  13.961  16.010 -0.0780 -0.0523 -0.3779
15130W        W31264   6.664   1.609  13.863 -0.1071 -0.0429 -0.0630
15131W        W31265   5.760   1.587  12.767  0.0480 -0.1121  0.0535
15132W        W31266   3.754   9.774  11.887  0.4376  0.0905 -0.1156
15133W        W31267   0.977  13.328  16.274  0.1548 -0.2182 -0.1806
15134W        W31268  12.914   0.161   3.817  0.1425  0.0439  0.0443
15135W        W31269  13.651   5.448   3.957 -0.1819  0.3008 -0.0888
15136W        W31270  15.903  13.938   4.923  0.0114  0.0751 -0.0490
15137W        W31271   8.483  17.297   3.578  0.2589 -0.0273  0.0162
15138W        W31272   5.328   1.457  15.519 -0.0365  0.1048 -0.0613
15139W        W31273   9.513   4.424   3.880  0.1594  0.0172  0.0102
15140W        W31274  15.031   7.118   2.525  0.2170  0.1136 -0.1422
15141W        W31275  11.215   1.657   4.812 -0.0084 -0.1038 -0.1121
15142W        W31276  14.627   4.865   6.033  0.0619  0.0402 -0.0318
15143W        W31277   1.223   5.397   1.014  0.1519  0.1135 -0.0021
15144W        W31278   0.846   1.378  12.264  0.3833  0.0012  0.0501
15145W        W31279  13.765  13.084   4.713  0.2889  0.0253  0.1914
15146W        W31280  11.094  13.493   0.221  0.0830  0.0293 -0.1283
15147W        W31281   0.344  11.089   1.000  0.0606  0.1436 -0.1717
15148W        W31282  12.684   9.057   2.515  0.1598 -0.1328  0.1409
15149W        W31283   0.318  12.181   0.408 -0.1407  0.1822  0.0001
15150W        W31284   1.975   3.068  16.059 -0.1952  0.1359 -0.2900
15151W        W31285   1.816   4.640  12.488  0.1785  0.0019  0.1652
15152W        W31286   5.230  13.224   3.091  0.3955 -0.2792  0.4122
15153W        W31287  15.012  11.360   3.136 -0.1495 -0.0514  0.1078
15154W        W31288   1.716  10.938   5.471 -0.1054 -0.0143 -0.1232
15155W        W31289  14.298  16.052   0.188  0.3279 -0.1753  0.2320
15156W        W31290  10.438   2.322   4.804  0.1534 -0.2370 -0.1106
15157W        W31291  12.546  13.812   1.790 -0.2135 -0.0035 -0.3164
15158W        W31292  10.531   4.528   4.256 -0.0988 -0.2929 -0.3734
15159W        W31293   2.308  15.087  14.486 -0.1297  0.0730 -0.1675
15160W        W31294   5.957  15.461   5.279  0.2706  0.0189  0.1215
15161W        W31295  15.127   1.504   5.616  0.0053  0.1270  0.0478
15162W        W31296  16.915   2.943   0.573 -0.0198 -0.3268 -0.1523
15163W        W31297  10.404   1.432   4.494  0.0426 -0.1479 -0.0674
15164W        W31298   7.620  15.124  14.447 -0.0217 -0.1970  0.0276
15165W        W31299   1.868   7.040   1.229  0.0553  0.0592 -0.1745
15166W        W31300  17.666   2.493   5.373 -0.1275 -0.0341  0.1256
15167W        W31301   8.827  12.303  15.895 -0.1692 -0.4204 -0.2882
15168W        W31302   8.112  10.771  11.756 -0.0222  0.0249 -0.2412
15169W        W31303   7.588   5.489   3.768 -0.0752  0.0016  0.0647
15170W        W31304   8.767   0.046  14.912  0.2913  0.1407  0.3294
15171W        W31305   8.392   2.383  14.663 -0.1009  0.1485  0.1077
15172W        W31306   5.624  17.169  14.855  0.1877 -0.0590  0.0662
15173W        W31307   2.848  11.940  15.144 -0.1712  0.0393 -0.1134
15174W        W31308  16.775   8.198   3.389  0.1694 -0.2260  0.2140
15175W        W31309  10.055  14.324  11.975  0.1334  0.0796 -0.0225
15176W        W31310  11.854   5.451   6.023  0.0680 -0.0789 -0.0395
15177W        W31311  14.836  10.213   5.207 -0.0048  0.0561 -0.3431
15178W        W31312  10.934  14.784  11.887 -0.2574 -0.1203  0.2421
15179W        W31313  10.487  10.782   2.990  0.0659 -0.0238 -0.4250
15180W        W31314  16.663  15.057  15.677  0.1447 -0.0505  0.2003
15181W        W31315   9.102   4.966  16.517  0.2228  0.1405 -0.0263
15182W        W31316  13.534   4.995   3.150 -0.3166  0.0748 -0.0759
15183W        W31317   1.456  15.860  14.595 -0.0170 -0.0766 -0.4319
15184W        W31318  17.555  13.009  14.926 -0.1021 -0.3398  0.0448
15185W        W31319  14.812   8.630   2.587  0.0401 -0.2933  0.3303
15186W        W31320   6.744   8.492  12.811  0.2510  0.0771  0.2021
15187W        W31321   6.660  12.616   0.343  0.1317 -0.1219 -0.0115
15188W        W31322   9.551  12.347   0.805 -0.2509  0.0731 -0.0200
15189W        W31323   5.077  14.534  13.961 -0.1223  0.0832 -0.2163
15190W        W31324   5.758   9.718  16.404  0.1591 -0.0002 -0.1952
15191W        W31325   1.019   0.980   3.232 -0.0125  0.2287  0.0114
15192W        W31326   5.182  13.559   3.828  0.2297 -0.0712 -0.0108
15193W        W31327   0.368   0.964  16.282  0.1769 -0.1144 -0.0063
15194W        W31328   9.336  10.993  15.248  0.2359  0.1480  0.0915
15195W        W31329  10.922   1.888  11.310  0.1381  0.1876  0.1549
15196W        W31330   3.520  16.262   3.508  0.1261  0.0066  0.0310
15197W        W31331  16.666   7.103  17.154 -0.2738 -0.0097  0.0544
15198W        W31332   5.556  12.308  15.167  0.2402 -0.0896  0.3998
15199W        W31333  10.617  14.962   1.256  0.2292 -0.1502  0.2289
15200W        W31334   1.171  13.557  13.354  0.0490  0.0432  0.1589
15201W        W31335  10.725   4.572  16.380 -0.3459  0.1977 -0.0262
15202W        W31336   2.397   4.961  12.248  0.1372 -0.3751 -0.2520
15203W        W31337  12.907  16.096  13.278  0.0440  0.1265 -0.0113
15204W        W31338  15.901  12.567  16.592  0.0996  0.2639  0.0552
15205W        W31339   8.877   0.913   1.895  0.1980  0.1350  0.1559
15206W        W31340  16.971   1.727   1.818 -0.2680 -0.0070  0.0904
15207W        W31341   6.201   5.632   5.313  0.2676 -0.1280 -0.2403
15208W        W31342   5.973  11.877   3.458  0.0023  0.3579  0.1789
15209W        W31343   9.723   9.170  16.473  0.1897 -0.2484  0.0157
15210W        W31344  17.614   2.150   1.447 -0.1093 -0.0031  0.0516
15211W        W31345  10.453  13.803   2.155 -0.2156 -0.1413 -0.0526
15212W        W31346   3.755   1.265  13.309  0.1739 -0.1286  0.0771
15213W        W31347   9.138  15.607   4.304 -0.1920 -0.0796 -0.2333
15214W        W31348   2.321   8.756  13.570 -0.1586  0.3310 -0.1221
15215W        W31349  13.142  13.118   0.357  0.3221 -0.1319 -0.0669
15216W        W31350   3.003  17.313   0.612  0.3399 -0.3361  0.0666
15217W        W31351  12.322   6.731   2.109  0.1141 -0.0804  0.3095
15218W        W31352  11.797  12.644  12.770  0.1908 -0.0078 -0.1555
15219W        W31353   1.381   5.007  12.766 -0.1866  0.1231 -0.0721
15220W        W31354  16.960   1.172  15.605 -0.0669 -0.0880 -0.0370
15221W        W31355  15.375   5.684   0.903  0.2618 -0.1839  0.2228
15222W        W31356   8.926  10.436  12.590 -0.3105  0.0483 -0.1072
15223W        W31357   2.463  17.365  16.804 -0.1081 -0.0643  0.1630
15224W        W31358   0.051   8.146   2.463  0.0747  0.2185  0.2679
15225W        W31359  14.229   7.883  16.918 -0.0794  0.1692 -0.0905
15226W        W31360   3.324   0.199   4.824 -0.0630 -0.1406  0.0232
15227W        W31361   4.123  10.655  13.841  0.1253  0.3486 -0.2033
15228W        W31362  16.430   3.882  14.443  0.4230  0.0875  0.0206
15229W        W31363  10.025   5.955   1.556 -0.0909 -0.2901 -0.1252
15230W        W31364   6.214   1.997   1.555  0.2392 -0.0556  0.1586
15231W        W31365  14.138  16.821   4.717 -0.1139  0.0929  0.0520
15232W        W31366   4.790  17.655  15.658  0.0553  0.1770  0.3168
15233W        W31367  15.599  14.753  13.935 -0.0146  0.1953 -0.1870
15234W        W31368  12.328  15.026  16.506 -0.0188 -0.0994  0.0305
15235W        W31369   9.951   9.473  13.590  0.4629  0.0715  0.0788
15236W        W31370  12.851  13.294  13.010 -0.0274 -0.2261  0.0973
15237W        W31371   6.243   9.734  12.861  0.1082  0.1192  0.2846
15238W        W31372   2.224  15.925   3.501 -0.0218  0.0652  0.1008
15239W        W31373  11.767   6.461  14.135 -0.2065 -0.0193  0.0819
15240W        W31374  10.200   0.440  16.484 -0.1771  0.0071 -0.3061
15241W        W31375  14.215   5.817   2.170  0.0824  0.0081  0.1380
15242W        W31376   8.052  16.546  13.472  0.0446 -0.2438 -0.1105
15243W        W31377   8.030  14.293   2.972 -0.1715 -0.1690  0.1889
15244W        W31378  12.395   6.564   0.727  0.1926 -0.0418 -0.2315
15245W        W31379   8.324  13.408  13.455 -0.2194 -0.1397 -0.0339
15246W        W31380   6.584   3.067   0.908 -0.0933  0.0804  0.1840
15247W        W31381  14.442  17.530  16.585  0.3056 -0.3971  0.1982
15248W        W31382  17.314  12.309  13.926  0.0292  0.0911  0.0794
15249W        W31383   5.382   9.197   0.561 -0.1258  0.0857  0.1864
15250W        W31384   4.865   8.133  12.066  0.0351 -0.1087  0.0975
15251W        W31385  14.516   8.122   3.248 -0.0436  0.0476  0.1573
15252W        W31386   6.468   4.990  15.214  0.0661 -0.0345 -0.0574
15253W        W31387   9.471   8.663   4.484  0.0520  0.0742  0.1410
15254W        W31388  14.075  15.619   5.009 -0.0848 -0.1346  0.0959
15255W        W31389  10.850  11.020   2.686  0.2465 -0.1382 -0.0246
15256W        W31390   2.372  13.961  14.994  0.2890 -0.0354 -0.0036
15257W        W31391   1.185   2.924  15.106  0.1435 -0.1502  0.0040
15258W        W31392   5.928  16.618  12.736  0.0635  0.0857  0.1953
15259W        W31393  10.583   9.959   5.208  0.0859 -0.0289 -0.0205
15260W        W31394  13.795   5.973   0.832 -0.0741  0.1977  0.0815
15261W        W31395  17.444  12.767   2.128  0.0589 -0.0169  0.2087
15262W        W31396  10.104  13.347   5.177 -0.0071  0.0400 -0.1881
15263W        W31397  10.047  16.608  15.659 -0.3407  0.1877 -0.0518
15264W        W31398  12.550   8.710   3.838 -0.1778 -0.2149 -0.5457
15265W        W31399  15.737   3.425  14.133  0.0883 -0.0514  0.2672
15266W        W31400   5.010   6.247   2.331  0.2656 -0.2033 -0.2106
15267W        W31401  14.388  11.720  14.028 -0.0326 -0.1625 -0.1779
15268W        W31402  10.045   2.985  15.120 -0.2027  0.1590  0.0042
15269W        W31403  17.002   1.569   4.443 -0.2316  0.0408 -0.0678
15270W        W31404   4.527   8.004  15.997 -0.0902 -0.1862 -0.1764
15271W        W31405   5.904  12.478  13.231 -0.4054  0.2961  0.0920
15272W        W31406   4.161   7.561  12.424 -0.1759  0.1803  0.1228
15273W        W31407   0.825  13.337  11.772 -0.0568  0.3752  0.1490
15274W        W31408  14.648   7.083  10.268 -0.0426  0.3873  0.2645
15275W        W31409  14.076   6.531   4.292 -0.1039 -0.2185 -0.0782
15276W        W31410  17.538   1.147   6.473  0.0767 -0.1473 -0.0396
15277W        W31411   3.131  12.401  15.328 -0.1338 -0.0599 -0.1864
15278W        W31412   7.457  13.939  14.571  0.0182  0.2105  0.2326
15279W        W31413   5.761  13.138  16.328  0.2937 -0.1037 -0.0110
15280W        W31414  14.098  13.990  15.001 -0.3667 -0.1567 -0.1152
15281W        W31415  14.202  11.060  12.455 -0.1014  0.1152  0.2985
15282W        W31416   6.138   9.805  16.889  0.2203  0.1136  0.1478
15283W        W31417   5.164  13.027   0.537 -0.3231  0.0049  0.0855
15284W        W31418   3.464   9.991  14.323 -0.3305 -0.0136  0.1712
15285W        W31419  10.219   6.248  14.563 -0.0195 -0.2129  0.1325
15286W        W31420  14.647   7.201  11.200 -0.2700 -0.0129 -0.1601
15287W        W31421   7.312  17.189  12.770  0.3527 -0.1645  0.2455
15288W        W31422   2.751   2.553   4.763 -0.2144 -0.1234  0.3932
15289W        W31423   7.998   1.045   0.025 -0.0564  0.1670  0.4459
15290W        W31424  17.352   2.649   4.869 -0.0716 -0.1103 -0.3655
15291W        W31425  10.708   6.603   1.315 -0.1056  0.0078 -0.0828
15292W        W31426   6.321   6.456   0.215  0.5401 -0.2635 -0.1821
15293W        W31427   6.899   2.662   1.540 -0.0811  0.4678  0.1567
15294W        W31428  16.054  10.835  15.141 -0.0991  0.0465 -0.1707
15295W        W31429   7.012  16.392  14.372  0.1417 -0.1788 -0.2464
15296W        W31430   9.144   5.232  12.798  0.0030 -0.0707 -0.1991
15297W        W31431   2.691  13.139   4.936 -0.1156 -0.0777 -0.0509
15298W        W31432  17.207   6.008  16.714 -0.1806  0.1765  0.0279
15299W        W31433  11.217   0.167   3.053 -0.0819 -0.0350 -0.4241
15300W        W31434   7.041   6.264  12.813  0.0988 -0.1784 -0.0182
15301W        W31435  17.440  17.145   3.221 -0.1243  0.0746  0.0816
15302W        W31436   9.328   8.456   0.031  0.1834  0.3205 -0.0374
15303W        W31437  17.198  10.233   0.534 -0.1874 -0.1066  0.2764
15304W        W31438   2.567  13.204  11.631  0.0283  0.0034 -0.0908
15305W        W31439  10.964  16.476  12.239  0.0880  0.2073 -0.0771
15306W        W31440   3.159  14.108   4.152  0.5750  0.2189 -0.0957
15307W        W31441   2.242   6.754   0.734 -0.1779 -0.1208 -0.0156
15308W        W31442   7.011  11.655  11.788 -0.0077  0.1723 -0.0214
15309W        W31443  12.138  11.438  14.545 -0.0329  0.1285  0.1124
15310W        W31444  15.745   2.823   0.898 -0.0353 -0.1334  0.5728
15311W        W31445   0.548   5.702  11.086 -0.1704  0.0252 -0.0236
15312W        W31446   1.800  13.197   4.850  0.1335  0.1006 -0.0919
15313W        W31447  13.884   5.512   3.084 -0.1592  0.0969  0.2605
15314W        W31448  13.345   7.838  12.586  0.1638 -0.2329  0.0011
15315W        W31449   8.066   9.302  15.973 -0.0327  0.2119  0.0457
15316W        W31450  13.318   9.533  15.223 -0.0882  0.0120 -0.0102
15317W        W31451   7.178   9.740  15.458  0.2372 -0.1436  0.1724
15318W        W31452  10.681   6.995  12.673  0.0118  0.2770  0.1039
15319W        W31453   9.000  13.223  16.609  0.0949  0.0233  0.1486
15320W        W31454   6.790  10.480  17.132 -0.1322 -0.2395  0.1746
15321W        W31455   0.042   8.490   4.970  0.2066 -0.0894  0.1255
15322W        W31456   4.982   6.504   0.899  0.1582 -0.1543  0.0167
15323W        W31457   8.212  12.888  15.076 -0.0547  0.1112 -0.1195
15324W        W31458  17.388  11.545   0.420 -0.1722  0.0279 -0.0476
15325W        W31459  15.263  16.931  16.601 -0.1909  0.1073  0.3191
15326W        W31460  12.537  14.155   2.671 -0.0222 -0.0497  0.0873
15327W        W31461   8.350   2.647   0.285 -0.2017  0.2602  0.0244
15328W        W31462   9.843   5.073  13.097  0.1310  0.1687  0.1384
15329W        W31463  10.288  13.528  12.771  0.2071 -0.1262 -0.3846
15330W        W31464  16.950   0.163  16.828  0.0640 -0.2803  0.0109
15331W        W31465   7.249   5.175  15.445  0.2016  0.2046  0.0600
15332W        W31466   0.066   6.723  12.132 -0.1949 -0.0277 -0.1022
15333W        W31467   9.909   9.623   2.462  0.1108  0.2268  0.1772
15334W        W31468   5.586  17.344   4.938 -0.0595  0.0746  0.1344
15335W        W31469   0.981  14.741  16.217  0.0091  0.2454 -0.1179
15336W        W31470   1.077   1.929  15.246 -0.1059 -0.0111 -0.0127
15337W        W31471   9.748   4.916  12.682  0.2596  0.1552  0.5881
15338W        W31472  14.678  14.887  11.498 -0.0145 -0.2837 -0.0531
15339W        W31473   1.448  13.913   5.149  0.0117  0.0684  0.1311
15340W        W31474   5.746   9.943   3.224 -0.3055 -0.0633  0.0469
15341W        W31475   1.555   5.746   3.723 -0.1685 -0.0371  0.0688
15342W        W31476  10.505   6.981   3.684  0.1843  0.0033 -0.0264
15343W        W31477  16.332   8.111  12.145 -0.1205  0.0886  0.1103
15344W        W31478   8.911   8.895   4.398 -0.1370  0.1135  0.0850
15345W        W31479  13.546  10.003   3.138 -0.0914  0.0472  0.2808
15346W        W31480  14.183  13.219  13.345  0.1223 -0.0892  0.0339
15347W        W31481   5.842   9.515   4.594  0.2512 -0.0442 -0.0625
15348W        W31482   5.127  10.838   6.419  0.0983 -0.2361  0.1242
15349W        W31483  14.811   6.353  12.875  0.2450  0.1305 -0.0478
15350W        W31484  13.850   8.221  11.695 -0.0313 -0.0380  0.0121
15351W        W31485   6.481  12.233  13.825  0.0429 -0.1040 -0.1226
15352W        W31486   5.958  11.099  16.075  0.1380  0.0698 -0.2273
15353W        W31487   3.208  14.276   4.740 -0.1952  0.5583  0.0381
15354W        W31488   2.132   9.506  14.512  0.1149  0.0589  0.2572
15355W        W31489   6.880   5.829  16.980  0.0792 -0.0152  0.1675
15356W        W31490   4.217   9.480  15.378 -0.0544 -0.1641  0.1470
15357W        W31491   0.684  13.478  15.317  0.3061 -0.1677  0.0586
15358W        W31492   7.547   6.413  12.697 -0.1931 -0.1465  0.1031
15359W        W31493  10.999  16.819   4.142 -0.0381  0.2219  0.0801
15360W        W31494   5.620  17.203   2.551  0.0008  0.0636 -0.0485
15361W        W31495   0.285   2.413   5.819  0.2542  0.1809 -0.2556
15362W        W31496   7.555   1.443   1.872  0.0838  0.1608  0.0661
15363W        W31497   2.199   1.871  14.862  0.0380  0.1332 -0.1273
15364W        W31498  10.821   7.832  15.244 -0.1885  0.1437  0.0003
15365W        W31499   5.259   8.366  12.680 -0.0439 -0.0221  0.0142
15366W        W31500   3.540   8.671  12.363 -0.1221 -0.2506  0.1332
15367W        W31501   8.893   8.837  13.094  0.0398 -0.0069  0.0649
15368W        W31502   2.577  11.459   4.470 -0.3743  0.0611 -0.2488
15369W        W31503  17.162   7.649  16.751  0.0120  0.1008 -0.0402
15370W        W31504  15.316   6.098  16.201 -0.2713 -0.1663 -0.0085
15371W        W31505   0.986   3.206  14.805 -0.0702 -0.0504 -0.0025
15372W        W31506   7.241   2.795   2.431 -0.1310  0.0264 -0.1214
15373W        W31507   9.316   4.009   1.910 -0.0569 -0.0253 -0.0012
15374W        W31508   3.802   5.514   2.041 -0.1855  0.3449 -0.0408
15375W        W31509   0.709   7.131  12.333 -0.0271  0.1891  0.1379
15376W        W31510  12.914   4.894   3.327  0.2825 -0.1690 -0.0672
15377W        W31511   5.668   6.131   3.791 -0.0455  0.2154  0.4832
15378W        W31512   3.855   6.290   0.097  0.0491  0.1002  0.1597
15379W        W31513   2.367   0.599  12.519  0.0441 -0.0041  0.0144
15380W        W31514   5.093   7.382   3.284  0.1665 -0.0133 -0.2023
15381W        W31515   9.278   6.632   4.355 -0.0163  0.1644  0.0462
15382W        W31516  17.444   8.432   3.642 -0.3564 -0.0231 -0.2258
15383W        W31517   3.357   4.609   1.801  0.2618  0.2080 -0.0716
15384W        W31518  16.068  17.408  15.187 -0.2847  0.0262  0.0032
15385W        W31519   6.655  10.564  12.866  0.0781 -0.0459 -0.1810
15386W        W31520   5.349   2.594  12.217 -0.1184 -0.0361 -0.0566
15387W        W31521  15.856  14.811   5.144  0.0674 -0.2016 -0.0868
15388W        W31522   3.067  15.254  15.120 -0.0882  0.0956 -0.0178
15389W        W31523   9.996   5.091  15.230 -0.3405  0.0326  0.2167
15390W        W31524  14.986   0.416   3.611 -0.1101 -0.0323 -0.1373
15391W        W31525  17.586   0.608  13.634  0.0140  0.1169 -0.0171
15392W        W31526   3.046   8.896  15.670 -0.1650 -0.0521  0.1084
15393W        W31527   0.211   2.537  13.307  0.1923  0.1818  0.2830
15394W        W31528   0.864   4.556   5.452 -0.2321 -0.0831 -0.1106
15395W        W31529   8.012   7.007   5.141  0.0687 -0.1872  0.1782
15396W        W31530   1.019   9.718  14.270 -0.1134 -0.0325  0.1488
15397W        W31531   2.054  16.460   6.040  0.3168  0.0795 -0.1358
15398W        W31532  11.742  16.531  13.848  0.0517 -0.0256 -0.0798
15399W        W31533  11.081  13.348   4.919 -0.0538  0.1866  0.1159
15400W        W31534   0.363   0.601   2.989 -0.0784  0.1319 -0.0764
15401W        W31535   9.890   2.431  16.815  0.2596 -0.1633  0.0474
15402W        W31536   1.765   3.263   0.713 -0.1462 -0.1507 -0.0543
15403W        W31537   9.297   5.040   2.091 -0.2094 -0.2719  0.3380
15404W        W31538  11.401  10.847   0.281  0.0487  0.0512  0.1850
15405W        W31539   9.561   5.230   4.241 -0.0884  0.2108  0.1833
15406W        W31540   0.997  12.540  16.040 -0.0788  0.2384  0.1719
15407W        W31541   7.253   1.761   4.053 -0.0131 -0.1516  0.0161
15408W        W31542  16.065  15.367  13.634  0.2205 -0.5411  0.1629
15409W        W31543   5.468  14.804   5.759  0.0166  0.0280 -0.1021
15410W        W31544   4.100   9.472  13.172 -0.2067 -0.0878 -0.3286
15411W        W31545   0.034   9.921  14.160  0.3282  0.0312 -0.0935
15412W        W31546  17.488   8.922  11.134  0.0630  0.0756 -0.1430
15413W        W31547  15.516   1.173   6.013 -0.0731 -0.1154 -0.1985
15414W        W31548  16.380   8.669   1.180 -0.3681 -0.3450 -0.0370
15415W        W31549   4.869  11.804   4.376 -0.0934  0.2286 -0.1305
15416W        W31550   6.808   6.972  12.721  0.2139  0.1962  0.0667
15417W        W31551  12.338   8.258  12.512 -0.0813  0.2601  0.0743
15418W        W31552   2.740  12.981  15.843 -0.0275  0.0009 -0.0529
15419W        W31553  16.655  12.065  12.761  0.0935 -0.1501  0.0831
15420W        W31554   8.982   5.227  13.665  0.1402 -0.3562 -0.1371
15421W        W31555   8.159   7.634  15.149 -0.3361 -0.0119 -0.0196
15422W        W31556  16.702  14.563   5.304  0.0039 -0.5642 -0.2554
15423W        W31557  14.557   1.579   2.254  0.4489  0.1920  0.2922
15424W        W31558  14.022  11.503  16.111 -0.0467  0.0707  0.0988
15425W        W31559   2.445  11.245  12.578  0.2087 -0.1061  0.1216
15426W        W31560   7.952  13.673   5.523  0.3324  0.3307 -0.1710
15427W        W31561  13.692   9.461  13.556  0.2549 -0.1068  0.2449
15428W        W31562   7.383   7.798   4.894  0.1814  0.0001  0.0325
15429W        W31563  15.137   6.332  13.784 -0.0896 -0.2452  0.0696
15430W        W31564  16.684  12.360  15.895  0.1620  0.2018 -0.1466
15431W        W31565  10.463  16.408  14.775  0.0740 -0.1790  0.1404
15432W        W31566  13.497  13.899   2.567  0.2239  0.2134  0.0341
15433W        W31567   3.754   8.912   0.757  0.1331 -0.2363  0.0706
15434W        W31568   2.151  16.889  16.479 -0.2217 -0.1971 -0.0138
15435W        W31569   4.913   7.199   2.374  0.0009 -0.0249  0.2416
15436W        W31570  10.591  16.480  12.644 -0.1335 -0.0437  0.2233
15437W        W31571   5.689  10.264   2.829 -0.0608  0.0533 -0.1688
15438W        W31572  16.565   2.370   3.772 -0.0347 -0.0338 -0.0488
15439W        W31573   9.248  15.107   1.436  0.0570 -0.0462 -0.0589
15440W        W31574   5.698   7.738  12.170  0.3279  0.1329 -0.0300
15441W        W31575   4.337   2.808  14.599  0.1321  0.0546  0.1636
15442W        W31576   4.733  11.761   0.203  0.1877 -0.3377  0.1271
15443W        W31577  13.632  12.331  14.924  0.1742  0.1377 -0.3476
15444W        W31578   9.490   9.864  13.482 -0.1857 -0.1120  0.0135
15445W        W31579   9.873   9.391   5.642  0.0337  0.4228  0.1758
15446W        W31580  17.189   5.433  10.285  0.4004  0.0086  0.1123
15447W        W31581   3.506  12.741   3.939 -0.0632  0.1858  0.0301
15448W        W31582   5.862   0.270   3.156  0.1917 -0.1434  0.0420
15449W        W31583   2.342  12.699  16.882  0.0208  0.0907 -0.2486
15450W        W31584   3.196   5.815  16.930 -0.2941 -0.4295 -0.0198
15451W        W31585  12.009   7.890   0.082 -0.0597 -0.0021 -0.1277
15452W        W31586   5.702   6.073  14.228 -0.3313  0.0965  0.2075
15453W        W31587   2.718   5.681   3.919 -0.2163  0.1538  0.1667
15454W        W31588  16.066   3.979  12.057  0.1562  0.0130 -0.1527
15455W        W31589  11.412   6.434   2.858  0.2368  0.2148  0.0823
15456W        W31590  17.571   7.507  12.910  0.1721  0.2297  0.0008
15457W        W31591   9.717   4.517  14.452 -0.1963  0.1676 -0.0283
15458W        W31592   1.458  15.998  14.094  0.1305  0.3649 -0.0128
15459W        W31593  13.343   3.720   4.492  0.1100  0.0648  0.0810
15460W        W31594  15.844  16.740   1.318 -0.1622  0.0688  0.4210
15461W        W31595   9.398   9.185   3.610  0.1944  0.1221  0.0696
15462W        W31596   6.560   6.616  16.492 -0.0313 -0.1536  0.0023
15463W        W31597   4.621  12.947  12.083  0.0645  0.0274 -0.0909
15464W        W31598   0.261   9.376  13.363  0.1705 -0.0078  0.0843
15465W        W31599   6.459  16.901   0.636 -0.0623 -0.0944 -0.1343
15466W        W31600  14.879   3.151  13.411  0.1812 -0.2444 -0.3083
15467W        W31601  16.560  10.581  15.009 -0.0331 -0.2431  0.0937
15468W        W31602  11.214   6.789   3.169 -0.1304 -0.0470 -0.1751
15469W        W31603  11.901  12.223  13.594  0.1459 -0.2452 -0.2025
15470W        W31604   3.586   7.149  16.816  0.0358  0.0524 -0.0546
15471W        W31605  16.696   3.587   3.431 -0.2905 -0.1925 -0.0686
15472W        W31606  16.265  16.876  16.884 -0.3012 -0.0402 -0.0020
15473W        W31607   0.028  15.610   3.738  0.1291  0.1141  0.1457
15474W        W31608   3.277  16.934  11.275  0.0399 -0.1649 -0.1240
15475W        W31609   9.850  13.366  14.384  0.0497 -0.0140 -0.3411
15476W        W31610   0.060  14.388   3.758  0.0328  0.0449  0.0021
15477W        W31611   0.274   3.901  12.237  0.1273  0.1709  0.0994
15478W        W31612   8.924   8.247  12.848  0.0066  0.0101 -0.2581
15479W        W31613  12.920   3.771  17.153  0.0599  0.0881  0.0581
15480W        W31614   4.704  14.441   5.667  0.0007 -0.0841  0.0283
15481W        W31615  15.542  15.966  16.210 -0.0028  0.1667 -0.0447
15482W        W31616   1.161  12.022   0.911  0.1318  0.1849 -0.2214
15483W        W31617   1.211  10.742  13.953  0.1456 -0.1174  0.1189
15484W        W31618   2.509   7.464   0.072 -0.1628  0.1267  0.2192
15485W        W31619   8.256   6.750   4.797 -0.3493  0.2401  0.1034
15486W        W31620   3.529  16.305  13.624  0.0210  0.0981  0.2000
15487W        W31621   5.450  15.495   0.395 -0.2345  0.1185 -0.3365
15488W        W31622  16.723   2.780   4.070  0.3106 -0.0239 -0.2711
15489W        W31623  14.674  12.964  14.179  0.0926  0.1565 -0.0805
15490W        W31624  14.280   4.601   3.718 -0.0109 -0.0093 -0.2939
15491W        W31625  11.943   4.320   4.750 -0.2192  0.1292 -0.3587
15492W        W31626   9.820  15.250   1.536  0.1230 -0.2744 -0.0405
15493W        W31627  13.692   9.279   0.710 -0.0224 -0.3664  0.1649
15494W        W31628  15.292   8.427   2.047  0.3393  0.1157 -0.3695
15495W        W31629   5.654   0.513   3.813 -0.0400  0.4205  0.0005
15496W        W31630  11.926   1.137  16.529 -0.0533  0.4637 -0.0039
15497W        W31631   0.007   4.684  14.050 -0.0560 -0.0079  0.0065
15498W        W31632  16.547  13.263   2.769  0.3288 -0.1512  0.0735
15499W        W31633  14.816   7.439  12.251  0.3628 -0.0060  0.1650
15500W        W31634  14.402   9.407  16.539  0.2110  0.0957  0.0453
15501W        W31635  13.829  17.513  11.980 -0.4572  0.0321  0.1845
15502W        W31636   3.872  14.535   3.737  0.0718  0.1249 -0.0434
15503W        W31637   1.783   9.514   3.715 -0.2201 -0.2390 -0.0623
15504W        W31638   5.952   3.088   2.771 -0.1168 -0.2479 -0.2649
15505W        W31639   4.895   8.840  16.196  0.2362  0.0575 -0.0774
15506W        W31640   1.139  15.163   4.291  0.1393  0.0041  0.0771
15507W        W31641   9.982  16.375  10.758  0.1789  0.0786  0.0610
15508W        W31642  12.838   4.519  12.686  0.0523 -0.0955  0.2097
15509W        W31643  15.985   6.764   5.031  0.1974 -0.0336 -0.1459
15510W        W31644   9.625   9.798   1.362  0.0672  0.0435  0.0047
15511W        W31645  12.436   3.016   2.400 -0.0754 -0.1623 -0.0067
15512W        W31646  13.369  16.281  15.090 -0.2321 -0.2493 -0.0329
15513W        W31647  16.489  14.580  17.025 -0.2982 -0.2390 -0.2365
15514W        W31648   9.927   4.882   0.953  0.0090 -0.1085 -0.0585
15515W        W31649   1.885  15.496   4.283 -0.2000  0.1868  0.1268
15516W        W31650   7.693  17.389  12.515 -0.1764  0.1344 -0.3340
15517W        W31651   9.892   7.841  17.035  0.2532 -0.2522  0.1028
15518W        W31652   2.925   3.755  13.250 -0.3236 -0.1104  0.0516
15519W        W31653  12.949   1.941   3.345  0.2255  0.1684  0.3948
15520W        W31654   8.982  12.180   4.042  0.0107 -0.0335 -0.1299
15521W        W31655  12.053   9.862   3.410  0.2208  0.0715  0.2029
15522W        W31656  15.755  14.234  16.038  0.0864  0.0227 -0.1815
15523W        W31657   5.570   1.060  15.755  0.3855  0.1537 -0.0036
15524W        W31658  17.624   4.699   4.152  0.1146 -0.0636 -0.0188
15525W        W31659  16.773  12.686  12.212 -0.3534  0.1910  0.0372
15526W        W31660  14.434   7.971   2.806  0.0299 -0.0373  0.4216
15527W        W31661   2.255   2.773   5.364 -0.0259  0.0776 -0.1751
15528W        W31662   5.848   8.338  11.385 -0.1870 -0.0320 -0.0593
15529W        W31663   8.829  13.725   5.940 -0.0936  0.1802 -0.0941
15530W        W31664   8.036   5.492   2.238  0.0220  0.1193  0.0084
15531W        W31665  17.650  10.433   4.288 -0.1410  0.2190 -0.1799
15532W        W31666   0.066   9.054  15.149  0.1037  0.0232 -0.0438
15533W        W31667  15.712  10.731   5.165 -0.1868 -0.1319 -0.2221
15534W        W31668   3.185   2.527   1.155 -0.3011  0.2302  0.0486
15535W        W31669   2.822   1.319  13.497 -0.3274 -0.0879  0.1721
15536W        W31670  12.263   9.803   2.849 -0.0837  0.0951 -0.0893
15537W        W31671   0.066   9.937   2.680  0.1238 -0.1059  0.0851
15538W        W31672   4.684   7.166  16.296 -0.1897 -0.1682 -0.1247
15539W        W31673   3.041   5.067   5.245  0.1597  0.1021 -0.0945
15540W        W31674   5.724   4.456   1.990 -0.0159 -0.0093  0.1358
15541W        W31675  14.363   7.612  12.566 -0.0179  0.3374 -0.0796
15542W        W31676  14.588   2.035  15.528 -0.2209  0.1551 -0.0256
15543W        W31677   2.251  17.446   6.004  0.2513 -0.0046 -0.0821
15544W        W31678  16.242   2.642  14.653  0.1658  0.2664 -0.0811
15545W        W31679   2.007   9.242  12.931 -0.0489 -0.1173  0.0090
15546W        W31680  16.178   0.976  15.027 -0.1998 -0.0434 -0.0682
15547W        W31681   5.365  12.833   2.088 -0.0167  0.1943  0.2782
15548W        W31682   9.211   9.245  16.740 -0.0143  0.1001 -0.1257
15549W        W31683   7.668   1.561  15.349  0.0822 -0.3427 -0.0222
15550W        W31684   0.837   8.061   1.230  0.2219 -0.0788 -0.0703
15551W        W31685  10.708  16.216  16.907 -0.2612  0.0253  0.0691
15552W        W31686  10.167   3.644  12.962  0.1880 -0.1255 -0.0543
15553W        W31687  16.665  10.149   4.043 -0.0444 -0.2749 -0.0147
15554W        W31688  12.647  10.073   4.149 -0.2736  0.1187 -0.0970
15555W        W31689   0.160  11.027  15.748  0.1780  0.0897 -0.0567
15556W        W31690  11.015   9.419  13.892 -0.1299  0.0625 -0.0664
15557W        W31691   5.927   4.631   0.497 -0.1826 -0.1261  0.2399
15558W        W31692  15.962   5.273  13.677  0.3115 -0.0157 -0.0610
15559W        W31693   2.383  12.609  11.669 -0.0321  0.0178  0.0255
15560W        W31694  13.341  10.089   4.960 -0.3832  0.1814  0.4281
15561W        W31695   1.920   0.857   2.735 -0.1025 -0.0147  0.4712
15562W        W31696   0.931   0.559   2.354 -0.0116  0.3382  0.0376
15563W        W31697   3.503   3.634   4.083 -0.1692 -0.0355  0.2902
15564W        W31698   8.954   1.576  15.433 -0.1031 -0.0134  0.0013
15565W        W31699   4.768  11.076  14.376 -0.0783  0.0494 -0.0626
15566W        W31700   1.491   0.772  14.416 -0.1890  0.0424 -0.1518
15567W        W31701  12.104   7.466  14.315 -0.1172  0.0821 -0.1491
15568W        W31702   0.345  12.666   2.210  0.2806 -0.0389  0.1448
15569W        W31703   9.764  12.178   5.111  0.2291 -0.1432  0.0872
15570W        W31704   6.540  15.391   3.193  0.1595  0.0651  0.1546
15571W        W31705  13.460  11.685  11.661  0.1048 -0.1201  0.1084
15572W        W31706   4.563   4.287   5.462 -0.2046  0.1637 -0.0466
15573W        W31707   0.348   6.450   4.373 -0.2976  0.1248  0.1918
15574W        W31708   5.271   5.490  15.461 -0.0515 -0.0841 -0.2938
15575W        W31709   8.290  13.324   1.648 -0.2201  0.0659  0.0485
15576W        W31710   8.617  12.530   4.064  0.0999 -0.0680  0.1537
15577W        W31711   4.498   1.902   1.024 -0.2138 -0.1140  0.2281
15578W        W31712   8.280   5.795   4.743  0.0731  0.3430  0.2460
15579W        W31713  11.199  10.057  16.483  0.0023  0.1167 -0.2901
15580W        W31714   2.818   9.778   0.242 -0.1872 -0.0041  0.0324
15581W        W31715  11.646   6.893  12.550  0.1978  0.1579  0.1488
15582W        W31716  15.561   3.954   0.135  0.0782 -0.2574 -0.0390
15583W        W31717  16.145  16.564  13.129 -0.2449  0.0677  0.1648
15584W        W31718  12.195   8.624  16.706  0.1647  0.0812  0.2719
15585W        W31719  17.222   2.450  12.182  0.0234 -0.2073 -0.1155
15586W        W31720  14.156  17.505   5.915  0.0621  0.0388 -0.1418
15587W        W31721   7.593   7.418   0.909  0.3523  0.1145  0.1689
15588W        W31722  10.120   4.892  14.214  0.1091 -0.0860 -0.0675
15589W        W31723  13.816  10.462   0.840 -0.2025  0.0454 -0.0484
15590W        W31724  13.455   7.667   2.761  0.1524 -0.1448 -0.0664
15591W        W31725  17.065   6.433   5.797 -0.5129 -0.0303 -0.0712
15592W        W31726  13.045   7.828   1.084  0.0937 -0.2408 -0.1025
15593W        W31727   0.292   3.003  14.226  0.1713 -0.2400  0.1150
15594W        W31728   7.336  17.036   0.175 -0.1146 -0.1579  0.2358
15595W        W31729  15.912  12.057  12.492  0.0317  0.1647 -0.3918
15596W        W31730   8.552   5.426   4.074  0.2044  0.1249  0.0058
15597W        W31731  10.518  13.846  13.112 -0.2170  0.1557 -0.0944
15598W        W31732  15.981   4.756   4.756  0.1739 -0.1711  0.1426
15599W        W31733   4.123  13.359  15.379  0.0014 -0.0513 -0.0262
15600W        W31734  10.364  14.983  11.701  0.3701  0.0661  0.0063
15601W        W31735   7.318  15.016   0.780 -0.1522  0.2117  0.1151
15602W        W31736   3.629  11.237   2.761 -0.1327 -0.1499 -0.0327
15603W        W31737   7.751   6.029  15.344  0.0878  0.1684 -0.1564
15604W        W31738  11.002   8.518  12.451 -0.2448  0.0300 -0.2210
15605W        W31739   5.481  10.632  13.562 -0.1784  0.3449 -0.2346
15606W        W31740  11.413   9.802   1.718 -0.2535  0.2595 -0.3196
15607W        W31741  15.424   0.116   1.266 -0.2261 -0.2003 -0.2437
15608W        W31742  15.866   0.848  14.500  0.0188 -0.0928 -0.0750
15609W        W31743   9.518   7.276  15.241 -0.0965 -0.3322 -0.3960
15610W        W31744   7.373  13.961   3.591  0.2367 -0.1138  0.0861
15611W        W31745   0.808  13.167  13.267  0.1567  0.3309  0.2498
15612W        W31746  17.606   9.703  11.594 -0.4372  0.0897 -0.2720
15613W        W31747   3.664  13.574  15.325  0.4307  0.0993 -0.1650
15614W        W31748  17.536  13.432   3.596  0.1908  0.3431  0.2094
15615W        W31749   5.035   0.981  12.105  0.1825 -0.1889  0.0671
15616W        W31750   5.032  10.194   3.287  0.0332  0.0157  0.1137
15617W        W31751  15.743   2.833  16.736  0.2590  0.1959 -0.2209
15618W        W31752  17.175   8.081  14.464 -0.1182 -0.0244 -0.0683
15619W        W31753   8.670   6.455   1.869 -0.0109 -0.1126 -0.0449
15620W        W31754  12.202  16.331   2.123 -0.3660 -0.2945  0.0836
15621W        W31755  15.259  16.426   5.284 -0.1331  0.0586 -0.2479
15622W        W31756  16.960   3.489   0.094 -0.0640 -0.0670 -0.0236
15623W        W31757   2.575  14.793   3.429 -0.1842 -0.4028  0.0863
15624W        W31758   1.784  13.858  13.354 -0.4486 -0.2238  0.1937
15625W        W31759   1.896   4.891  14.364  0.1546 -0.1701 -0.0782
15626W        W31760  10.585  12.026   4.069 -0.1396  0.3129  0.2255
15627W        W31761  13.289   0.855  14.318 -0.2886 -0.3476 -0.4038
15628W        W31762  15.350   7.942   5.348  0.0009 -0.0500 -0.0628
15629W        W31763  11.693  13.555  12.413  0.0562  0.0359  0.3182
15630W        W31764  12.126  14.218   4.569  0.3865 -0.3918 -0.0996
15631W        W31765  12.330  16.889  10.949 -0.1932 -0.0632 -0.0185
15632W        W31766   2.613   8.660   2.280  0.0394  0.1287  0.0902
15633W        W31767  12.289   2.829  12.037 -0.1134  0.1858  0.0357
15634W        W31768  11.252  12.431   1.875  0.0259 -0.2352  0.0252
15635W        W31769   1.455   1.122   2.865 -0.0079 -0.1403  0.3792
15636W        W31770   7.311  12.055   4.414  0.0801 -0.1754  0.0951
15637W        W31771   3.919   4.138   5.490 -0.1011 -0.1266  0.0186
15638W        W31772   4.285   6.210  14.298 -0.1959  0.0971  0.2237
15639W        W31773   4.557   7.476   4.775  0.0648  0.1559 -0.0422
15640W        W31774   6.119  13.973   0.536  0.0114 -0.1698 -0.1150
15641W        W31775  11.380  10.097   4.595 -0.1157  0.0508 -0.3469
15642W        W31776  15.452  11.039   3.450 -0.0099  0.2681 -0.1553
15643W        W31777   0.449   8.162  17.173  0.0450 -0.0235 -0.2068
15644W        W31778   2.777   5.202  17.098  0.0346 -0.2131  0.3719
15645W        W31779   0.249  12.947  16.363 -0.0659 -0.0288 -0.3101
15646W        W31780  12.723   5.227   0.657  0.0472  0.1501 -0.0412
15647W        W31781  14.744   3.246   2.205 -0.0055 -0.0956 -0.0397
15648W        W31782  11.515  11.155   4.925 -0.0037 -0.2553 -0.2255
15649W        W31783  17.067  15.064  12.201 -0.2806  0.2758  0.1238
15650W        W31784   3.511   5.902  12.944  0.1009  0.1174 -0.3523
15651W        W31785  15.474   8.877  13.895 -0.3581 -0.0484  0.0668
15652W        W31786  14.174   2.506   1.282  0.0437 -0.1891  0.0861
15653W        W31787   6.089  16.244   0.416 -0.1914 -0.1526 -0.0468
15654W        W31788  12.950  12.505   3.625  0.1725 -0.1016 -0.1339
15655W        W31789   0.291  13.542   0.965  0.5705  0.0124  0.0731
15656W        W31790   1.006   5.992   1.824 -0.1162 -0.1156  0.2912
15657W        W31791   3.532  15.159   3.343 -0.2433  0.0944  0.0240
15658W        W31792  13.308   3.104  13.570 -0.2077  0.2644 -0.1219
15659W        W31793   5.479   7.954   5.420 -0.1159  0.0363  0.0872
15660W        W31794  12.099   9.379   3.558  0.1059  0.2470 -0.1391
15661W        W31795   0.059  12.101   3.687 -0.1303 -0.1493  0.1774
15662W        W31796  16.897  14.198   4.958 -0.1317  0.0361  0.1299
15663W        W31797   1.058   9.762   2.704  0.0830  0.0803 -0.0463
15664W        W31798  12.311   1.468  16.593  0.0474  0.0099  0.1576
15665W        W31799  12.335   1.052  16.311  0.1194 -0.0165  0.1625
15666W        W31800   5.111   9.461  15.449 -0.1430 -0.1030 -0.0133
15667W        W31801  15.499  14.823  14.544  0.0240 -0.0494  0.1389
15668W        W31802   9.038   5.656   2.043  0.1757  0.2279  0.2553
15669W        W31803  10.869  10.620  13.332 -0.0060 -0.0984  0.0223
15670W        W31804  13.007   0.435  16.297  0.2267 -0.1027  0.0260
15671W        W31805   5.004   8.711  12.975  0.2508 -0.2842  0.0466
15672W        W31806   0.154   0.233  15.248  0.2055  0.1415 -0.4097
15673W        W31807   0.397   8.657   5.831  0.1394  0.1020 -0.0171
15674W        W31808   2.728   7.568  14.554  0.0920 -0.0643  0.1097
15675W        W31809  15.765  11.498   5.310 -0.1704 -0.0879  0.0005
15676W        W31810   4.016   3.809   4.846  0.0503 -0.2816  0.0744
15677W        W31811  11.607  17.192  15.134 -0.0321  0.0044 -0.1802
15678W        W31812   4.610   4.366   2.227  0.0484 -0.2975  0.1333
15679W        W31813   7.717   9.732  13.051  0.0826  0.1085 -0.1133
15680W        W31814  12.805   4.660   2.865  0.0310  0.0400 -0.1542
15681W        W31815  17.203  14.543   1.977  0.0321  0.0352 -0.2327
15682W        W31816  12.666  13.489   5.412  0.0154  0.0007  0.0452
15683W        W31817   1.351  16.479  16.033  0.0595  0.0769 -0.0223
15684W        W31818   0.732  15.167  13.767  0.1711  0.1277 -0.0081
15685W        W31819   2.096   7.456  15.741 -0.0329  0.2224 -0.0204
15686W        W31820   0.336   6.513   1.436  0.2211  0.1045  0.1729
15687W        W31821   9.959   1.547  15.364  0.2959  0.0971  0.0663
15688W        W31822  10.921  16.607   2.766  0.1153  0.2567 -0.0258
15689W        W31823   9.429   0.739  11.658  0.0795  0.0460 -0.0639
15690W        W31824   8.781   4.931   3.904  0.2261 -0.0723  0.3027
15691W        W31825   9.732   2.244  13.748 -0.1508  0.0642 -0.3988
15692W        W31826   0.628  11.225  14.753  0.0275  0.1524 -0.1453
15693W        W31827  11.099  16.529  17.057  0.2117 -0.0826  0.0478
15694W        W31828  10.322   5.105  10.776  0.3246  0.0960  0.4061
15695W        W31829  11.646   6.894  13.905  0.2563 -0.0373  0.0943
15696W        W31830   0.373  11.468   4.426  0.0408 -0.0084  0.1296
15697W        W31831   8.090   2.299   2.448 -0.2680  0.0807  0.0467
15698W        W31832   1.891   9.522  14.016  0.3101  0.0440 -0.2293
15699W        W31833   5.643  13.795  13.731 -0.2213  0.1086 -0.0997
15700W        W31834  11.257  14.438   2.361 -0.1618 -0.1920  0.1286
15701W        W31835  16.700  11.053   2.640  0.1132  0.0528  0.0223
15702W        W31836  13.111   4.722   1.904  0.2373  0.2567 -0.0348
15703W        W31837  13.732   9.874  16.724 -0.4181  0.0582  0.2312
15704W        W31838  13.268   7.378  15.745 -0.2114  0.1630  0.0128
15705W        W31839   8.707  16.291  12.390  0.1358  0.1764  0.1310
15706W        W31840  11.272   3.953  14.784 -0.1164  0.1466  0.2525
15707W        W31841   4.338  16.234   4.032 -0.1015 -0.1558  0.0463
15708W        W31842  11.187  13.454   3.913  0.1493 -0.0145  0.1977
15709W        W31843  15.814  10.513   4.683  0.2025  0.0232  0.0034
15710W        W31844   1.012  17.614  14.031 -0.0556 -0.1340  0.1042
15711W        W31845  13.653  15.596  13.419  0.0622  0.0125 -0.1312
15712W        W31846   4.821  10.115   1.863  0.1114  0.0753  0.0307
15713W        W31847  13.420   0.765   3.061  0.3868  0.0902  0.0143
15714W        W31848  12.441   4.971   4.176 -0.1015  0.0658  0.1760
15715W        W31849  10.061   2.623   3.144  0.0311 -0.0379  0.0479
15716W        W31850   4.570  13.597   1.248 -0.3667 -0.1246  0.2439
15717W        W31851   3.188  14.815   3.289  0.0722 -0.0752 -0.1893
15718W        W31852  14.217  16.765  13.405  0.0905  0.1735  0.2464
15719W        W31853  10.207   7.338  16.992 -0.2544 -0.0389 -0.0808
15720W        W31854  13.621  12.375   1.155  0.1107  0.0219  0.0840
15721W        W31855   3.149   1.335   2.099  0.2068 -0.0286 -0.0525
15722W        W31856   3.996   8.697  15.645  0.1989  0.2297  0.4308
15723W        W31857  15.452   3.267  13.160 -0.0393  0.0599 -0.3914
15724W        W31858  13.237  14.240   3.998 -0.0868  0.1989  0.0892
15725W        W31859  12.590   0.233   5.154  0.1182  0.1069  0.2030
15726W        W31860   2.681  10.653  14.754  0.2729 -0.1514 -0.0772
15727W        W31861   0.482   1.774  16.513 -0.0542  0.3861 -0.1396
15728W        W31862  17.068  17.408  12.587 -0.0148  0.3758  0.0272
15729W        W31863   7.999  13.923  13.082 -0.0287  0.0863  0.1781
15730W        W31864  17.087   4.459   2.965 -0.3968 -0.0930 -0.0080
15731W        W31865  12.509   7.610  11.836  0.0989 -0.1201 -0.1008
15732W        W31866   8.267   5.794  11.494  0.0010 -0.0407 -0.1138
15733W        W31867   4.144   2.178  15.567 -0.0545  0.2032 -0.1180
15734W        W31868  11.309   4.698   3.542  0.0273 -0.0749  0.0262
15735W        W31869   7.080   1.215  13.934 -0.0687 -0.0656  0.0381
15736W        W31870  15.063  10.084  15.163  0.0718  0.0252  0.3139
15737W        W31871  16.316  12.769  14.296  0.1234 -0.1188  0.0221
15738W        W31872   4.511   2.375  14.718 -0.1539  0.1994 -0.3580
15739W        W31873   8.545   4.489   3.942 -0.0753 -0.1591 -0.1446
15740W        W31874   7.417   8.219  15.062  0.1993 -0.1248  0.0658
15741W        W31875   0.704   6.457   5.280  0.0447  0.0236 -0.0730
15742W        W31876   5.134   8.019   1.936  0.0683 -0.2165  0.2079
15743W        W31877  12.756  17.005   0.527  0.2311  0.2202 -0.0729
15744W        W31878   4.617   4.763  15.582 -0.2252 -0.2655  0.1258
15745W        W31879   1.325   6.323  12.291  0.2665 -0.1501 -0.0748
15746W        W31880  10.943  12.301   4.339  0.3387  0.0907 -0.0173
15747W        W31881  16.848   3.648   2.863  0.2214 -0.0585 -0.0135
15748W        W31882   2.283  17.458   4.618 -0.2527  0.1347 -0.4014
15749W        W31883  12.661   4.705   1.447  0.0777 -0.0246  0.0010
15750W        W31884   4.831   0.829  17.078  0.0767 -0.2044  0.2848
15751W        W31885   4.602   6.578   2.566 -0.0665  0.0400 -0.2760
15752W        W31886   8.494   2.417   4.783  0.0406  0.4076  0.1123
15753W        W31887  17.499   9.792   3.650  0.0998 -0.1365 -0.1209
15754W        W31888   5.565  15.907  13.041 -0.0067 -0.0012  0.3368
15755W        W31889  17.363   5.561   4.224  0.1267 -0.3520 -0.1366
15756W        W31890   4.773   5.730  15.326 -0.1537  0.2363  0.1030
15757W        W31891   2.603   1.731  12.631  0.0248  0.0281 -0.0538
15758W        W31892   9.385  12.752   3.372 -0.0129 -0.1991  0.2855
15759W        W31893   6.490   1.107   2.696  0.1493  0.0992 -0.2873
15760W        W31894   6.242  14.817  15.114  0.1418 -0.3214 -0.0801
15761W        W31895  13.674  16.034   6.310  0.2103 -0.2070 -0.0599
15762W        W31896  15.666   7.508   4.592  0.2331  0.1887  0.3386
15763W        W31897   6.763  11.073  12.476  0.2677 -0.1855 -0.3064
15764W        W31898   7.144  15.185   4.426 -0.0469  0.4142  0.1883
15765W        W31899  15.430  16.093   4.931  0.4634  0.1014  0.2616
15766W        W31900  13.343   6.348   2.104 -0.1827  0.0884 -0.1529
15767W        W31901  10.888  14.894  15.606  0.2730  0.0836 -0.0675
15768W        W31902  11.918  15.675  16.151 -0.2594 -0.3119 -0.1285
15769W        W31903  13.433   4.059   1.861  0.3742  0.1166 -0.3179
15770W        W31904   1.115   7.903  12.795 -0.0353  0.5133 -0.1305
15771W        W31905   9.795   7.823   2.982  0.2537  0.0276 -0.0363
15772W        W31906   7.241   2.363  14.958 -0.2509 -0.0507  0.1097
15773W        W31907   6.480  14.127  13.563 -0.0973 -0.0930  0.1338
15774W        W31908  13.706  12.577  16.020 -0.2324  0.0162 -0.1100
15775W        W31909   8.912   6.864   2.014  0.0242  0.1116  0.0949
15776W        W31910   0.951  10.027  15.232  0.3240  0.0884  0.0962
15777W        W31911   4.396  17.340   0.240 -0.1931 -0.2000  0.0783
15778W        W31912  15.992   4.888   1.059 -0.1809 -0.1134 -0.2762
15779W        W31913  16.796  15.531   6.355  0.1113  0.1267 -0.2707
15780W        W31914  16.247  15.153  13.109  0.3487 -0.3158 -0.0759
15781W        W31915   0.020  17.549   6.532  0.1276  0.1064  0.1091
15782W        W31916   8.307   2.213   5.689  0.2412  0.1241  0.3177
15783W        W31917   9.275   0.585  16.158 -0.1694  0.3086  0.0012
15784W        W31918  15.604  14.682   6.352 -0.1212 -0.1377 -0.0589
15785W        W31919   2.323  15.977  13.165 -0.0073 -0.0206  0.0697
15786W        W31920  14.248   9.154   3.295 -0.0832  0.3026 -0.2666
15787W        W31921   7.428  11.955   2.080 -0.2240 -0.0872 -0.1763
15788W        W31922   4.443   7.515  15.251 -0.2952 -0.0677  0.0803
15789W        W31923  16.769   8.331  12.305 -0.1914 -0.0074  0.0545
15790W        W31924  16.994  16.591   0.023 -0.1726  0.0927 -0.1243
15791W        W31925   9.780  14.203   5.155 -0.0150  0.0437  0.1600
15792W        W31926  17.242   3.445   4.492 -0.0211 -0.0233  0.0087
15793W        W31927   5.168   8.105  15.386 -0.0890  0.3454 -0.1657
15794W        W31928  16.174   1.389   1.215  0.1104 -0.1245 -0.0001
15795W        W31929   5.879   6.929  12.666  0.3090 -0.0005  0.0378
15796W        W31930   2.771  15.579  13.782 -0.4267 -0.3165  0.0683
15797W        W31931   9.269   2.616  11.513  0.2734  0.0790 -0.1230
15798W        W31932  16.976  12.387   2.387  0.2806 -0.5371  0.0233
15799W        W31933   1.469   5.169   5.695  0.5763  0.0179  0.0429
15800W        W31934   3.170  11.888   5.525  0.1770 -0.2133  0.4077
15801W        W31935   3.320   6.977   0.655  0.0004  0.0567  0.2615
15802W        W31936   6.496  10.161  12.054  0.0684 -0.3476 -0.1343
15803W        W31937   8.311  11.840   2.113  0.0146  0.0225  0.0247
15804W        W31938   9.534   1.875   4.414  0.2843  0.2942 -0.0649
15805W        W31939   8.993  14.460   3.911  0.1322 -0.1324  0.3248
15806W        W31940   1.685  16.765   3.033  0.0136  0.3117  0.0346
15807W        W31941   6.518  11.987  16.203  0.2936 -0.1166 -0.0341
15808W        W31942   3.082   3.337   3.327  0.1165  0.0394  0.0973
15809W        W31943  12.236   4.191   3.581  0.1404  0.0789  0.1685
15810W        W31944   8.129   7.076  13.993  0.2132  0.1918  0.1899
15811W        W31945  11.272   9.839   0.290  0.0335 -0.0850 -0.1846
15812W        W31946  11.148   9.942   2.125  0.0687 -0.0010  0.0085
15813W        W31947   0.449   9.618  11.808 -0.0491 -0.3069 -0.0197
15814W        W31948   4.951  11.317  12.417  0.1688  0.2416 -0.0381
15815W        W31949   7.340   2.733  16.778  0.3048 -0.1816 -0.2177
15816W        W31950   5.056  15.543   1.707  0.0972 -0.1616 -0.0999
15817W        W31951   1.975  15.111  13.656 -0.2557  0.2183 -0.5432
15818W        W31952   9.518   7.742  12.424  0.3332 -0.0243  0.2716
15819W        W31953  10.384  16.611  13.905  0.0324 -0.1680 -0.2034
15820W        W31954   3.959  12.779   1.515 -0.1755 -0.0627  0.2087
15821W        W31955   3.174   8.122   1.718  0.2479  0.2576 -0.1928
15822W        W31956   8.168  12.590  12.387  0.2317 -0.1894  0.3080
15823W        W31957   6.204   7.863   3.722 -0.1978 -0.1192 -0.0379
15824W        W31958   2.017   7.609   5.614  0.0046  0.1011  0.0581
15825W        W31959  11.977   8.170   5.616  0.2104 -0.1929  0.3135
15826W        W31960   6.664  17.089   1.604 -0.2938  0.1492  0.0867
15827W        W31961   5.155  17.472  16.858 -0.0743 -0.1054  0.2692
15828W        W31962   0.709   1.862   3.721  0.1879 -0.0371 -0.0778
15829W        W31963  13.899   6.834   2.730 -0.0664  0.3797 -0.0930
15830W        W31964  15.688  15.678  13.642  0.0751 -0.2950  0.0501
15831W        W31965   7.865  12.089   2.333  0.1850  0.3280  0.0492
15832W        W31966  10.228  13.870   3.389  0.0284  0.2029 -0.0264
15833W        W31967  16.998   5.847   4.944  0.1366 -0.1384  0.2755
15834W        W31968  15.339   3.633  15.450 -0.1247  0.0052 -0.1195
15835W        W31969  17.399  10.273  14.429  0.0272 -0.1734  0.1197
15836W        W31970  13.131   0.698   2.278 -0.3583 -0.0566 -0.4075
15837W        W31971   6.377  13.634  13.330 -0.1148  0.0025  0.1121
15838W        W31972   8.763   2.292  15.131  0.0903 -0.2526 -0.1115
15839W        W31973  12.921   9.470   3.230  0.2161 -0.0399  0.5880
15840W        W31974   9.541  14.446   0.567  0.2613  0.0167 -0.0167
15841W        W31975   1.568   7.441  15.238  0.0017 -0.5161 -0.0053
15842W        W31976   6.998  12.299   2.724  0.1616  0.1570  0.2304
15843W        W31977   0.329  17.367  16.530  0.1243  0.0530 -0.1003
15844W        W31978  13.009  17.155  14.223 -0.0737 -0.0574  0.0485
15845W        W31979   6.365   7.004  12.462  0.1904 -0.1001 -0.1549
15846W        W31980   2.930   7.060   2.407  0.0390 -0.0466 -0.2969
15847W        W31981  10.807  15.335  11.703  0.1738 -0.0129 -0.0630
15848W        W31982  10.461  15.329   5.216 -0.2277  0.0273 -0.1448
15849W        W31983  16.553  14.567  13.777  0.2882  0.0643  0.2950
15850W        W31984  11.196  17.106   5.106 -0.0519 -0.1963  0.0045
15851W        W31985  13.778   6.574   1.975 -0.2198  0.1165 -0.0345
15852W        W31986  15.120  11.850   2.173  0.0871 -0.0158 -0.0588
15853W        W31987  14.941   9.459  15.961  0.0129  0.2937  0.0937
15854W        W31988  10.455   4.223  16.659  0.0764 -0.0875  0.0123
15855W        W31989  12.947   5.520   2.453 -0.3487  0.0749  0.0265
15856W        W31990  11.029   7.409  12.798  0.1373  0.0123  0.4098
15857W        W31991   1.482   7.667  16.110 -0.0123  0.0692 -0.3296
15858W        W31992   1.581  14.324   0.066 -0.1319  0.2566  0.2017
15859W        W31993  12.370  14.292   0.990  0.1166 -0.0282  0.1266
15860W        W31994   1.982   0.950  12.454 -0.2186  0.0176 -0.2259
15861W        W31995  12.186   6.293   1.638  0.0557 -0.0934  0.0380
15862W        W31996  14.360  11.822   4.802 -0.0883  0.4044 -0.1473
15863W        W31997  11.513   6.531  16.199 -0.2513 -0.1277 -0.3094
15864W        W31998  11.136   8.985   5.044  0.0487  0.1779 -0.1258
15865W        W31999   0.650   8.692   1.836 -0.0924 -0.1280  0.1125
15866W        W32000  15.634  15.828   0.343  0.5398  0.0520  0.0356
15867W        W32001  14.444   0.250   5.910 -0.4326 -0.4712 -0.0326
15868W        W32002  14.019  17.133  16.543 -0.0988 -0.2284 -0.0758
15869W        W32003   0.264  13.351  12.016 -0.1691 -0.2656  0.1588
15870W        W32004   1.001   8.857  14.243  0.1287 -0.0725 -0.1448
15871W        W32005   0.508   6.066   4.916 -0.1930 -0.2455  0.1562
15872W        W32006  16.791  13.125   3.415  0.0516 -0.0725 -0.0572
15873W        W32007  10.320  12.817   5.824 -0.0689 -0.1195 -0.2911
15874W        W32008  17.513   2.485   4.424 -0.1282 -0.3498  0.0699
15875W        W32009   7.880   2.239   1.664 -0.1663  0.1075  0.0664
15876W        W32010   8.918  14.670   4.404 -0.1667  0.0197  0.2344
15877W        W32011  17.540   9.731  13.143 -0.0486 -0.0334 -0.2301
15878W        W32012   3.620   5.182   3.812  0.0011  0.0183  0.0685
15879W        W32013  15.472  16.650   4.910  0.1026  0.1960  0.0792
15880W        W32014   3.245   7.593   1.547  0.3338 -0.1491 -0.1166
15881W        W32015   4.245   2.173   2.038 -0.1345 -0.0924  0.2179
15882W        W32016   7.670   9.730   1.513  0.0309 -0.1477 -0.3906
15883W        W32017   2.861   2.609   0.742  0.0207  0.1343  0.3861
15884W        W32018   9.981   6.048   0.198 -0.0131 -0.2490 -0.0427
15885W        W32019   0.024  11.494  15.959  0.2191 -0.0006 -0.0811
15886W        W32020   1.132   1.667   3.930  0.0369  0.1716 -0.1073
15887W        W32021  16.527  12.467  16.401 -0.1482  0.2224 -0.2659
15888W        W32022  16.327  14.048   0.387  0.3150  0.1974  0.0057
15889W        W32023   0.535  11.976   5.205  0.0761  0.2433  0.1314
15890W        W32024   0.643  13.527  13.528 -0.0431  0.1595  0.2624
15891W        W32025   7.633   9.296  12.253 -0.0261 -0.1306  0.2766
15892W        W32026  15.649  13.930   1.008 -0.1322  0.0693 -0.1061
15893W        W32027   2.922   9.892   1.727  0.3459  0.0268 -0.0234
15894W        W32028  15.499  12.763  12.165 -0.1537  0.2643  0.3518
15895W        W32029   4.391   7.063   1.942 -0.1391  0.1228 -0.0540
15896W        W32030  13.422  10.853   2.251  0.0452  0.0057 -0.4167
15897W        W32031  11.196   5.865   4.504  0.3733  0.2611  0.1021
15898W        W32032   6.811   7.629  16.775  0.1076 -0.2945 -0.0742
15899W        W32033   9.389  16.030   3.527  0.0640 -0.3227 -0.0017
15900W        W32034   6.352   7.378  16.936  0.2604 -0.3234 -0.2891
15901W        W32035  11.769   7.210   1.691  0.1695 -0.1111 -0.2250
15902W        W32036  10.294  14.050  13.817  0.2110 -0.0277  0.4090
15903W        W32037  16.563   0.146   0.676  0.0321  0.1041  0.0036
15904W        W32038   8.679   3.088   5.340 -0.2105  0.0784  0.3700
15905W        W32039   8.311  12.760  17.008  0.0144  0.2554 -0.2414
15906W        W32040   4.185   6.241   3.293  0.0725  0.1964  0.0238
15907W        W32041   3.179   9.516  13.331 -0.0144 -0.0786  0.1380
15908W        W32042   4.521  17.236  11.820  0.1664  0.1117 -0.0089
15909W        W32043   6.499   6.370   6.113  0.1548 -0.0932 -0.0653
15910W        W32044  12.339  14.808  12.442 -0.1054 -0.0127 -0.1218
15911W        W32045   8.015   3.602   0.742  0.0013  0.0721 -0.0087
15912W        W32046   1.200   0.565   4.753  0.2401 -0.0690  0.0595
15913W        W32047   4.946   9.936   3.786 -0.0174 -0.0591  0.0938
15914W        W32048   7.140   5.411   4.829  0.2163 -0.0315  0.4487
15915W        W32049   9.055   5.542  15.676  0.3467 -0.0025  0.5572
15916W        W32050   9.271   7.090   2.274  0.3496 -0.2706  0.1216
15917W        W32051  15.918  15.316   1.595 -0.1818 -0.0671  0.2555
15918W        W32052   2.862   7.224   0.860  0.1486  0.0088 -0.0253
15919W        W32053   3.210   4.254   4.376  0.1671  0.5483  0.1224
15920W        W32054  12.163  14.584   2.635  0.2665 -0.0969 -0.3754
15921W        W32055  16.768   5.809  16.936 -0.1955 -0.1115  0.1881
15922W        W32056   6.225  13.310  14.326 -0.1014  0.0143 -0.3072
15923W        W32057   5.447  16.049   3.111 -0.1397 -0.1400  0.1517
15924W        W32058   0.098   8.553   2.732  0.0380  0.0504  0.0210
15925W        W32059  12.675   6.370   2.194  0.1799  0.2979  0.1203
15926W        W32060   0.711   0.452   5.125  0.0007 -0.2529 -0.2305
15927W        W32061  13.835   4.850   4.182  0.0990  0.1139 -0.1368
15928W        W32062   5.488  13.041  12.482 -0.1502  0.0383 -0.1189
15929W        W32063   8.009   2.811   4.571  0.0495 -0.0287  0.1642
15930W        W32064   7.061   0.352  12.284  0.0606  0.1672  0.2246
15931W        W32065  14.902  11.492  12.217 -0.1057  0.0306  0.1821
15932W        W32066  17.395   4.399  13.287  0.1554 -0.0268 -0.2037
15933W        W32067   2.471   0.867   0.085  0.0560  0.1406  0.0016
15934W        W32068   3.969  12.668  15.815 -0.0151 -0.0698 -0.1261
15935W        W32069  13.994  17.268   4.935 -0.2588 -0.1472 -0.0285
15936W        W32070   7.798   1.772   4.496 -0.1596  0.0316 -0.0812
15937W        W32071  16.086  17.503   3.875 -0.5642  0.0981 -0.3052
15938W        W32072   1.004  10.408  15.593  0.0832  0.0634 -0.1075
15939W        W32073  11.086   0.606   3.402 -0.1713  0.0264 -0.0562
15940W        W32074   5.430   1.987  15.251  0.2885  0.1402 -0.1636
15941W        W32075  13.033   2.034   5.516 -0.3530  0.2424  0.0106
15942W        W32076   1.909  12.478  16.158 -0.0415 -0.0267 -0.1836
15943W        W32077   8.581  16.240  11.715  0.0767 -0.0123 -0.2449
15944W        W32078  12.892  13.716  16.419 -0.3947 -0.2801  0.2115
15945W        W32079  14.930  14.615   2.233 -0.1266 -0.0059  0.4163
15946W        W32080   7.043   7.725  15.845  0.1132 -0.3767  0.2637
15947W        W32081   4.821   5.817   2.509  0.0797  0.0459 -0.1689
15948W        W32082  17.392  15.509   2.810  0.1244 -0.0515  0.2685
15949W        W32083  11.085  14.166  12.662 -0.1349  0.0403 -0.4256
15950W        W32084   4.401   8.421  15.336 -0.1577  0.3848  0.1557
15951W        W32085  12.370   5.518  16.162 -0.0086  0.0466 -0.1385
15952W        W32086   8.592   8.333   1.160  0.2104  0.2837  0.2160
15953W        W32087  16.118   0.557  13.659  0.2784 -0.6176 -0.4170
15954W        W32088   5.105  16.229   2.479 -0.1584  0.0448  0.1597
15955W        W32089  11.835  11.716  15.349 -0.0265 -0.2480  0.2137
15956W        W32090   6.480  10.211  15.970  0.0783 -0.0708  0.3996
15957W        W32091   9.750   2.320  16.318 -0.2028 -0.0220 -0.0531
15958W        W32092  12.541  12.818   3.789  0.2795 -0.2573  0.1434
15959W        W32093   6.412  11.031   3.407  0.0744  0.1498 -0.1956
15960W        W32094  12.940  13.433  16.795  0.4499  0.2752  0.0328
15961W        W32095   5.902  12.852  12.079 -0.4520 -0.1427  0.2067
15962W        W32096  11.064   6.617   3.695  0.1284  0.2090 -0.2805
15963W        W32097   2.610   5.871   2.988 -0.1318 -0.0873  0.2067
15964W        W32098   2.686  12.104  12.142 -0.0840 -0.3458 -0.0629
15965W        W32099   6.754   8.339  14.404 -0.1190 -0.1911  0.0272
15966W        W32100  16.204  10.190  12.657 -0.1927 -0.1737  0.1586
15967W        W32101  11.817  16.598  14.780 -0.0279 -0.0059 -0.2517
15968W        W32102   5.874   9.155  14.187  0.0076  0.0283  0.0458
15969W        W32103   4.108   2.335  16.030  0.2976 -0.3525 -0.2081
15970W        W32104  11.414  13.077  11.892 -0.0946  0.1406 -0.0042
15971W        W32105   7.006   5.570   2.012 -0.0187  0.1164 -0.1385
15972W        W32106  15.897   2.014   5.478 -0.1295  0.2008 -0.0205
15973W        W32107  16.056   2.931  13.971  0.1976  0.0690 -0.0051
15974W        W32108  16.376   1.000   1.887  0.1219  0.6729 -0.1611
15975W        W32109  15.266  15.486   0.079  0.3044  0.1586  0.0053
15976W        W32110  12.718   4.161  11.510  0.1489  0.1446 -0.0687
15977W        W32111   4.884  17.511  14.264  0.1104 -0.1072  0.0331
15978W        W32112   9.214  10.349  13.599 -0.1903  0.1631 -0.2318
15979W        W32113   0.145  13.077   5.641 -0.0303  0.2681  0.0509
15980W        W32114   8.228  14.057  15.112  0.1369  0.1481  0.0934
15981W        W32115   8.009   1.352   0.601 -0.1354  0.0712 -0.1844
15982W        W32116   7.104   7.272  16.582  0.1815 -0.0205 -0.1000
15983W        W32117   6.244   9.658   3.663 -0.1998 -0.1150 -0.3007
15984W        W32118   3.698  11.732   5.445 -0.3335 -0.1082  0.2760
15985W        W32119  16.823   0.291  12.444 -0.0850 -0.0669 -0.1835
15986W        W32120  10.915  14.868   0.338 -0.0781  0.3582 -0.0774
15987W        W32121   5.576   7.328   3.140  0.0201 -0.1173 -0.0071
15988W        W32122  13.425   5.888   0.536 -0.3037  0.0646 -0.1096
15989W        W32123   6.500  16.977  13.360  0.2241 -0.1487 -0.0690
15990W        W32124  12.129   5.757  14.965  0.0226  0.0526 -0.0593
15991W        W32125   9.869  13.621  16.618 -0.2744 -0.1259 -0.5274
15992W        W32126  11.108   2.498   2.854 -0.0943  0.4509  0.1548
15993W        W32127  10.301  15.355  17.049  0.1939  0.0799  0.0714
15994W        W32128   2.800   2.240  15.482 -0.0250  0.2905 -0.1204
15995W        W32129   3.190   2.057   1.541  0.0647  0.0293  0.1370
15996W        W32130   8.752   2.238   5.463 -0.4449 -0.2620 -0.1985
15997W        W32131  10.685   9.685  11.850 -0.0032 -0.1235  0.0450
15998W        W32132   1.876  12.586  13.703  0.2200 -0.1189 -0.1953
15999W        W32133  16.485   1.805  16.664  0.5156 -0.3209 -0.1045
16000W        W32134   5.527   7.695   1.567  0.0557  0.0717 -0.1379
16001W        W32135   1.086  11.072  14.848  0.0507  0.1547 -0.2209
16002W        W32136   1.572   4.501   1.661 -0.0561  0.0271 -0.0915
16003W        W32137  17.568  10.311  13.860 -0.0303  0.1191 -0.1885
16004W        W32138   3.815   0.899   2.254  0.4093 -0.0110 -0.0903
16005W        W32139   2.724   3.173   5.631  0.0396  0.1416 -0.0667
16006W        W32140   7.076  13.167  14.680  0.1416 -0.0372  0.0758
16007W        W32141  12.806   0.575  15.774  0.2334  0.1652  0.1515
16008W        W32142  17.246   5.738   5.402  0.2477  0.4251 -0.1347
16009W        W32143   7.760  14.953   5.005 -0.1682  0.0313  0.3709
16010W        W32144  13.222   2.457  16.134  0.0870  0.2489 -0.1309
16011W        W32145   6.958   5.790  14.843 -0.0809  0.3176  0.3983
16012W        W32146   9.851   5.807  16.933  0.5053 -0.0284 -0.0033
16013W        W32147   1.517   7.397   2.960  0.1671 -0.0674  0.0273
16014W        W32148  15.128  16.625  15.986  0.0437  0.1600  0.0627
16015W        W32149  14.612   3.390   2.727  0.3356 -0.1333  0.2141
16016W        W32150  14.853   7.750  14.175  0.3043 -0.3588 -0.0532
16017W        W32151  10.195   8.249   2.159  0.2784 -0.3114 -0.0547
16018W        W32152  11.754   9.297   5.601  0.1886  0.1594 -0.2170
16019W        W32153  12.868   5.254   4.233  0.2409  0.2634  0.0673
16020W        W32154   1.414   9.549   1.333 -0.2655 -0.0346 -0.3846
16021W        W32155   1.559   5.912   4.162  0.3976 -0.0635 -0.1838
16022W        W32156  15.304  14.564   5.769  0.0276 -0.1374  0.1441
16023W        W32157   2.347   5.868  15.736  0.1597 -0.0714  0.2241
16024W        W32158   3.856   2.392   2.364 -0.2126  0.3754  0.0257
16025W        W32159  12.993  15.006   0.993 -0.0995 -0.0733  0.2239
16026W        W32160   8.546   3.447   0.942 -0.3562 -0.1550  0.1391
16027W        W32161   6.620  10.016  16.778 -0.2474  0.1424  0.2221
16028W        W32162  12.035   8.414   4.691 -0.1605  0.0711  0.3528
16029W        W32163   4.818  12.720   3.124 -0.0271  0.2441 -0.1191
16030W        W32164  16.811   0.610   2.675  0.2557 -0.0128  0.0878
16031W        W32165   3.017   7.843  13.616 -0.2290 -0.3101 -0.0383
16032W        W32166   1.400   2.521  12.518 -0.1928  0.0912 -0.2146
16033W        W32167  14.120  10.688  15.395  0.0767 -0.0260 -0.3661
16034W        W32168   3.425  13.454  14.679 -0.1042  0.0171  0.0664
16035W        W32169   8.902   9.417   3.644 -0.1430 -0.1011 -0.3212
16036W        W32170   0.088   8.733  16.557  0.1212  0.0966 -0.2450
16037W        W32171   8.127   4.108   0.838 -0.1706  0.0961  0.0187
16038W        W32172  11.626  12.102  12.035  0.0222 -0.0522 -0.0241
16039W        W32173   0.720   7.493   4.789 -0.3783 -0.2278 -0.3709
16040W        W32174   9.583  16.802  12.404  0.1093  0.1940 -0.1319
16041W        W32175  16.005  14.499   1.856  0.1515 -0.0388 -0.0549
16042W        W32176   6.344  14.131   5.176  0.2335  0.1960 -0.1349
16043W        W32177   0.632   3.312   4.167 -0.0248 -0.0187  0.2145
16044W        W32178  12.160   9.687  16.303 -0.2121 -0.3285  0.1143
16045W        W32179   2.253   1.494   3.347 -0.3243 -0.2522  0.0473
16046W        W32180   9.377  15.753  16.072  0.0897 -0.0638  0.1968
16047W        W32181  12.280   0.764   3.157 -0.2198 -0.1663 -0.1056
16048W        W32182   3.881  13.896   0.003  0.1946  0.0434 -0.0315
16049W        W32183  11.514  10.749  13.891  0.0240 -0.1097 -0.0021
16050W        W32184  17.179  17.341  16.440 -0.1477  0.2703  0.2708
16051W        W32185   0.720  10.637  14.646 -0.0258 -0.1972 -0.1828
16052W        W32186   3.907   3.418   1.571 -0.0466  0.0997 -0.1967
16053W        W32187  17.234  17.434   5.590  0.2810  0.3827  0.3226
16054W        W32188   5.548   8.204  16.261  0.2325  0.2124 -0.0942
16055W        W32189   4.924  17.035  13.475 -0.1346  0.0279  0.0121
16056W        W32190  16.801  14.887   4.862 -0.0739 -0.3310 -0.4448
16057W        W32191   4.722  12.147  16.718 -0.0588 -0.0930  0.1865
16058W        W32192   4.256  14.102   4.181  0.1279  0.0763 -0.0825
16059W        W32193   0.231  14.392  14.031  0.1104  0.1963  0.1011
16060W        W32194   5.238   1.947  12.916 -0.0078 -0.5098  0.0221
16061W        W32195   9.257   9.794   2.346  0.0047  0.1244  0.0980
16062W        W32196   1.305  15.885   1.370 -0.0900  0.4276  0.0480
16063W        W32197   2.246  12.157   4.247  0.0001  0.1942  0.1687
16064W        W32198  13.075  16.813   3.743  0.0966  0.0088  0.1252
16065W        W32199  15.254   3.752   3.452 -0.1668 -0.0392  0.1294
16066W        W32200   5.318  14.779   1.705 -0.3333  0.0314  0.3103
16067W        W32201   6.717  10.614  14.381 -0.0327 -0.2113 -0.0837
16068W        W32202  17.026   5.972   0.739  0.4436 -0.0502 -0.0107
16069W        W32203   5.663   0.519   4.447  0.3271 -0.0637 -0.2293
16070W        W32204   0.035   9.325   0.660  0.1789 -0.1049 -0.3231
16071W        W32205   9.620  12.581  15.683 -0.1186  0.1847  0.0593
16072W        W32206  10.173   5.599   0.469  0.1551 -0.1317  0.0059
16073W        W32207  15.651  14.779   0.415 -0.0901  0.0107  0.1916
16074W        W32208   8.012  15.789   2.479  0.3333 -0.1670  0.0970
16075W        W32209   7.377  11.513  15.341 -0.2858  0.4868  0.0200
16076W        W32210  13.025   3.255  14.020 -0.2720 -0.1156  0.0310
16077W        W32211  15.553  12.214   2.109  0.2579  0.0116 -0.0003
16078W        W32212   1.651  15.080   4.436  0.0083  0.0455 -0.1566
16079W        W32213   6.995  15.990   1.459  0.0671  0.2337  0.1418
16080W        W32214   1.511   1.562  14.123 -0.2429 -0.2521 -0.1378
16081W        W32215  10.664  14.439  12.141 -0.3335  0.0360  0.1048
16082W        W32216   4.717  17.439   2.685 -0.2820 -0.2535  0.1465
16083W        W32217   6.212   8.738   0.607  0.1085 -0.0197 -0.1312
16084W        W32218   0.009  16.568  14.627  0.0556 -0.3520 -0.1494
16085W        W32219   9.294  17.134   4.804 -0.0577 -0.2806  0.2282
16086W        W32220   5.080   0.485   5.692 -0.1227 -0.0874  0.3707
16087W        W32221  16.119   2.544  12.867  0.2874  0.2110 -0.1262
16088W        W32222  11.304  12.950  13.348  0.1606 -0.1671  0.2060
16089W        W32223   7.344   1.085   4.886  0.0213  0.0774 -0.0972
16090W        W32224  16.190   2.091  16.280  0.1596  0.0386 -0.0731
16091W        W32225   8.914   0.468  15.125  0.2058 -0.0424 -0.2195
16092W        W32226   6.610  11.040   0.145 -0.0699  0.0683  0.1651
16093W        W32227  16.555   6.751  16.335 -0.0553  0.1034 -0.0742
16094W        W32228  14.669   2.566   2.961 -0.0710 -0.1690  0.1186
16095W        W32229   3.486  14.394   1.849  0.0855 -0.0678  0.1611
16096W        W32230   8.260  17.057  11.483  0.0995  0.0405 -0.1169
16097W        W32231   8.600  17.000   5.308 -0.2717  0.3728 -0.1225
16098W        W32232   5.591  15.131  16.827 -0.2096 -0.2773  0.1669
16099W        W32233   4.210   8.423   1.508 -0.0766  0.1607  0.0237
16100W        W32234   5.991  12.850   5.190 -0.2828  0.0121 -0.3311
16101W        W32235  15.065   2.367  13.768 -0.2902  0.0031 -0.3242
16102W        W32236   5.665  10.780   2.796 -0.0533  0.0317  0.2838
16103W        W32237   4.851   8.107  12.559 -0.2848 -0.1299  0.0846
16104W        W32238   9.500   4.803  11.328  0.2627 -0.1204  0.1665
16105W        W32239  15.151  13.883  16.650 -0.0158  0.0348 -0.0084
16106W        W32240  10.344   2.765  13.038  0.3678  0.0299  0.0102
16107W        W32241  16.634   9.710  13.329 -0.0713  0.0653  0.1045
16108W        W32242  11.179   1.426   2.138 -0.0030  0.3138  0.3260
16109W        W32243  10.887   7.261  12.295  0.0339  0.1180 -0.0727
16110W        W32244   7.152  11.201   0.864  0.1825 -0.0385 -0.1166
16111W        W32245  15.267  11.557  10.955  0.0024  0.2193  0.0674
16112W        W32246   8.918   2.163   2.199 -0.0356 -0.1560 -0.0074
16113W        W32247   6.875  14.088   3.244  0.0961  0.0153 -0.0568
16114W        W32248  10.041  14.912   4.060  0.0736  0.0242 -0.1759
16115W        W32249   6.673  11.321   3.035 -0.1907  0.4383  0.1036
16116W        W32250   4.731  15.153  13.328 -0.1114 -0.0686 -0.1582
16117W        W32251   5.550  12.275   0.449 -0.0939  0.1787 -0.4177
16118W        W32252   9.312  13.222   3.557 -0.0854 -0.0564  0.2091
16119W        W32253   5.326  16.416   5.261 -0.2710 -0.1567  0.1415
16120W        W32254  15.168   9.026  16.091  0.1933  0.2101  0.1049
16121W        W32255   0.402  13.088  14.781  0.0243  0.1180 -0.1130
16122W        W32256   3.764  11.055  15.976 -0.0899  0.1215 -0.2096
16123W        W32257  11.859  13.337   5.950  0.2334  0.0763 -0.1239
16124W        W32258   1.495  17.224  13.314 -0.4278  0.0076 -0.0555
16125W        W32259  15.555  16.318  15.896  0.1054  0.1494  0.1782
16126W        W32260   6.079   1.189   3.061  0.0247  0.2761  0.1332
16127W        W32261   7.686   4.163  12.873 -0.0269 -0.0423 -0.0593
16128W        W32262   2.828   1.333   4.422  0.2707  0.1375 -0.0199
16129W        W32263   9.401   7.745   1.121 -0.4254 -0.0079 -0.0224
16130W        W32264   1.894  16.523  16.749  0.1013 -0.1803 -0.0063
16131W        W32265   4.825   1.718   4.786 -0.0643  0.1163  0.0703
16132W        W32266   9.041  11.586   0.152  0.1345  0.0087 -0.2926
16133W        W32267   5.936   9.612  13.261 -0.2868 -0.0940 -0.2758
16134W        W32268   2.447   5.709   3.496  0.0341 -0.2351  0.0206
16135W        W32269  15.223   1.467   4.693 -0.0422 -0.1921  0.0799
16136W        W32270  16.599   3.364   0.475 -0.0413 -0.2538  0.1246
16137W        W32271   7.371   6.850   3.027 -0.1598  0.0986  0.0842
16138W        W32272   9.984  15.167   5.948  0.0864 -0.1123 -0.1710
16139W        W32273  16.179   2.656  16.435 -0.1572 -0.0174  0.0625
16140W        W32274  11.460  11.364   4.435  0.0682 -0.0686  0.1501
16141W        W32275  12.273  12.080  12.782 -0.0050  0.1371  0.0316
16142W        W32276   8.665  13.803  15.185 -0.1219  0.2280 -0.3277
16143W        W32277  11.447   0.304   1.607 -0.1623  0.1103  0.0942
16144W        W32278   2.403   6.024  14.867 -0.0719 -0.4242 -0.0929
16145W        W32279   5.180  13.911   0.156 -0.0625 -0.0533  0.0824
16146W        W32280  12.802   4.290  17.097 -0.2985 -0.1266 -0.1815
16147W        W32281  10.063   4.657   1.823  0.0374 -0.1970  0.1539
16148W        W32282   9.247   0.516  14.316 -0.1333  0.1019  0.1686
16149W        W32283  14.691  12.376  16.241 -0.1288  0.1518 -0.2443
16150W        W32284   3.846   5.500   3.488 -0.3270 -0.1302 -0.1777
16151W        W32285  13.993   1.994   2.680  0.0928  0.1212 -0.1128
16152W        W32286  15.918   0.199   0.972 -0.1372  0.1488 -0.0095
16153W        W32287   6.042   8.415  15.247 -0.0236 -0.1443  0.1342
16154W        W32288   6.752   6.120   1.955  0.0216  0.1363 -0.1201
16155W        W32289   1.205   4.249   3.186 -0.0170  0.1098 -0.0353
16156W        W32290   9.709  15.318  13.024  0.2280 -0.3576  0.2442
16157W        W32291   2.200  16.908  17.016 -0.1993 -0.3817  0.2250
16158W        W32292  12.840  15.596  12.385  0.2250 -0.3364 -0.2774
16159W        W32293  12.615  13.770  14.048  0.1448 -0.0484  0.1600
16160W        W32294   7.470   5.948  13.514  0.1263 -0.0353 -0.2772
16161W        W32295   6.002  10.850  14.131  0.2120 -0.2418 -0.0378
16162W        W32296  10.069   4.728   0.193  0.0720 -0.0012  0.1238
16163W        W32297  10.460   0.347  15.006  0.0253 -0.0396 -0.0977
16164W        W32298  10.168   8.721   5.027  0.1368  0.3228  0.0162
16165W        W32299   9.072   6.219  14.914 -0.1418 -0.2096  0.2558
16166W        W32300   2.545  13.396   0.891 -0.0608 -0.1354  0.0539
16167W        W32301   9.827   1.948  16.782 -0.2435 -0.3115 -0.1763
16168W        W32302  14.819   3.675  15.168 -0.0026  0.2651  0.2004
16169W        W32303  10.276  14.538  13.082  0.1091  0.1648 -0.3808
16170W        W32304   3.767   2.968  15.796  0.2220  0.1045  0.2255
16171W        W32305   7.246  10.984  15.512  0.0469  0.0583 -0.1192
16172W        W32306  11.273   0.359   3.894 -0.3886 -0.2081  0.5351
16173W        W32307   9.755  10.404   0.244  0.0881  0.0926  0.2962
16174W        W32308   0.418  12.137   2.355 -0.1100 -0.0900 -0.2594
16175W        W32309   8.465   4.251  11.683 -0.0346 -0.0284  0.2037
16176W        W32310   6.587  12.160   4.970  0.0103 -0.0357  0.1292
16177W        W32311  12.972   1.177   2.362  0.0745 -0.0297  0.2521
16178W        W32312   9.982  15.752   1.500  0.0807 -0.4430  0.0476
16179W        W32313   4.360  14.516   1.708  0.1242  0.0288 -0.1626
16180W        W32314  12.001  12.966  16.834 -0.1519  0.1637  0.2900
16181W        W32315   0.896   5.913  15.320 -0.0384  0.2008 -0.2108
16182W        W32316   2.063   5.372   0.335  0.1304 -0.2079 -0.1385
16183W        W32317  12.941  13.736  12.716  0.1470  0.2707  0.3832
16184W        W32318   4.381  13.497   2.477  0.3064 -0.4557 -0.0325
16185W        W32319   6.921   4.972  11.041  0.1658  0.0364  0.1247
16186W        W32320   9.064   0.983   4.437  0.0723 -0.0925  0.3054
16187W        W32321  10.586   8.088   1.926 -0.1576 -0.2161  0.1354
16188W        W32322  15.160  15.128   2.258 -0.1191  0.0976  0.1099
16189W        W32323   6.305   7.213  14.707 -0.2437 -0.1170  0.1572
16190W        W32324  14.446   4.472  13.002 -0.0596  0.2014  0.2920
16191W        W32325  10.505   4.887  15.288  0.0721  0.2224  0.0218
16192W        W32326  10.560  13.555   3.220  0.2413  0.1333  0.0973
16193W        W32327  14.572   2.457  12.085 -0.2192  0.1440  0.1671
16194W        W32328  11.655  15.697  13.034  0.0176  0.0745  0.1668
16195W        W32329   1.973   8.547   0.471  0.1757 -0.2671  0.2152
16196W        W32330   5.040   4.113  13.665 -0.0752  0.6112  0.1162
16197W        W32331   6.301   9.468   5.371 -0.2783 -0.0668  0.3351
16198W        W32332  12.755  12.126   3.903 -0.1085 -0.1921 -0.2062
16199W        W32333  17.454   4.429   3.348  0.0185 -0.3115 -0.1783
16200W        W32334  15.179   1.488  16.807 -0.1204 -0.2534  0.0674
16201W        W32335   2.669   4.707  16.351  0.4048 -0.1450  0.3360
16202W        W32336   8.919   3.553  13.599  0.1421  0.1496  0.1809
16203W        W32337  17.630   8.435   3.164  0.0276 -0.5321 -0.0814
16204W        W32338   9.888  14.577   2.403  0.0961  0.0201  0.0843
16205W        W32339   2.986   4.155  16.973  0.2706  0.0806  0.2289
16206W        W32340  12.496   8.407   4.932 -0.2818 -0.1289  0.3240
16207W        W32341  15.338  13.748   4.765 -0.3452 -0.0900 -0.0318
16208W        W32342  15.735   5.778  13.670  0.1603  0.0206 -0.0120
16209W        W32343  14.560   9.857   0.967 -0.0065 -0.1021 -0.0724
16210W        W32344  13.683   7.416  16.493  0.1643  0.1563 -0.1880
16211W        W32345   3.574  16.404   3.038  0.1404  0.2268 -0.1315
16212W        W32346   6.716   8.051   4.442  0.4339  0.4068  0.1094
16213W        W32347   3.047  11.508   1.964  0.0391 -0.1189  0.3781
16214W        W32348   5.521  14.446   3.000  0.1296  0.0421 -0.0067
16215W        W32349   6.326   3.785  12.394  0.0335 -0.0037  0.1746
16216W        W32350  13.945  14.507  15.131  0.0515  0.1616 -0.5997
16217W        W32351   4.842   8.990   3.631  0.1453  0.3283 -0.3172
16218W        W32352   7.138  16.521   4.413  0.0753  0.2192  0.0268
16219W        W32353  10.081   8.975   5.521  0.2590  0.1474 -0.0567
16220W        W32354  13.885   2.347   0.104  0.1830  0.0897  0.2530
16221W        W32355  11.491   1.200   4.578 -0.1927 -0.1659  0.0795
16222W        W32356  13.445   1.860   3.372  0.1806 -0.2409  0.0968
16223W        W32357  16.612  17.519   3.737 -0.2497 -0.0938  0.0654
16224W        W32358  13.954  12.700  15.191 -0.1188 -0.0937  0.1009
16225W        W32359  12.443  16.102  13.591  0.2140 -0.1789 -0.3043
16226W        W32360  11.976  13.174  15.003  0.0988  0.1820 -0.1864
16227W        W32361  13.961   4.605   3.305 -0.0488 -0.0404 -0.4130
16228W        W32362  12.228   5.174  13.919 -0.0380 -0.0647  0.2139
16229W        W32363  17.479   7.283  16.625  0.0649  0.1183  0.0068
16230W        W32364   4.519   9.051   4.565 -0.3120 -0.0509 -0.0111
16231W        W32365   3.654  13.632   5.370  0.0310 -0.0362 -0.2277
16232W        W32366   5.790  14.863   5.373 -0.1044  0.0059  0.0349
16233W        W32367   6.170  10.520   3.526  0.4180 -0.1252  0.0141
16234W        W32368   5.529  13.147   5.685  0.4618 -0.3426 -0.2631
16235W        W32369   8.786  13.453   0.266  0.0235 -0.2869  0.2536
16236W        W32370   6.535   2.077   4.334 -0.2716 -0.2825 -0.0896
16237W        W32371  16.393  12.338  15.000 -0.2384 -0.1853  0.0578
16238W        W32372   3.885  10.752   5.342  0.1205 -0.1604 -0.0813
16239W        W32373   0.366   0.445   1.554 -0.0704 -0.3597  0.1225
16240W        W32374   0.279   7.549  16.327  0.2367 -0.0911  0.1760
16241W        W32375   2.615   3.647  15.107  0.1465  0.0624 -0.1043
16242W        W32376  11.625  11.269  16.031 -0.1675  0.2105  0.2436
16243W        W32377  12.603  14.408  15.855 -0.1067  0.2018  0.1537
16244W        W32378   1.627   6.725  14.093  0.1157  0.4098  0.2281
16245W        W32379  11.233   9.884   3.203 -0.0422 -0.0748  0.0445
16246W        W32380  10.119  14.110  13.337 -0.0817  0.0958  0.0173
16247W        W32381   6.571  11.650  12.305  0.0474  0.1329 -0.3065
16248W        W32382   6.252   2.417   3.084  0.1548 -0.0757 -0.0424
16249W        W32383  14.438   5.331  12.609  0.0968  0.0525  0.3023
16250W        W32384   9.495  11.994   3.775  0.0214 -0.0483 -0.1074
16251W        W32385  14.983   2.574  12.550  0.2123  0.0076  0.1256
16252W        W32386  11.129   5.667  11.399  0.3363  0.0623  0.2536
16253W        W32387  10.539   7.763   2.320  0.2350  0.0581 -0.1474
16254W        W32388   4.831   4.791   0.181 -0.1016  0.0233  0.0940
16255W        W32389   5.900   7.110  13.177  0.1624 -0.2464 -0.3136
16256W        W32390   9.218   4.095   5.103 -0.2178  0.3439 -0.0179
16257W        W32391   6.703   6.817   5.169 -0.4053  0.0348 -0.0222
16258W        W32392   8.477   3.152   3.616 -0.2869  0.1864  0.2423
16259W        W32393  11.211  11.622   5.077  0.1661  0.3496 -0.0899
16260W        W32394   8.767   8.616   5.595  0.1596  0.2298  0.3678
16261W        W32395   1.910  13.302  14.394 -0.1111 -0.0745 -0.1373
16262W        W32396  15.970   6.248   0.350 -0.0922 -0.2841 -0.0663
16263W        W32397  13.395   9.898  13.443  0.0323  0.2443 -0.0209
16264W        W32398   7.977   5.604   0.557 -0.0702 -0.1559 -0.1448
16265W        W32399   1.820   8.855  11.939  0.2556  0.0984  0.0425
16266W        W32400   6.266  14.668  14.603 -0.1315 -0.2325 -0.0531
16267W        W32401  10.670  14.174   5.608 -0.1379  0.0798  0.0140
16268W        W32402   8.749  15.994   0.207  0.2258  0.0705 -0.0131
16269W        W32403  12.749  10.975   5.565  0.1395  0.1077  0.3674
16270W        W32404   0.550  11.379   0.560 -0.1301  0.0555  0.0873
16271W        W32405  14.973  14.602  14.746 -0.0299 -0.1213 -0.2673
16272W        W32406  11.592   1.322  14.725  0.0468 -0.1461 -0.0660
16273W        W32407  16.483  16.831  15.897 -0.0168  0.1290  0.2724
16274W        W32408  15.951   5.143   2.023 -0.3132  0.2567 -0.2539
16275W        W32409  13.004   1.513   3.657  0.0822 -0.1628  0.0791
16276W        W32410   2.043   1.474   0.985 -0.4160 -0.0835  0.1565
16277W        W32411  11.855   4.936   3.372  0.2575 -0.2581 -0.2138
16278W        W32412   7.483   2.954  13.842 -0.2052 -0.0134  0.1060
16279W        W32413   2.003   7.843  16.035 -0.1702  0.2863  0.2643
16280W        W32414   2.224  10.031  11.957  0.0972  0.0210  0.1243
16281W        W32415   5.609  11.537  12.837 -0.0038 -0.2196 -0.0529
16282W        W32416   3.027   0.085   0.948  0.1938  0.3424 -0.1792
16283W        W32417   8.957   0.256  13.965 -0.2891 -0.1654  0.3123
16284W        W32418  17.074   1.967  16.588  0.0448 -0.1699  0.4132
16285W        W32419  17.508  14.174   2.188  0.0101 -0.1569  0.0943
16286W        W32420  11.945  10.771   2.436 -0.3325  0.2269 -0.2248
16287W        W32421  10.641  10.723   0.183  0.0308  0.0160 -0.2903
16288W        W32422   7.122   2.977   4.020 -0.0976  0.1530  0.2734
16289W        W32423  17.518  11.861  15.673  0.0644  0.0487 -0.1495
16290W        W32424   4.963   0.078   5.219  0.0845 -0.3590  0.2937
16291W        W32425   2.100   6.609  12.057  0.1205  0.0535  0.2855
16292W        W32426  10.202  13.599   4.734 -0.0155 -0.1184  0.1672
16293W        W32427   4.407   7.490  11.519  0.0628  0.0792 -0.3963
16294W        W32428  12.231   8.011  13.452 -0.1701 -0.4991  0.0698
16295W        W32429   9.483  15.069   5.436 -0.1361  0.0663  0.1206
16296W        W32430   9.632   2.113   5.471  0.2290  0.2044  0.2415
16297W        W32431   1.286   0.322  13.214  0.0972  0.2956  0.3106
16298W        W32432   2.825   0.476   4.061  0.4477  0.0518 -0.0246
16299W        W32433  13.727   7.908  16.359  0.1377 -0.1748  0.0966
16300W        W32434   4.346  17.108   5.675 -0.1295 -0.2353 -0.2023
16301W        W32435   3.317   5.209  15.685 -0.0482  0.0891 -0.1079
16302W        W32436  11.513  11.667   3.162  0.1447 -0.0894  0.2062
16303W        W32437   6.096   8.695  11.707 -0.1828  0.0296  0.1674
16304W        W32438  10.888   0.140  12.843 -0.0655  0.0298  0.0412
16305W        W32439  12.299  15.746   5.379 -0.0258  0.1275 -0.3160
16306W        W32440  12.046   9.240  12.720 -0.0351  0.0807 -0.1863
16307W        W32441   3.656  14.072  13.463 -0.0998 -0.2209 -0.0082
16308W        W32442  13.824   0.712  13.609 -0.0078  0.1612 -0.4723
16309W        W32443  10.433  12.053  13.718  0.1089  0.0618 -0.2496
16310W        W32444   2.624  16.317  16.374 -0.1481 -0.0465 -0.1635
16311W        W32445   3.036  11.284   0.006 -0.1237  0.0081 -0.0879
16312W        W32446   9.256   4.646  14.626  0.1620  0.0825 -0.2373
16313W        W32447  11.936  16.964   3.852  0.2043  0.0507 -0.0485
16314W        W32448   3.225   6.730  11.709 -0.0211 -0.1165 -0.0062
16315W        W32449  10.859   4.571  15.851  0.1016  0.0631  0.2442
16316W        W32450   3.051  10.563   5.483 -0.1231  0.1655 -0.0885
16317W        W32451   6.790   6.916  12.223 -0.2343  0.4028 -0.0382
16318W        W32452   6.843  12.931  12.826  0.0759 -0.1912  0.0180
16319W        W32453  13.337  13.664   2.128  0.0794 -0.1556 -0.2864
16320W        W32454   4.443   0.439  12.168 -0.1449 -0.0036 -0.0532
16321W        W32455  13.686   9.399  15.741 -0.0338 -0.0842  0.0278
16322W        W32456  17.213   6.112  11.907  0.0732  0.0827  0.1045
16323W        W32457  10.878  15.052   5.450 -0.0566 -0.1685  0.2143
16324W        W32458   1.786   8.671  12.407  0.1988 -0.0391  0.1472
16325W        W32459  12.055   6.102  13.273  0.1005  0.1370 -0.4245
16326W        W32460  16.256   1.188   3.208  0.0581  0.1231 -0.1441
16327W        W32461   1.480   5.919   0.660 -0.0256 -0.1651 -0.2735
16328W        W32462   2.187  16.663   5.182  0.0055 -0.0491 -0.1080
16329W        W32463   9.270   6.460  12.017  0.2362  0.2601 -0.1238
16330W        W32464   4.670  13.105   5.817 -0.0833 -0.0829  0.0496
16331W        W32465   5.923   5.300  16.119 -0.2863 -0.0900  0.1634
16332W        W32466   3.896  12.786  12.609 -0.0490 -0.1336  0.0714
16333W        W32467   4.695  11.133  14.902  0.1712 -0.0170  0.0967
16334W        W32468   2.414  13.905   4.117  0.0565  0.1055 -0.0189
16335W        W32469  13.469   5.461   2.680  0.0995 -0.0271  0.0722
16336W        W32470  17.302  17.037   5.242 -0.0666  0.1644  0.2045
16337W        W32471   6.630   7.625   2.378 -0.1786 -0.1030 -0.0396
16338W        W32472   0.550   8.256   2.462 -0.1627 -0.0322 -0.1779
16339W        W32473  15.887   0.839   4.122  0.1959 -0.0624  0.1035
16340W        W32474   7.039   0.740   5.128 -0.0663 -0.3161  0.2575
16341W        W32475  17.437   2.081  11.847 -0.0824 -0.0906  0.1620
16342W        W32476  14.329  13.394  16.573  0.0499 -0.0665  0.1067
16343W        W32477  11.153  14.664   6.052  0.0100 -0.1352 -0.2630
16344W        W32478   9.632   2.868   5.054 -0.1680  0.1203  0.0495
16345W        W32479   3.990   2.448  14.181  0.0596  0.0746 -0.0218
16346W        W32480   4.199  13.643   5.285 -0.1259  0.2627  0.0476
16347W        W32481   1.979  10.955   4.736 -0.0492 -0.3238 -0.1777
16348W        W32482   3.165  16.711  15.381 -0.2207  0.0439  0.1308
16349W        W32483   2.894   1.168   0.695  0.1391  0.3455 -0.1653
16350W        W32484  15.663  13.167  14.927  0.0909  0.1812 -0.0281
16351W        W32485  14.550   1.034  12.476 -0.0622  0.0076 -0.1426
16352W        W32486  11.976  15.644   0.426  0.3442 -0.0020  0.0386
16353W        W32487  17.207  15.230   3.755  0.0075  0.2737 -0.0767
16354W        W32488   6.443  15.849  15.438 -0.1262 -0.2193 -0.0832
16355W        W32489   5.153  12.983  11.957  0.0076 -0.1948 -0.1578
16356W        W32490  12.922   2.511  14.590 -0.1254 -0.0727  0.1526
16357W        W32491   4.066  13.179  12.397  0.0620  0.2270 -0.2420
16358W        W32492   1.827  16.671   3.784 -0.0880 -0.0583  0.0115
16359W        W32493  14.208   8.975   1.980 -0.0509  0.1678  0.2487
16360W        W32494   4.907  12.956  12.493  0.4893 -0.3946 -0.3289
16361W        W32495   0.306   8.690   4.135 -0.3948 -0.3290  0.0557
16362W        W32496  11.024   6.366   4.100 -0.2770  0.0351 -0.0523
16363W        W32497  13.992   8.256  17.157  0.0036 -0.5694  0.0946
16364W        W32498  10.613   3.337  16.636 -0.0335 -0.0921  0.4047
16365W        W32499  10.933   8.971   5.610  0.1091  0.1033  0.1654
16366W        W32500   6.915  11.876  13.014  0.0268 -0.2304 -0.0924
16367W        W32501  15.285   0.654   3.305  0.2895 -0.1314 -0.2717
16368W        W32502   4.789   7.073  11.645 -0.1806  0.2225 -0.1534
16369W        W32503   8.154  15.822   5.270  0.0616 -0.1105 -0.0319
16370W        W32504   1.523  10.501  11.872  0.0505 -0.1983  0.1594
16371W        W32505   4.562   7.315  16.802 -0.0494 -0.2072 -0.2693
16372W        W32506   6.833   6.581   1.702 -0.1350 -0.1406 -0.0165
16373W        W32507   3.661   9.049  13.996 -0.1977  0.0185  0.1563
16374W        W32508   7.597   9.215   1.272 -0.0810 -0.2005  0.0705
16375W        W32509   1.195   7.753   0.444  0.0239 -0.3968 -0.2607
16376W        W32510  13.109  11.696  12.097  0.0122 -0.0029  0.3800
16377W        W32511   4.123  10.011   2.027 -0.3195  0.0513 -0.1217
16378W        W32512   2.279   6.958   3.634  0.1996 -0.0020 -0.2554
16379W        W32513  17.071  17.481  13.991  0.3623  0.1031  0.1207
16380W        W32514   0.485   0.697  14.551 -0.0142 -0.1098  0.2871
16381W        W32515  12.104  11.443  11.753 -0.2651  0.0639  0.0475
16382W        W32516   8.232  11.578  16.975 -0.2594  0.0830 -0.0006
16383W        W32517  10.515   8.106  14.683 -0.1762 -0.0398 -0.0604
16384W        W32518  10.016  13.500   0.941 -0.1663  0.1578  0.2345
16385W        W32519   6.384   8.735  14.396 -0.0363  0.1481 -0.0763
16386W        W32520   4.932   6.066  16.248  0.1808  0.1498 -0.0518
16387W        W32521   2.504   9.801  12.540 -0.2476 -0.2982 -0.2245
16388W        W32522   7.268  13.787   4.914 -0.0494 -0.1886 -0.0813
16389W        W32523   4.987  13.779  12.941 -0.2237 -0.1799 -0.0166
16390W        W32524  11.130   8.942   2.826  0.3433 -0.1651  0.1485
16391W        W32525  10.862   2.996   6.012 -0.1379 -0.1516 -0.2205
16392W        W32526   6.281   5.946  13.437 -0.1814  0.1904  0.0314
16393W        W32527   6.728   4.560   2.844 -0.1577  0.1472  0.0513
16394W        W32528   4.904  13.078  13.768 -0.0014 -0.2341  0.2085
16395W        W32529  11.120   9.438   2.401  0.1039  0.0292 -0.1783
16396W        W32530  10.878  14.327  11.711 -0.5120 -0.2425  0.2188
16397W        W32531  10.874   9.591   0.165 -0.3010 -0.1420  0.1889
16398W        W32532   0.030  13.823  13.576 -0.1935 -0.1060  0.0814
16399W        W32533   0.811  10.629   4.974 -0.0309 -0.3604 -0.1561
16400W        W32534  17.113   4.481  12.782 -0.1506 -0.2513  0.3490
16401W        W32535  14.562   8.921  13.616  0.0918 -0.0987 -0.0909
16402W        W32536   7.550  12.460   4.714  0.1056 -0.1744 -0.0248
16403W        W32537   0.589   8.176   5.007 -0.3641 -0.0240  0.0584
16404W        W32538  17.291   6.863   2.953 -0.0237 -0.1024 -0.1544
16405W        W32539   5.495   9.201  14.797 -0.2864 -0.0581 -0.0817
16406W        W32540   2.210  17.615   1.169 -0.1062 -0.0045  0.0495
16407W        W32541  14.395   9.918   0.500  0.1094  0.3582  0.1044
16408W        W32542   3.339   6.130  13.911 -0.1280 -0.2395  0.0228
16409W        W32543  15.501   0.920   1.472 -0.1225 -0.2257 -0.1118
16410W        W32544   0.971  13.644   3.475 -0.2293  0.2616  0.0613
16411W        W32545   2.993  11.531  11.493 -0.1148 -0.0820 -0.1540
16412W        W32546   7.011  11.933  16.211  0.1156 -0.2680 -0.0903
16413W        W32547  15.168  13.219   1.560 -0.2004 -0.0433  0.0703
16414W        W32548  10.805  13.117  16.289  0.1067 -0.1138  0.0667
16415W        W32549  11.269   4.363  16.067  0.1929  0.2659 -0.2562
16416W        W32550  15.608   9.066  15.250 -0.3312 -0.1908  0.1001
16417W        W32551  16.586  13.594   3.239 -0.2712  0.0454  0.2653
16418W        W32552   7.619  10.470   0.997 -0.0494  0.1723  0.3304
16419W        W32553  10.854   3.764  14.434 -0.0104  0.1270  0.0100
16420W        W32554  11.273   0.873   3.765 -0.0647  0.0044 -0.1216
16421W        W32555   5.832  13.545   3.210  0.1402  0.3058 -0.0555
16422W        W32556  14.372   6.024  16.559 -0.0236 -0.0421 -0.0208
16423W        W32557  15.923   9.772  11.858 -0.0222 -0.0691  0.2067
16424W        W32558  14.864  12.728   3.238 -0.3838  0.0893 -0.0636
16425W        W32559  13.785   5.036  15.933 -0.1022  0.1947  0.0199
16426W        W32560   6.870   5.334  15.140  0.3249  0.0415  0.0098
16427W        W32561   3.607  15.785   4.627  0.3060 -0.0509 -0.1636
16428W        W32562  11.683   1.704   3.457  0.2002 -0.0811 -0.1988
16429W        W32563   1.999  10.833   1.049  0.1901 -0.0581  0.1384
16430W        W32564   0.266   8.250   3.874 -0.0056  0.2561  0.0822
16431W        W32565  16.411   5.702  12.462 -0.0887 -0.0644 -0.0701
16432W        W32566   6.491  12.455   2.799 -0.0757  0.0962 -0.3410
16433W        W32567  14.271   4.036   1.163 -0.0495 -0.1579 -0.2791
16434W        W32568   0.890   3.789  15.122  0.1102 -0.1773 -0.0656
16435W        W32569   6.084   7.780  15.720  0.1926  0.0329  0.0856
16436W        W32570   1.951   2.779   1.093 -0.0920  0.0972  0.0408
16437W        W32571  12.484   7.032  11.858 -0.2122  0.0004 -0.0873
16438W        W32572   6.838   0.966   5.586  0.2237 -0.1277 -0.2073
16439W        W32573   6.580   9.229   3.065 -0.0623 -0.0763  0.2314
16440W        W32574   8.212   0.324  12.951  0.0696  0.0470  0.2754
16441W        W32575   5.910  16.761   5.850 -0.0905 -0.0191 -0.2907
16442W        W32576  14.821  12.487   6.444  0.2187 -0.0961  0.0736
16443W        W32577  11.520  13.087   6.263 -0.1084 -0.1147 -0.1707
16444W        W32578   8.051   5.649   2.763 -0.3562 -0.0284 -0.2011
16445W        W32579   2.031  10.526  12.053  0.1354 -0.1525  0.2992
16446W        W32580   5.678   1.468  14.457  0.0797 -0.1082 -0.1598
16447W        W32581  10.830   2.574   4.472 -0.0266 -0.0061  0.0342
16448W        W32582  14.261  13.066   4.911 -0.0180  0.0987  0.2119
16449W        W32583   3.282  16.761  14.840  0.0654 -0.0760  0.1707
16450W        W32584  14.564  12.002   1.897  0.0332  0.0277  0.2093
16451W        W32585   8.671  12.650  15.008  0.2312 -0.2102  0.0352
16452W        W32586   2.168   2.664  12.307  0.0759 -0.0176 -0.2806
16453W        W32587  17.378   5.738  12.229  0.0382 -0.0817  0.0101
16454W        W32588   8.899   9.428   3.183 -0.1820 -0.0024  0.1133
16455W        W32589  17.470   8.020   2.897  0.0971 -0.0978 -0.3137
16456W        W32590   8.878   9.656   4.978 -0.2465 -0.1230 -0.0827
16457W        W32591  14.455   0.771   4.484 -0.0837  0.0485 -0.1050
16458W        W32592  12.284   0.992   2.714  0.1404 -0.1076 -0.0248
16459W        W32593   6.867  15.468   1.045  0.0416 -0.2133 -0.4368
16460W        W32594  13.268  15.949  16.614 -0.2447  0.2458 -0.1907
16461W        W32595  17.295   1.576   3.926  0.0172 -0.3667 -0.4961
16462W        W32596  15.610  15.035   4.000  0.0443  0.2411 -0.0123
16463W        W32597  12.667  14.945   3.781  0.0649 -0.0286  0.0019
16464W        W32598  15.931   0.698   1.887 -0.1258 -0.0773  0.1928
16465W        W32599   9.108   8.583  16.770  0.1869  0.3481  0.3578
16466W        W32600  14.641   9.930   0.060 -0.2500  0.0293 -0.0039
16467W        W32601  15.844   9.336   1.723 -0.1256 -0.0233 -0.2923
16468W        W32602  11.994  10.973  15.822 -0.0592 -0.1564 -0.1359
16469W        W32603   6.011   8.161  13.887  0.3635 -0.4935  0.0524
16470W        W32604  17.223  14.923  16.800 -0.0692 -0.1683 -0.1652
16471W        W32605  16.592   4.795  12.064  0.0337  0.0393 -0.2534
16472W        W32606  11.701   3.925   0.616  0.0361 -0.1057 -0.1028
16473W        W32607  17.156  16.689  14.530 -0.0080  0.0281  0.0701
16474W        W32608  14.670   7.545   0.401  0.1078 -0.1052 -0.1649
16475W        W32609   6.021  11.099  15.462 -0.1461  0.1088 -0.3139
16476W        W32610  15.310   6.885   0.183 -0.0876 -0.3626  0.3477
16477W        W32611  10.097  13.159   3.980  0.0361  0.1015 -0.0669
16478W        W32612   3.257   5.626  14.817 -0.2212 -0.4990 -0.0865
16479W        W32613   1.450   8.923  14.475 -0.4807 -0.0961 -0.1211
16480W        W32614   8.026   5.709   3.920 -0.1884  0.1159 -0.3201
16481W        W32615  14.864   1.408   1.804 -0.1921 -0.0467  0.0003
16482W        W32616   6.766  14.043   1.010  0.0763  0.0000 -0.0437
16483W        W32617  16.252   8.687   0.343 -0.0265  0.3467  0.1784
16484W        W32618   3.376   2.966   3.615  0.2580  0.3493 -0.0623
16485W        W32619   7.504  16.999  12.212 -0.1583  0.0948  0.2563
16486W        W32620   1.203   0.556   6.323  0.0758  0.2472  0.1980
16487W        W32621  14.338   3.237   3.706 -0.0431 -0.2672  0.2104
16488W        W32622   6.879   7.534  15.353 -0.1975 -0.0769 -0.0501
16489W        W32623   7.516   5.207   3.238 -0.3328 -0.0989 -0.1511
16490W        W32624  16.603   9.219  13.340  0.1162 -0.0800 -0.2347
16491W        W32625   8.073   6.420  15.250  0.1700  0.0318  0.2086
16492W        W32626  11.297  17.457  16.664  0.0698 -0.1684  0.1241
16493W        W32627  11.369   1.082   1.203 -0.1422 -0.1233 -0.0160
16494W        W32628  10.769  17.394   1.088 -0.3456 -0.1212 -0.1504
16495W        W32629  16.889  15.614   4.621 -0.0122  0.0227 -0.0293
16496W        W32630  10.659  17.488   0.147 -0.3421  0.0183 -0.1209
16497W        W32631  16.323   2.460  15.976  0.0722 -0.0138  0.1430
16498W        W32632   2.326   5.023   0.633  0.2004  0.0481 -0.1315
16499W        W32633  11.893  11.629   5.857 -0.0802 -0.2013  0.3046
16500W        W32634   9.518   8.502  15.579  0.1029 -0.0938  0.0491
16501W        W32635  11.592   7.050   0.276  0.0104  0.0574 -0.3335
16502W        W32636  15.696   9.994  11.464 -0.1232 -0.1718 -0.1151
16503W        W32637   2.935  10.666   2.361  0.1865 -0.2709 -0.2035
16504W        W32638   0.750  13.068  16.627  0.0081  0.0896 -0.2231
16505W        W32639   0.265  11.285  15.113 -0.0369  0.0446 -0.1466
16506W        W32640   5.297   8.560   1.971 -0.0295 -0.1531  0.1112
16507W        W32641   3.968   5.288  12.718 -0.2593 -0.1990  0.1249
16508W        W32642   0.916  10.945   3.257 -0.2247 -0.1124  0.1876
16509W        W32643   8.003   0.597  11.986  0.1017 -0.2779  0.1132
16510W        W32644   9.854   6.527  15.506 -0.4811  0.1212 -0.0879
16511W        W32645   4.275   1.521  16.159 -0.0255  0.4660 -0.1162
16512W        W32646  15.459   8.229  13.819  0.0550 -0.0111  0.0358
16513W        W32647   0.289   8.700  11.321 -0.0748  0.0538  0.1480
16514W        W32648   8.337   6.553   3.236  0.0267 -0.1132 -0.0226
16515W        W32649   4.470   1.679   2.275  0.1064  0.2571  0.0165
16516W        W32650   6.557   1.884   4.755 -0.1708  0.4456 -0.1692
16517W        W32651  11.097   5.773  14.495  0.1499 -0.2286  0.0551
16518W        W32652   3.350  10.641  13.449 -0.1510 -0.0562 -0.0000
16519W        W32653   0.303   4.330   1.058  0.5453 -0.0496  0.0456
16520W        W32654  14.614   0.544  17.114 -0.0073 -0.0401  0.5517
16521W        W32655   2.313  15.005   0.067  0.2590 -0.0380 -0.1538
16522W        W32656  13.311   7.522  11.628  0.2632  0.0122 -0.0097
16523W        W32657  11.452   4.942   2.163 -0.1893 -0.1625  0.0675
16524W        W32658   7.603   9.670  15.128  0.2519  0.2099 -0.4524
16525W        W32659   0.009  11.302  16.839 -0.1295  0.2395 -0.1121
16526W        W32660  12.276   3.265  13.549  0.1959  0.1625 -0.0796
16527W        W32661   1.471   3.855  13.318 -0.1400  0.0578 -0.0226
16528W        W32662   9.678   7.654  14.780  0.0862 -0.0450 -0.2964
16529W        W32663   9.288  16.099  13.447  0.0182 -0.4128 -0.0288
16530W        W32664   1.929   9.054   2.567 -0.0320 -0.1377  0.1018
16531W        W32665  12.773   5.728   4.298 -0.0701 -0.0540 -0.0664
16532W        W32666   0.138  16.275  15.851  0.3308 -0.3733 -0.1926
16533W        W32667   5.718   9.760   6.152 -0.0555 -0.2119  0.1535
16534W        W32668   8.712   7.845  13.144  0.2671  0.2319  0.0158
16535W        W32669   9.462   1.126   2.996  0.1400 -0.0041 -0.0858
16536W        W32670  10.144  13.095  14.040  0.2931  0.3625  0.2566
16537W        W32671  16.162   5.463   5.508 -0.3539 -0.1182 -0.2030
16538W        W32672   5.177  11.608   5.385 -0.2886  0.0583  0.0671
16539W        W32673   5.562   6.470  14.553  0.0386  0.0794 -0.1721
16540W        W32674  16.563  11.585  13.741 -0.0424  0.0965  0.2553
16541W        W32675   4.061  11.726  14.769  0.2162  0.2843  0.0477
16542W        W32676   6.801   4.370   0.897  0.0996  0.0117  0.1134
16543W        W32677  14.165   8.516   4.662  0.1555  0.1031  0.2396
16544W        W32678   8.151  15.355   4.969  0.2093  0.1604  0.2759
16545W        W32679  16.627   1.856   2.154  0.0581  0.2204  0.3718
16546W        W32680   6.399  12.818   2.440 -0.1280  0.1972  0.0322
16547W        W32681   0.911   8.681  13.327 -0.0199  0.0210 -0.1888
16548W        W32682  12.215  10.689   4.641 -0.3353 -0.0234  0.0980
16549W        W32683   6.091  11.852   4.313 -0.2302  0.0048  0.2856
16550W        W32684   3.766  12.158  14.853 -0.0290 -0.2190  0.1711
16551W        W32685  14.019   3.133  11.991 -0.0029 -0.2076 -0.0609
16552W        W32686   6.703   6.078   2.837  0.0600 -0.0794  0.1869
16553W        W32687   7.611   6.868   1.255  0.1606 -0.1419 -0.2629
16554W        W32688   8.580  12.867   4.487  0.1737  0.0482 -0.1710
16555W        W32689  12.215  14.863  13.018 -0.1525 -0.2694  0.0708
16556W        W32690   7.019   3.021  15.515 -0.1714  0.1737  0.0304
16557W        W32691   1.947  10.000  14.312  0.0319  0.1108  0.0710
16558W        W32692   2.003   8.787   4.649 -0.1063  0.2152 -0.0115
16559W        W32693  16.415   8.621  11.015 -0.0845 -0.0434  0.1065
16560W        W32694   6.921   8.981  12.878 -0.1011  0.2420  0.4217
16561W        W32695   3.201  10.075  13.094 -0.1979  0.0575  0.3301
16562W        W32696   2.244   9.816  15.150 -0.0607  0.1262 -0.0978
16563W        W32697   6.412   8.422   2.883 -0.1251  0.1257 -0.4083
16564W        W32698   9.216   4.276   3.338  0.0384 -0.0584 -0.0859
16565W        W32699   5.232  15.636   4.080 -0.3933  0.0593  0.1774
16566W        W32700  12.989  16.430  12.849 -0.2936  0.0107 -0.0468
16567W        W32701   7.945   4.567  14.765  0.0421  0.0396  0.1287
16568W        W32702   5.278  12.063  16.692 -0.0490 -0.0398  0.2014
16569W        W32703   7.266   0.103   3.786 -0.0667 -0.0367  0.1310
16570W        W32704  16.287   9.765   3.740  0.0285 -0.2842 -0.2926
16571W        W32705  17.298  12.842  12.694  0.1107 -0.2422 -0.0181
16572W        W32706   9.069   0.720  13.831 -0.2643 -0.1726  0.4259
16573W        W32707  14.588  11.529  12.986  0.3135 -0.0830  0.0766
16574W        W32708   0.547  10.458  15.042  0.1449 -0.2116 -0.0041
16575W        W32709   4.298   5.067   2.762 -0.3020 -0.1800  0.1274
16576W        W32710   1.575   6.300   2.524 -0.0041 -0.0322 -0.1982
16577W        W32711   6.190  16.063  15.821  0.0588 -0.0066 -0.3000
16578W        W32712   3.308   0.802   3.890 -0.0882  0.1925 -0.1500
16579W        W32713   1.929   6.499   2.873 -0.2342  0.2336  0.0643
16580W        W32714  12.904  12.952  16.655 -0.3315 -0.1941 -0.1050
16581W        W32715  11.136  16.521  12.714  0.0049  0.2169 -0.1406
16582W        W32716   3.449  16.562  16.780 -0.1709 -0.0396  0.1518
16583W        W32717   6.882  13.097  15.940  0.0461  0.1561  0.0489
16584W        W32718   8.362  17.230  15.293  0.1377 -0.0903  0.1121
16585W        W32719   0.852  11.415  15.221 -0.0549 -0.2219  0.3103
16586W        W32720  16.764   4.230   2.686 -0.3183  0.0532  0.2809
16587W        W32721  10.757  15.682  16.118  0.0092 -0.5075  0.4192
16588W        W32722   4.004   4.160  16.808  0.4523  0.0133 -0.0700
16589W        W32723   9.716   6.477   3.406 -0.4053  0.4636 -0.1431
16590W        W32724  10.581  12.246  16.555  0.0937 -0.1997 -0.1049
16591W        W32725   6.033  17.385  13.984 -0.2400 -0.0372  0.1594
16592W        W32726  12.779   7.890  14.651 -0.0254 -0.0638 -0.0366
16593W        W32727  15.207   8.173  13.414  0.4677  0.1469  0.0334
16594W        W32728   4.822  15.467  15.701 -0.0162 -0.1610  0.2363
16595W        W32729   1.069  11.361  16.731 -0.0038  0.1079  0.0110
16596W        W32730  13.499   4.076  14.037 -0.2657  0.0621 -0.0340
16597W        W32731   4.168  13.830   3.357  0.1964  0.2137  0.3577
16598W        W32732  14.160   1.876  15.977 -0.1394  0.1707 -0.3189
16599W        W32733   6.083  17.079  15.010  0.1903  0.0968 -0.3376
16600W        W32734  10.108  16.395  13.566  0.0529 -0.2033  0.1390
16601W        W32735   0.164   1.166   4.002 -0.1112 -0.1872 -0.1049
16602W        W32736  17.606  11.704  15.076 -0.0019 -0.0056  0.2174
16603W        W32737   8.009  10.000   0.113 -0.0194  0.2116 -0.2642
16604W        W32738   8.907   1.770  16.313  0.1635  0.0124  0.2478
16605W        W32739   2.149  15.146   4.892  0.0331  0.1494 -0.0642
16606W        W32740  12.788   0.588   5.483  0.3230  0.1774 -0.1402
16607W        W32741   2.264   8.228  11.923 -0.1621  0.0461  0.0222
16608W        W32742   5.948  10.396   0.897  0.2388  0.0898 -0.0531
16609W        W32743   0.249   7.964  13.407 -0.0624  0.0649  0.2113
16610W        W32744  14.452  12.400  15.381 -0.1195 -0.1775  0.2621
16611W        W32745   0.879  14.259  16.086 -0.1531  0.0018 -0.2496
16612W        W32746  11.059  16.481  15.578 -0.3903 -0.3478  0.1762
16613W        W32747  16.456  13.467   1.300 -0.1033  0.0446 -0.1286
16614W        W32748   0.933  11.832  11.991  0.0079  0.3677 -0.0399
16615W        W32749  11.092   4.157  13.263  0.1318  0.1252  0.1996
16616W        W32750   9.238   9.713  16.879  0.1402 -0.1251 -0.0735
16617W        W32751   7.663   2.852  12.505 -0.1948  0.2006  0.1929
16618W        W32752  11.438   1.208  15.707  0.0707  0.1284  0.2901
16619W        W32753  14.770  11.492   5.450  0.2010 -0.0134 -0.1475
16620W        W32754   5.781   5.156   2.594 -0.2219  0.1347  0.1183
16621W        W32755   7.881  12.716   5.028 -0.2491 -0.4328  0.0616
16622W        W32756  11.980  16.904  16.143 -0.0052 -0.0589  0.1551
16623W        W32757  15.947  12.952   4.556 -0.2129 -0.2086  0.0517
16624W        W32758  10.644  15.200  15.341  0.3797  0.0286  0.2428
16625W        W32759  12.586   8.223  11.798  0.1037 -0.1039 -0.1726
16626W        W32760   4.116   7.741   0.188 -0.0682 -0.0100  0.4186
16627W        W32761   3.182  14.780   5.115 -0.1327  0.1160 -0.0007
16628W        W32762   7.990   9.142   2.411 -0.1937 -0.0564  0.1948
16629W        W32763  13.939  13.692  12.102 -0.0395 -0.0059 -0.1914
16630W        W32764   7.457   6.882  15.751 -0.3838 -0.2606 -0.0727
16631W        W32765   2.836  11.692  15.614  0.0530 -0.0005  0.0003
16632W        W32766  13.602  10.382  11.598  0.0108  0.0491  0.0701
16633W        W32767  16.968  15.338   2.548  0.3592 -0.0600 -0.3346
16634W        W32768  13.190  15.403   4.836 -0.0387  0.0417  0.0770
16635W        W32769   5.724   8.607   0.413 -0.2357  0.4315  0.0118
16636W        W32770  13.797  16.523  13.249 -0.0191 -0.1211  0.2039
16637W        W32771  10.286   5.260   1.237  0.0779 -0.3299  0.0733
16638W        W32772   3.799   3.592  12.562  0.3121  0.2768 -0.1164
16639W        W32773   0.872  11.468   2.388 -0.2740  0.0493 -0.1003
16640W        W32774   2.118   9.820   0.802 -0.0723  0.0379 -0.1882
16641W        W32775   7.479   8.539   2.179 -0.0224  0.0454 -0.0034
16642W        W32776  12.971   9.790  13.690  0.0186  0.3625  0.2118
16643W        W32777   8.681  16.048   4.705 -0.2076 -0.1167 -0.0047
16644W        W32778   3.929   1.860   4.381 -0.0135  0.1971 -0.1177
16645W        W32779   6.722  16.020   4.716 -0.1880  0.0811  0.1248
16646W        W32780  14.900   7.305  14.685 -0.2094 -0.0326  0.1326
16647W        W32781   5.345   2.851  13.149  0.0620  0.1622 -0.1443
16648W        W32782   5.278   8.343  11.551  0.1131 -0.2828  0.0244
16649W        W32783   2.699  13.672  15.269 -0.1080 -0.0806  0.0832
16650W        W32784   4.220  13.080  17.150 -0.0736 -0.0761 -0.0254
16651W        W32785   3.502   5.846   1.461 -0.0933  0.7191  0.0791
16652W        W32786  16.439   7.732   0.172 -0.0880 -0.0723 -0.1253
16653W        W32787   0.862  14.589   4.869  0.3423  0.0058  0.1519
16654W        W32788  15.414  17.267  12.132  0.0246 -0.4166 -0.0836
16655W        W32789   8.022   6.651  11.752 -0.3183 -0.3133 -0.3062
16656W        W32790   5.196   8.923   3.983 -0.0933 -0.4002 -0.0640
16657W        W32791   4.838  13.705  16.394  0.3244 -0.0298 -0.1460
16658W        W32792  11.796  10.338   4.592  0.2093  0.2175  0.0928
16659W        W32793   9.458   6.339   4.915  0.1618 -0.0807 -0.3365
16660W        W32794   3.758  14.764   1.109  0.0301 -0.1275 -0.0265
16661W        W32795   8.033   9.456  12.496 -0.0822  0.2104 -0.1381
16662W        W32796   7.743  14.298  14.813  0.0725 -0.0310 -0.0969
16663W        W32797   0.666   1.609   6.148 -0.1863  0.2057  0.0608
16664W        W32798   6.894   0.234   4.430 -0.1357  0.0659  0.1593
16665W        W32799  16.427   6.901  14.529  0.0103 -0.2449 -0.2352
16666W        W32800   8.825  12.115  14.874  0.4050  0.0101 -0.1256
16667W        W32801   9.484  16.055   2.400 -0.0995  0.1492  0.2486
16668W        W32802  16.779  12.665   0.223 -0.0436  0.1472 -0.0658
16669W        W32803   8.633  16.165  14.712  0.1464 -0.0969  0.0809
16670W        W32804   1.165  10.730  15.972 -0.0547 -0.0063  0.0532
16671W        W32805   0.090  15.391  14.835  0.3539  0.0426  0.0127
16672W        W32806   4.548  11.867   0.720  0.1263  0.3107  0.0832
16673W        W32807  14.642   4.097   1.555 -0.1334  0.2214 -0.0096
16674W        W32808   2.165   7.002  13.275  0.0371  0.1885  0.1726
16675W        W32809   4.519  13.465  17.023 -0.1240  0.2285  0.0388
16676W        W32810  12.694   5.579  15.773  0.2327  0.1986 -0.2382
16677W        W32811   7.078   9.646   2.391  0.0493 -0.2150  0.0240
16678W        W32812  14.287   9.351  14.193  0.1571 -0.0607 -0.1990
16679W        W32813  10.790  15.922   4.716  0.2622  0.2181  0.2094
16680W        W32814  12.490   7.049   5.033  0.1885 -0.1183 -0.0334
16681W        W32815  12.441   0.598   5.893  0.0271  0.0372 -0.0403
16682W        W32816   2.540  11.416   2.002 -0.0726 -0.0570 -0.2097
16683W        W32817   6.619  11.982   3.644  0.3388  0.0869  0.1796
16684W        W32818   2.172   0.950  11.155  0.2227 -0.0695  0.0363
16685W        W32819   2.668   5.315   1.320  0.3421  0.1313  0.1869
16686W        W32820  15.023   0.727  14.201  0.0531 -0.3814 -0.0530
16687W        W32821   6.192  14.303  14.951  0.2584 -0.2229  0.0553
16688W        W32822   8.343   7.799   1.997  0.2767  0.0353 -0.0618
16689W        W32823  15.796  13.930  12.377 -0.1039 -0.1641  0.3309
16690W        W32824   6.622   5.276   4.836  0.1261 -0.0020  0.0089
16691W        W32825   7.019  12.264  13.881 -0.1824 -0.0354  0.2985
16692W        W32826   4.584   6.060  14.809  0.3490 -0.1583  0.1233
16693W        W32827   2.082  13.534   0.274 -0.1150 -0.2392 -0.0587
16694W        W32828  11.993  16.385   0.406  0.5494  0.2229 -0.3365
16695W        W32829   2.100  12.536   0.890  0.3231  0.2684 -0.0213
16696W        W32830  17.457  12.856   0.824 -0.0246 -0.1121 -0.0452
16697W        W32831   7.374   6.481   0.361  0.1661  0.0322  0.2203
16698W        W32832   4.706   1.330   5.055  0.2357 -0.0639 -0.0693
16699W        W32833   3.897   6.953   1.719  0.3710 -0.0392 -0.0207
16700W        W32834   8.131  14.908  16.784 -0.2074 -0.0439 -0.0902
16701W        W32835  10.017   2.958  16.880  0.3453 -0.0486  0.0869
16702W        W32836   4.410   5.306   0.797 -0.1326  0.0010  0.2060
16703W        W32837  11.791  12.005   2.749  0.1030  0.0021 -0.0092
16704W        W32838  13.616   3.438  12.166 -0.2360  0.3286  0.2168
16705W        W32839   5.617   3.260  15.153  0.0344 -0.0398  0.0306
16706W        W32840   4.277   3.520   1.241  0.3397  0.0820 -0.0041
16707W        W32841  12.261  12.565   5.800 -0.3069  0.1344  0.0962
16708W        W32842   1.030   8.548  16.684 -0.0064  0.1690 -0.3324
16709W        W32843   4.098  14.070  16.739 -0.1326  0.0768  0.0688
16710W        W32844  15.728  15.094  13.048 -0.0755  0.4320  0.1000
16711W        W32845  17.604   8.008   5.395 -0.3326  0.0850  0.3665
16712W        W32846   6.685   9.322  12.131 -0.1553 -0.1608  0.2688
16713W        W32847   3.617  16.124  12.776 -0.2187  0.2614 -0.0261
16714W        W32848   9.553   8.784   3.154 -0.2591 -0.1472  0.3679
16715W        W32849   5.995   7.205   4.547 -0.0225 -0.0586  0.1979
16716W        W32850  17.598   2.154   6.288 -0.0274 -0.1471 -0.0914
16717W        W32851   4.322   3.756   2.882  0.3283 -0.0465 -0.0734
16718W        W32852   4.951  15.870   5.924  0.2040 -0.0644 -0.2305
16719W        W32853   2.360  11.642  15.172  0.1807 -0.1366 -0.1920
16720W        W32854  14.966  12.298  17.064 -0.3088  0.0694  0.0032
16721W        W32855  14.005  17.647   2.782  0.0026  0.2084  0.0583
16722W        W32856   6.380   9.340   4.482  0.2291 -0.0049  0.0957
16723W        W32857  16.776   5.202  14.555  0.0694 -0.1469 -0.0021
16724W        W32858   9.106   3.585   5.871  0.3530 -0.2340 -0.0013
16725W        W32859  17.092  10.752  17.139 -0.1456 -0.0883  0.1883
16726W        W32860   4.967  15.274   0.481 -0.4223  0.0983  0.0611
16727W        W32861  12.500  15.345  14.268  0.3771 -0.2978  0.1257
16728W        W32862  13.077  12.629  14.320  0.0988  0.2689 -0.0119
16729W        W32863   9.643   8.277   3.275 -0.0424 -0.2047  0.1721
16730W        W32864  10.372   7.979  12.130  0.1256 -0.0742 -0.2309
16731W        W32865  15.561   2.382  15.225  0.2737  0.1219 -0.1466
16732W        W32866  15.220   3.122  16.997 -0.0726  0.0436 -0.1619
16733W        W32867   8.722  13.906  12.025 -0.1761 -0.1375  0.0042
16734W        W32868  15.952  16.984   0.546  0.0749 -0.2931 -0.1776
16735W        W32869  16.579   0.379   6.017  0.0771 -0.1127 -0.2932
16736W        W32870  11.429  15.249   1.604  0.3613 -0.0127 -0.4328
16737W        W32871  11.284  11.894   4.626  0.2328 -0.0182  0.0590
16738W        W32872   8.710   1.619   4.531 -0.3263 -0.0935  0.0969
16739W        W32873   4.469   6.937  12.532 -0.1010  0.2121  0.0643
16740W        W32874  13.039   7.217   1.130 -0.0250  0.4009  0.0940
16741W        W32875   0.355   2.028  12.610  0.1069  0.0829 -0.3386
16742W        W32876  15.551  14.973  11.711 -0.0166 -0.0487 -0.0681
16743W        W32877  11.983  11.514   2.453 -0.1227  0.0455 -0.0545
16744W        W32878   2.044   8.041  14.571 -0.1738  0.0358 -0.1189
16745W        W32879   3.283   5.873  11.644 -0.1539 -0.2157  0.2207
16746W        W32880  10.283   9.970   2.217 -0.0609  0.1768  0.0747
16747W        W32881   9.080   1.463   2.712 -0.0485 -0.1853 -0.1492
16748W        W32882  14.780   2.908  17.149 -0.0331  0.0432 -0.1383
16749W        W32883   2.828   7.082  16.196 -0.1731  0.1561  0.0767
16750W        W32884  16.753  16.841   3.882 -0.2635 -0.1754 -0.3866
16751W        W32885  12.823  13.554   6.266 -0.0774 -0.0735 -0.1410
16752W        W32886  15.195   9.662   4.516  0.2386  0.0994 -0.3448
16753W        W32887   8.017  15.709  16.995  0.0785 -0.0563 -0.0490
16754W        W32888   3.978  16.539   3.552 -0.0250 -0.1381  0.4091
16755W        W32889   3.649  15.255  12.151 -0.2030 -0.0262 -0.2475
16756W        W32890  12.603  14.608  16.572 -0.0710 -0.1602 -0.0910
16757W        W32891  15.136   2.452   4.470  0.0135  0.1798 -0.0156
16758W        W32892   3.752   8.514  13.276  0.0063 -0.1804  0.2080
16759W        W32893   7.100   0.139   3.188  0.1243 -0.1825 -0.2898
16760W        W32894   2.633  10.189   4.640  0.1037  0.0370 -0.0599
16761W        W32895  13.057   6.079  11.627 -0.1277  0.0141 -0.1502
16762W        W32896   5.090  15.783   0.248  0.2404  0.1943  0.4089
16763W        W32897   2.612  14.932   5.579  0.1165 -0.2047  0.0483
16764W        W32898  10.529   2.202   5.335 -0.3252 -0.0738  0.0828
16765W        W32899  10.247  13.927  16.397 -0.1588  0.0650 -0.0469
16766W        W32900   7.856   5.235  16.228 -0.0613  0.0936 -0.0862
16767W        W32901   1.234   6.048   3.262 -0.1094 -0.1121  0.0762
16768W        W32902   2.458  13.550  17.067 -0.3759 -0.0449  0.1344
16769W        W32903  11.196   8.323   1.473 -0.1294 -0.1106 -0.1060
16770W        W32904   9.350   5.202   3.771 -0.0958  0.2244  0.2434
16771W        W32905   3.345  11.568   2.421  0.1253  0.3932 -0.2379
16772W        W32906   5.942   5.602   5.770  0.2875  0.0880 -0.0509
16773W        W32907  13.290   1.520   2.069  0.2179  0.0823  0.0264
16774W        W32908  13.244  16.293  13.804  0.4878  0.1031 -0.1576
16775W        W32909  13.484   4.610  16.099  0.2246 -0.0108  0.0074
16776W        W32910  13.896   4.554   5.619 -0.0612 -0.0857  0.0491
16777W        W32911   9.081   4.564  15.631  0.0620  0.0246  0.2795
16778W        W32912   4.078   0.357   2.238  0.1252 -0.0953 -0.1682
16779W        W32913   1.232   2.190  15.675 -0.1091  0.1396 -0.1331
16780W        W32914   4.441   3.305   5.392  0.3198  0.1099  0.1285
16781W        W32915  15.745   4.562   5.750  0.0371  0.1909  0.0182
16782W        W32916   9.811  11.541   4.646 -0.1405 -0.0067 -0.1362
16783W        W32917   1.470   2.826  15.537  0.2602 -0.0721 -0.3945
16784W        W32918  17.168   9.303   2.729  0.1799  0.1498  0.1896
16785W        W32919   3.498   8.454  16.712  0.0637  0.0445  0.0499
16786W        W32920  12.021   3.935   3.924  0.1475 -0.0595 -0.1370
16787W        W32921  15.025  17.288   5.999 -0.1822 -0.0084  0.1574
16788W        W32922   5.048  10.552   1.038 -0.4065  0.2121  0.0684
16789W        W32923   3.902   1.232  13.870  0.1030  0.0146 -0.1212
16790W        W32924   4.316   1.568   1.423  0.2577 -0.1083  0.0813
16791W        W32925   2.462  14.720  16.866  0.2488  0.2640  0.1082
16792W        W32926   4.986   1.356  13.499 -0.1592  0.1048 -0.1536
16793W        W32927   5.851  14.561  13.080  0.2402  0.0807 -0.2654
16794W        W32928   2.157  15.717   0.138 -0.2362  0.1191 -0.1751
16795W        W32929  10.412  14.214  14.337 -0.1468 -0.1806 -0.1750
16796W        W32930   6.019   6.422  11.748  0.1198  0.1553  0.1518
16797W        W32931   5.976   1.242  12.161 -0.0667 -0.1196  0.1437
16798W        W32932   3.596   1.574  15.114  0.2007  0.1272 -0.3246
16799W        W32933   9.387  11.772   3.314  0.0857 -0.0020 -0.3681
16800W        W32934  14.065   5.614  16.712  0.0257 -0.0055 -0.1568
16801W        W32935  13.664   8.904  13.625  0.0963  0.1304 -0.3429
16802W        W32936  12.514   2.536   2.592  0.0156 -0.2717 -0.1686
16803W        W32937  17.621   2.143  16.067 -0.0001 -0.3522 -0.2551
16804W        W32938   6.143   7.978  13.452  0.1161 -0.1248  0.0932
16805W        W32939  15.550  15.966   4.139  0.3315  0.2554 -0.1166
16806W        W32940  10.355  16.745   0.826 -0.1474 -0.4487 -0.1794
16807W        W32941  13.957  11.400   2.201 -0.1951 -0.1408  0.1589
16808W        W32942  13.816   8.941  15.884 -0.0120 -0.4989  0.0869
16809W        W32943   3.847   8.750  17.039 -0.1451 -0.2018  0.1439
16810W        W32944   2.082  10.967   2.595 -0.0857 -0.4086 -0.3287
16811W        W32945  16.310  15.699   5.915 -0.2791  0.2910  0.0125
16812W        W32946   0.687  11.888   0.718 -0.1321  0.1755  0.1428
16813W        W32947   3.340  13.824   4.507 -0.2841 -0.1796 -0.0999
16814W        W32948   2.142  14.993   5.499  0.4073 -0.1219  0.1980
16815W        W32949  12.527   9.088   1.327  0.2328 -0.1891 -0.0139
16816W        W32950   9.061   3.225   3.431 -0.0997  0.1076  0.1756
16817W        W32951  16.848   5.864  14.581 -0.0456 -0.0046 -0.1394
16818W        W32952  13.581   0.996  15.675 -0.0449  0.2209 -0.0739
16819W        W32953   3.261   4.659  13.840  0.1412  0.0305  0.0799
16820W        W32954   7.474  15.226   1.825 -0.3522 -0.2267 -0.0480
16821W        W32955  10.904   8.675  13.316 -0.2274 -0.2335  0.1036
16822W        W32956   4.308  17.178   2.438 -0.0316 -0.1099  0.2585
16823W        W32957   7.880   6.996  14.952 -0.0758  0.1563 -0.2856
16824W        W32958  16.775  11.894  13.316  0.4048  0.2483  0.1912
16825W        W32959  13.943  17.637  16.003 -0.0291  0.0774  0.4012
16826W        W32960   1.604   7.390   4.908  0.0204  0.0869 -0.0271
16827W        W32961  14.529   8.435  15.644 -0.2568 -0.0538  0.0172
16828W        W32962   3.889  15.168  14.863 -0.2876 -0.2170  0.1599
16829W        W32963   1.575  17.061  16.051  0.1401 -0.0174 -0.0595
16830W        W32964   9.289   7.279  13.335  0.0288  0.4431  0.2218
16831W        W32965   4.000  15.760  14.157 -0.0092 -0.1889 -0.0532
16832W        W32966   3.337  14.873  12.372 -0.0383  0.0506 -0.1231
16833W        W32967   6.826   0.143   0.946 -0.2566 -0.0704 -0.0655
16834W        W32968   0.274  13.985   0.102  0.0093  0.1040  0.0193
16835W        W32969  15.619   9.372  12.141  0.1567  0.0462 -0.0929
16836W        W32970   9.087   7.451  16.252 -0.2937 -0.0693 -0.1005
16837W        W32971   5.156  10.933   0.692  0.1319  0.0827  0.0067
16838W        W32972   2.858  15.536   3.786 -0.1547  0.1015  0.0125
16839W        W32973   6.608   8.433   4.768 -0.0617  0.0412  0.0029
16840W        W32974  14.431  13.581  14.852  0.1780 -0.1266  0.0411
16841W        W32975   8.169   2.344   3.315  0.2160  0.0307  0.0567
16842W        W32976   6.618  14.928  15.704  0.0579 -0.1124 -0.2799
16843W        W32977   5.183  10.059  13.657  0.0953 -0.0659  0.4157
16844W        W32978   1.906  15.485   0.884 -0.0885 -0.2385 -0.0052
16845W        W32979  15.313  16.893   3.830  0.3165  0.1489  0.1228
16846W        W32980   1.604   4.092  12.780 -0.1013  0.2980  0.3361
16847W        W32981   7.104   0.404   1.908  0.1707 -0.1546  0.1197
16848W        W32982  12.978   8.377   2.644  0.1304  0.0493 -0.1942
16849W        W32983   3.532  15.292  14.458  0.0500  0.1509 -0.1562
16850W        W32984   1.523  11.771  12.661  0.0298 -0.1987  0.1079
16851W        W32985   5.411   8.716  15.368 -0.1157 -0.0456  0.2511
16852W        W32986  14.689   9.514   2.514 -0.1092  0.3097  0.2574
16853W        W32987  11.776   0.211  12.317 -0.0111  0.2922  0.1866
16854W        W32988  11.933   8.946  11.599  0.4083 -0.1338  0.0365
16855W        W32989   7.067  11.793   2.864  0.4769  0.1919  0.2698
16856W        W32990  12.765   2.019   1.339 -0.2424  0.0685 -0.1698
16857W        W32991  13.131  14.089   4.513 -0.0019  0.0479 -0.0896
16858W        W32992   9.939   0.333  15.080 -0.1147  0.0742 -0.0445
16859W        W32993  11.412   1.966  12.219 -0.1475 -0.3260 -0.1952
16860W        W32994   9.686   2.589  14.083 -0.1206 -0.3758  0.2516
16861W        W32995   4.030  10.002  13.071  0.3269  0.1269 -0.0223
16862W        W32996   6.275  15.215  14.800 -0.1839  0.4176 -0.0516
16863W        W32997  10.738   1.334   2.333  0.6011 -0.1758  0.0479
16864W        W32998  12.780   7.336  13.380 -0.0867 -0.1129 -0.1105
16865W        W32999   1.761   0.915  14.017  0.0296  0.0330  0.3371
16866W        W33000  17.610  17.261   1.525 -0.0769 -0.1217 -0.0561
16867W        W33001  12.080   0.655  16.576 -0.0564  0.0506 -0.3100
16868W        W33002   5.444  12.802  14.498 -0.1111  0.1198  0.1762
16869W        W33003   8.595   1.560   2.855 -0.1370  0.0741 -0.2495
16870W        W33004   6.652  16.928  12.917 -0.0892 -0.0081  0.1678
16871W        W33005   1.645   3.902   5.491  0.1224  0.0475  0.2081
16872W        W33006   5.358   3.838  13.970  0.1735  0.3544  0.1190
16873W        W33007  13.745  11.343   3.315 -0.0190 -0.3015 -0.1110
16874W        W33008   1.462   2.549   5.354  0.1981 -0.0650  0.0345
16875W        W33009   2.555  17.173   3.638  0.0652 -0.1853  0.0709
16876W        W33010   9.432   5.985   2.100  0.0980  0.1691 -0.0708
16877W        W33011  10.022  11.813  14.146 -0.1022  0.1653 -0.1137
16878W        W33012   5.466   5.242  11.688  0.1486 -0.0051 -0.0157
16879W        W33013  10.672  12.616   4.693  0.1146 -0.0163 -0.0711
16880W        W33014  13.600  15.784   4.977 -0.0532 -0.0653  0.0052
16881W        W33015  13.265   8.403  13.464 -0.1187 -0.1408 -0.1641
16882W        W33016   5.717  16.940  15.796  0.2516 -0.1877  0.2896
16883W        W33017  12.914   7.545  13.847 -0.0796 -0.3095  0.0207
16884W        W33018   4.729  14.177   0.222 -0.2417 -0.1986 -0.2031
16885W        W33019   0.226  11.853  12.646  0.6048  0.0532 -0.1366
16886W        W33020   5.883   9.420  14.932 -0.1579 -0.3013 -0.0099
16887W        W33021  10.143  14.076   4.187  0.3414 -0.0199  0.1042
16888W        W33022   2.082   1.475   5.644  0.0691  0.0046 -0.2846
16889W        W33023   4.582   9.096   1.159 -0.1359 -0.0143  0.0395
16890W        W33024   6.988   3.392   0.744 -0.1707  0.2555 -0.1929
16891W        W33025  10.625  14.980  17.087 -0.0792  0.0854 -0.2763
16892W        W33026  13.079  14.883   3.104 -0.1917 -0.0172 -0.2592
16893W        W33027   5.933   9.985  14.834 -0.1911  0.1605 -0.0790
16894W        W33028  14.941  13.626   1.159 -0.0922 -0.1232 -0.3558
16895W        W33029   5.882   6.748  13.634 -0.0130 -0.0820 -0.1811
16896W        W33030  14.682   2.197   4.347  0.1707  0.0271 -0.1891
16897W        W33031   1.381   2.092   0.969 -0.3510 -0.0548 -0.3125
16898W        W33032  10.721  12.864  13.714 -0.0164 -0.2813 -0.2964
16899W        W33033  14.848  16.732   1.235  0.1660  0.1797  0.1223
16900W        W33034  14.280   9.473   0.751  0.1514  0.0827 -0.0900
16901W        W33035  13.063   4.047  11.889 -0.0401 -0.0397 -0.1962
16902W        W33036  13.754   6.620  17.114  0.1907 -0.0784 -0.0511
16903W        W33037   9.892  16.677  16.169 -0.3034  0.1012  0.2715
16904W        W33038   7.205  12.654   1.723 -0.0583 -0.2474  0.3134
16905W        W33039   7.878   8.596   2.517  0.1652 -0.1890  0.0390
16906W        W33040   1.423  14.932   2.043 -0.1228 -0.0285  0.0779
16907W        W33041  12.623  15.322   4.174 -0.1190 -0.3910  0.1520
16908W        W33042  12.509   0.597  14.561 -0.3174 -0.0133  0.1837
16909W        W33043   8.004   6.679   4.360 -0.2016  0.4384  0.2294
16910W        W33044  10.111  15.953  11.892 -0.0565 -0.0520  0.0090
16911W        W33045  14.227  11.611   3.785  0.0548  0.1654 -0.1262
16912W        W33046   6.439  15.304  13.831 -0.3662  0.0262 -0.0033
16913W        W33047   8.964   2.679   0.894 -0.1271 -0.3064 -0.1150
16914W        W33048  12.048   7.686  11.673 -0.1191  0.0985 -0.0161
16915W        W33049  14.323   3.170  16.302 -0.3391 -0.1421 -0.0306
16916W        W33050  12.270   5.619   1.338 -0.2043  0.1554  0.0166
16917W        W33051  10.560  12.406   5.720 -0.1783  0.2456  0.0478
16918W        W33052   7.545  16.514  14.218  0.0315 -0.2531  0.0182
16919W        W33053   6.657   0.113  13.356  0.0998  0.0235  0.0060
16920W        W33054  14.658  14.932   0.537  0.0491 -0.0811 -0.1221
16921W        W33055  11.226   9.876   1.263  0.2897  0.1966  0.2255
16922W        W33056  15.460   5.167   1.785  0.2122 -0.1721  0.1244
16923W        W33057  10.379   0.183  17.095  0.1064  0.0607 -0.0163
16924W        W33058  13.176  12.442  12.714 -0.1144 -0.3106 -0.1685
16925W        W33059  11.610   0.756   1.556  0.0104 -0.2182 -0.1000
16926W        W33060  11.808   8.746  13.615  0.2713  0.1543 -0.2146
16927W        W33061   0.020   3.125   2.784 -0.0956 -0.1725  0.2650
16928W        W33062  16.761  11.260   5.779  0.1728 -0.1149  0.0901
16929W        W33063  15.556  13.188  11.829 -0.1378  0.2283 -0.5094
16930W        W33064   7.170  16.627   0.078  0.0471  0.0850  0.0116
16931W        W33065  10.887   8.262   4.473  0.2439 -0.2077 -0.2224
16932W        W33066   1.691  17.089  12.331  0.1262  0.0238  0.1947
16933W        W33067   2.915  14.576  12.336 -0.0411 -0.3220 -0.2525
16934W        W33068  13.902   2.407  13.256 -0.1227  0.1941  0.1280
16935W        W33069  16.454   9.984  10.861 -0.2853 -0.0884 -0.1586
16936W        W33070  14.004   4.837  11.590  0.1237 -0.0354  0.1230
16937W        W33071  13.777  15.260   0.558  0.2090  0.1112 -0.1564
16938W        W33072   7.171  10.763  11.586 -0.0942 -0.0670 -0.0678
16939W        W33073   9.253  10.401  16.068  0.0967 -0.2846  0.3182
16940W        W33074   2.038   1.987   3.558  0.1677 -0.1492 -0.0679
16941W        W33075   1.107  17.269  12.519  0.0827  0.0513  0.1052
16942W        W33076  12.479   0.916   4.607 -0.3516 -0.1576 -0.5577
16943W        W33077   5.029   2.390   4.142 -0.0718 -0.1649 -0.1129
16944W        W33078  14.220   9.756   1.317 -0.1926 -0.3042  0.0725
16945W        W33079   7.017  15.780   0.694  0.1413  0.1633 -0.0110
16946W        W33080   8.232   9.179   4.339 -0.0538  0.1002 -0.0479
16947W        W33081  17.436  13.752   4.153  0.0844  0.1341 -0.1627
16948W        W33082   9.450  15.327  15.751 -0.0935 -0.1264  0.0551
16949W        W33083  10.475   6.977  17.132  0.0313 -0.2399  0.0733
16950W        W33084   2.754  12.923  14.867 -0.1419  0.1642 -0.1045
16951W        W33085  15.304  14.302   6.167  0.1046  0.0104 -0.1133
16952W        W33086   9.258   7.616  14.478  0.1287  0.2032  0.1152
16953W        W33087  10.089  16.166   5.289 -0.0113  0.3062 -0.1859
16954W        W33088   2.781  13.936   0.852  0.0648 -0.1130 -0.0109
16955W        W33089   5.923  10.873   3.280 -0.2084  0.1513 -0.1446
16956W        W33090  10.768   5.852  12.677 -0.0514 -0.1886  0.0226
16957W        W33091  17.425  14.989   2.917  0.2126 -0.1136  0.1611
16958W        W33092  13.020  12.235   0.948  0.1082  0.6071  0.0088
16959W        W33093  16.012  12.679  13.713  0.1916 -0.1739  0.1070
16960W        W33094  16.779   4.655   3.977 -0.1016  0.4686 -0.0607
16961W        W33095   8.050   9.331   1.477  0.3812 -0.0588  0.0214
16962W        W33096   4.595  10.515   2.706  0.1829 -0.1113  0.0747
16963W        W33097   8.279  17.253   6.302 -0.0260 -0.1166  0.0017
16964W        W33098  16.411  13.844  14.570 -0.3366 -0.2135  0.3047
16965W        W33099   4.828   3.605   5.361  0.0583  0.1104  0.3328
16966W        W33100   4.823  16.010  15.413  0.1149  0.1089  0.2228
16967W        W33101   0.434   6.756   5.619  0.1219  0.0769 -0.0223
16968W        W33102  17.080   8.641  14.494  0.1017 -0.0269 -0.2308
16969W        W33103   2.917  17.521   3.395 -0.1067 -0.0295  0.0575
16970W        W33104  16.404   2.425   0.103  0.0335  0.0691  0.1613
16971W        W33105  15.021   1.235  12.289  0.1728 -0.0254 -0.2042
16972W        W33106   3.165  10.503  14.946  0.2113 -0.0668  0.3898
16973W        W33107   1.041   7.567  12.250 -0.1023 -0.3408 -0.1010
16974W        W33108  12.710  15.229   0.050  0.0372 -0.2448 -0.1587
16975W        W33109   4.516  12.795  15.124 -0.0444  0.1610 -0.0064
16976W        W33110   1.920  15.991  13.459  0.1869  0.1805  0.0740
16977W        W33111  11.981   9.119  13.978 -0.0010 -0.3692 -0.1876
16978W        W33112   6.112   5.068  16.500  0.0320 -0.2301  0.1924
16979W        W33113   9.968   0.559  16.893 -0.1871 -0.0690 -0.1780
16980W        W33114   0.787   3.246   3.642 -0.0825 -0.0302 -0.0173
16981W        W33115   0.272   1.250  15.650 -0.0043  0.0876 -0.2706
16982W        W33116   8.462  17.113   0.120  0.0445 -0.0635  0.0055
16983W        W33117  11.340   4.807  15.803  0.0630  0.1002 -0.2740
16984W        W33118   1.599  12.660   4.021  0.1757  0.0039 -0.1429
16985W        W33119   2.323  10.196  15.464 -0.4154 -0.0484  0.0112
16986W        W33120  12.427   6.830  12.700  0.1767 -0.3995  0.0572
16987W        W33121   2.270   4.974   0.103 -0.0324  0.1629  0.2189
16988W        W33122  11.159   2.340   2.368  0.0811 -0.0296 -0.0676
16989W        W33123  13.780   7.009   2.221  0.2494  0.0751 -0.0922
16990W        W33124  10.114  12.484  16.555 -0.0948 -0.0330 -0.2512
16991W        W33125   6.964   2.600   3.713 -0.1018 -0.2068 -0.0681
16992W        W33126  14.695  13.437  13.353  0.1001  0.0856  0.0426
16993W        W33127   3.864   9.752   0.217 -0.0544  0.1132  0.2483
16994W        W33128  10.160  10.333  16.986  0.1844 -0.0362  0.0336
16995W        W33129  13.425   5.749   1.600  0.1853 -0.1613 -0.4053
16996W        W33130  11.555  13.075   3.019  0.1386  0.1867  0.0465
16997W        W33131   5.355   4.636  12.970  0.0485  0.1262  0.2605
16998W        W33132   1.193   1.649  13.750 -0.2873 -0.1802 -0.2029
16999W        W33133   3.492   1.033  13.643  0.1248  0.1953 -0.0249
17000W        W33134   0.640  14.988   3.456 -0.2903  0.2399  0.0130
17001W        W33135   3.619   0.083   4.392  0.2519 -0.0917 -0.1422
17002W        W33136   9.500   9.372   2.557  0.0138  0.0455  0.0224
17003W        W33137   1.844  14.165   1.071  0.1439 -0.1197 -0.3065
17004W        W33138   1.135   1.683   5.468  0.0851 -0.1398 -0.0235
17005W        W33139  14.420   9.929  13.803 -0.1194 -0.0814  0.2105
17006W        W33140   6.195  12.113   1.598  0.1831 -0.1465 -0.1839
17007W        W33141   3.961   4.266  14.345  0.3602 -0.1170 -0.1729
17008W        W33142  13.939  16.073   2.776  0.1458 -0.2090  0.2122
17009W        W33143  11.107  12.493  13.499  0.0117 -0.0104 -0.1454
17010W        W33144  14.664   9.535  16.928  0.2227 -0.2429 -0.1359
17011W        W33145   2.260   5.291  16.868  0.1190 -0.4586  0.0656
17012W        W33146   2.246  17.386  12.524 -0.1192  0.2052  0.0906
17013W        W33147  15.046  13.114   0.231 -0.1147 -0.0320 -0.1954
17014W        W33148  14.405   2.838   0.827 -0.3589  0.2049 -0.1695
17015W        W33149  15.284   8.496  12.980 -0.0046 -0.2714  0.2504
17016W        W33150   0.406  15.217  14.516 -0.0939 -0.1631 -0.2170
17017W        W33151   1.897   6.356  17.071 -0.0791 -0.0456 -0.0202
17018W        W33152   8.735   7.070   3.618  0.1089  0.3818 -0.3305
17019W        W33153  15.888   1.846   2.727 -0.1925 -0.1623 -0.2136
17020W        W33154  14.908   6.702   4.073  0.1999  0.1467  0.0323
17021W        W33155   7.072  16.917  16.371 -0.1970  0.3071  0.3708
17022W        W33156   7.931   8.408   6.087 -0.1342 -0.1715 -0.0924
17023W        W33157   9.782   4.789  16.963 -0.0878 -0.0293 -0.3463
17024W        W33158   5.803   8.195   5.897 -0.0793  0.0353 -0.1655
17025W        W33159  16.717   2.915   5.435  0.0614 -0.1425 -0.0197
17026W        W33160  13.465  10.625  14.150 -0.2816  0.1413 -0.0142
17027W        W33161  16.425  10.523  13.616 -0.0702 -0.2759  0.1332
17028W        W33162   0.689   4.057   0.761  0.1439  0.1720  0.1732
17029W        W33163   4.787  14.592   1.324 -0.3300 -0.0769  0.0614
17030W        W33164   1.685   6.043  16.425  0.1278 -0.0989  0.1406
17031W        W33165  17.371   8.885   1.971 -0.3287  0.3823 -0.0686
17032W        W33166  13.957  12.098   5.138 -0.1951 -0.2897 -0.1927
17033W        W33167   3.594   6.957  14.958  0.1985  0.0913  0.0930
17034W        W33168   8.154   1.696   3.116 -0.2944  0.0890 -0.1024
17035W        W33169  16.823   3.250  12.074  0.1182  0.3802 -0.1236
17036W        W33170   9.384   9.272  12.336 -0.4853 -0.0506 -0.1392
17037W        W33171  15.285   9.831  13.016  0.1040  0.3333  0.0429
17038W        W33172   2.164   7.211  11.994  0.1652  0.0457  0.2559
17039W        W33173  10.474   2.840  15.370 -0.1159 -0.1505  0.0109
17040W        W33174  10.276   1.939   2.613 -0.0900  0.2902 -0.0675
17041W        W33175  13.831   6.257  11.439  0.1635  0.2865  0.0278
17042W        W33176   5.888   7.728   3.249  0.0709 -0.0511  0.0585
17043W        W33177   9.152   9.563   1.500  0.2796  0.1087  0.0617
17044W        W33178  11.139   8.464   4.942  0.1137 -0.1662  0.2598
17045W        W33179   1.794   8.553  11.542  0.0538  0.3692 -0.0799
17046W        W33180  15.898   4.604   5.233  0.3305  0.0596 -0.0135
17047W        W33181   6.662   8.220   5.325  0.1525 -0.1469  0.0778
17048W        W33182   4.273   0.955  14.697  0.1998  0.0416 -0.2484
17049W        W33183   6.038  17.160  17.076  0.0350  0.1202 -0.0166
17050W        W33184   7.769   9.216  11.590  0.3999 -0.0566  0.1681
17051W        W33185   5.442  13.961   5.450 -0.2898 -0.2154 -0.2141
17052W        W33186  12.758  12.885  11.563 -0.0683 -0.0621 -0.1595
17053W        W33187  13.589   0.374   3.356 -0.1138 -0.1393 -0.0270
17054W        W33188   9.399   9.114   4.287 -0.1430  0.0584 -0.0015
17055W        W33189  10.230   0.921  12.122  0.0364 -0.0367 -0.0232
17056W        W33190   8.096  11.167   0.003  0.1605  0.1199  0.0978
17057W        W33191   8.223   9.140  14.569 -0.1951 -0.4229 -0.0675
17058W        W33192   8.470  13.525   5.461 -0.1307 -0.0385  0.1701
17059W        W33193  13.714   2.115   3.772 -0.2376 -0.0418  0.1486
17060W        W33194   9.169   3.106  15.289 -0.1490  0.2254  0.0244
17061W        W33195   7.484   5.962   1.227 -0.0665  0.1249 -0.0651
17062W        W33196   7.531  16.564  11.693  0.0823 -0.0523 -0.1031
17063W        W33197  10.034  16.553   1.917 -0.0609  0.1060  0.0909
17064W        W33198   2.884   5.698  16.453  0.0605 -0.2143  0.1140
17065W        W33199   0.882   3.383   3.110 -0.0589 -0.0057 -0.0960
17066W        W33200   8.730  15.895  16.130  0.0358 -0.2973 -0.1845
17067W        W33201   3.385   8.337  14.387  0.0352  0.1565  0.0312
17068W        W33202   4.517   5.643   5.586  0.0075 -0.2643  0.2713
17069W        W33203  11.983   6.268   4.005  0.1666 -0.1466  0.0099
17070W        W33204  13.351   8.499   0.794  0.1034 -0.1064 -0.1818
17071W        W33205  12.345  17.335  15.822  0.4200  0.2531  0.0740
17072W        W33206  10.565   7.487  12.923  0.1363 -0.3818  0.0509
17073W        W33207   3.153  14.502  14.699 -0.2175 -0.0931  0.2139
17074W        W33208  12.410   7.468   3.563 -0.0676  0.1053  0.1045
17075W        W33209  10.853   6.827   4.062  0.0638  0.1256  0.0159
17076W        W33210   2.210   0.105   6.833 -0.1922  0.2075  0.0619
17077W        W33211   4.996   9.056   2.667  0.0222 -0.1304 -0.0991
17078W        W33212   2.577   6.232   1.393  0.3354  0.1073 -0.0685
17079W        W33213  13.296  15.074  16.079  0.2739 -0.1538 -0.1157
17080W        W33214   4.038   9.811   1.553  0.1295 -0.1111  0.0326
17081W        W33215   1.768  11.922  16.383  0.0837 -0.1975 -0.1747
17082W        W33216  11.057   7.647  13.964 -0.2432  0.0005 -0.0301
17083W        W33217  13.335  14.552   1.133  0.2355  0.2016 -0.1485
17084W        W33218   1.198  16.031   3.152 -0.3084 -0.1705  0.1291
17085W        W33219   2.369   2.218  13.899  0.1589  0.0935  0.1760
17086W        W33220   4.479   1.141   1.640  0.1030 -0.1473  0.0484
17087W        W33221   9.119  13.330   4.076 -0.2973  0.2060  0.2395
17088W        W33222  10.276  15.734   4.013  0.0806 -0.0515 -0.0870
17089W        W33223   4.899  13.810  13.448 -0.0788  0.0447  0.1565
17090W        W33224  14.044   1.399  16.046 -0.1548 -0.3655 -0.1359
17091W        W33225   0.737  11.620  13.786 -0.1060 -0.0580  0.0955
17092W        W33226  14.164   5.426   5.308 -0.0127 -0.0478  0.2228
17093W        W33227   5.413  15.499   2.108 -0.1626  0.1326 -0.2262
17094W        W33228   4.321  12.986  14.705  0.3180  0.0038  0.0832
17095W        W33229   5.121   3.937   3.430  0.1078 -0.0114 -0.3925
17096W        W33230   8.402   0.622   2.742  0.1267 -0.2224  0.2115
17097W        W33231   5.942  11.673   1.640  0.0889 -0.0024  0.0461
17098W        W33232   3.350   5.828  12.442 -0.2270  0.0805 -0.0686
17099W        W33233  16.984   3.807   2.393  0.1181  0.0008  0.0319
17100W        W33234   0.979  11.743   2.951  0.1510  0.2411 -0.2979
17101W        W33235   6.551  17.560   1.458 -0.0578  0.2797 -0.2589
17102W        W33236   6.144  15.411   0.249 -0.3531 -0.1157 -0.1239
17103W        W33237   2.482  17.217   4.185 -0.1582  0.2278  0.2517
17104W        W33238  13.031  14.940   4.570 -0.0745 -0.0448  0.0099
17105W        W33239   7.730   1.834  15.892  0.0868 -0.0927 -0.4756
17106W        W33240   9.675  16.941   3.534  0.2947  0.2823  0.0085
17107W        W33241  12.370  14.785  14.496  0.1756  0.0447  0.1412
17108W        W33242   5.858  13.420   4.893  0.2882 -0.2314 -0.3277
17109W        W33243  11.809  11.992   4.584 -0.0269  0.0323 -0.0316
17110W        W33244   4.090   7.237  16.127 -0.1950 -0.0452 -0.0275
17111W        W33245   8.843   0.452  14.613  0.3625  0.2057 -0.1678
17112W        W33246   2.459   1.484  15.496 -0.2291  0.2222  0.0271
17113W        W33247  13.877  17.487   0.249 -0.0431  0.0558 -0.0399
17114W        W33248   0.207   6.431   1.916  0.1664  0.0819 -0.1060
17115W        W33249  13.087  14.787   5.053 -0.0936 -0.0334  0.0343
17116W        W33250  14.899   9.991  12.054 -0.0396  0.1157 -0.1932
17117W        W33251  10.522  16.705  15.670 -0.1979  0.0450  0.0005
17118W        W33252  13.665   5.469   5.219  0.2859  0.2686  0.0538
17119W        W33253   9.964  14.030  12.860 -0.1170  0.1399 -0.1612
17120W        W33254   9.632   0.485  16.497 -0.0837 -0.2251 -0.0545
17121W        W33255   0.727   0.156  16.665 -0.2030  0.0918 -0.1522
17122W        W33256  14.157   4.006  12.003  0.3345 -0.1643 -0.0242
17123W        W33257  13.211  13.499   0.033  0.1269  0.6772  0.3462
17124W        W33258   8.892   6.741  12.524  0.0099 -0.0183 -0.3312
17125W        W33259  15.120  10.665  15.290 -0.0624 -0.1078  0.1574
17126W        W33260   6.565  15.539   4.562 -0.0758 -0.0596 -0.2948
17127W        W33261  16.405   7.375   2.334  0.3994 -0.2202  0.0546
17128W        W33262   4.243   2.693  15.674 -0.0583  0.0003 -0.2705
17129W        W33263   0.552   9.321   0.737 -0.0098 -0.0194 -0.1478
17130W        W33264   6.694  13.481  12.922 -0.0111 -0.1583 -0.3730
17131W        W33265  13.816  12.008  16.808  0.0772  0.0873 -0.1294
17132W        W33266   9.726   7.814  12.870 -0.0131  0.2126  0.0130
17133W        W33267  14.589  16.373   1.042  0.2110 -0.0544 -0.0596
17134W        W33268   3.385   5.098   2.146 -0.3632 -0.1510 -0.1998
17135W        W33269  14.958   4.098   0.584  0.0261 -0.3397 -0.0133
17136W        W33270  11.867   4.165  12.715  0.1811  0.3534 -0.0649
17137W        W33271  13.645  11.042   4.148  0.3280 -0.1081 -0.1841
17138W        W33272  15.197  10.748   1.050 -0.3113 -0.0445 -0.1725
17139W        W33273   1.608   8.514  14.916 -0.2755 -0.4865 -0.2791
17140W        W33274  10.964   1.807   0.222 -0.0160 -0.1966 -0.1845
17141W        W33275   6.233  12.610  14.070 -0.0762  0.0119  0.0867
17142W        W33276  11.393   1.696  15.098 -0.0321  0.0163  0.2755
17143W        W33277   1.664   4.647   4.864 -0.1240 -0.5319  0.0038
17144W        W33278  16.533   5.806   2.089 -0.0674  0.1153  0.0354
17145W        W33279   8.784   0.106   0.922 -0.2835  0.2394 -0.2839
17146W        W33280  17.411   9.272   1.580  0.0189  0.4042 -0.1844
17147W        W33281   5.884  14.449  12.267  0.1188 -0.2066  0.0910
17148W        W33282  17.256  16.843  15.583  0.0529  0.0210  0.2711
17149W        W33283   1.557   6.774  12.676  0.2678 -0.2034 -0.0832
17150W        W33284   5.179   8.011  15.865  0.1076  0.0395  0.1050
17151W        W33285  15.080   9.223  13.547 -0.1460 -0.4136  0.1561
17152W        W33286   2.073  10.996   3.740 -0.0625  0.2306  0.1456
17153W        W33287  11.931  13.138  11.993  0.0023 -0.3414  0.0313
17154W        W33288   3.712   0.872   1.387 -0.2105 -0.1223 -0.1953
17155W        W33289  13.471   1.505   0.925  0.1357 -0.0611 -0.1101
17156W        W33290  15.205  17.332   5.479 -0.1536  0.2419 -0.1173
17157W        W33291   5.990   3.111  14.377 -0.0902  0.5835  0.0069
17158W        W33292  13.977   0.209  12.355 -0.0889 -0.0007 -0.2240
17159W        W33293   3.124  15.675  16.092 -0.3400 -0.0684  0.1129
17160W        W33294  11.569   2.129  14.643 -0.0106 -0.0123  0.0396
17161W        W33295   5.245  13.839   2.009  0.0718 -0.0605  0.0436
17162W        W33296   2.972   9.728  11.225 -0.0629 -0.3430 -0.0737
17163W        W33297   4.579  11.759   5.796 -0.2792  0.0102 -0.1884
17164W        W33298  16.779   1.392  15.206  0.0017 -0.2690  0.0916
17165W        W33299  11.234  15.310  14.687 -0.3572  0.3340  0.1239
17166W        W33300   3.052  13.334   0.113  0.1142  0.0743 -0.0543
17167W        W33301   7.212  12.865   4.031 -0.2070  0.1255  0.0527
17168W        W33302   0.586   5.086  16.367  0.2512 -0.1203 -0.0736
17169W        W33303  15.443   7.369  12.295 -0.2123 -0.1339  0.0253
17170W        W33304  16.111   4.453   1.571 -0.4524 -0.1168 -0.1417
17171W        W33305   4.729  10.653   1.929 -0.2029  0.0039  0.1605
17172W        W33306  16.654   9.398   2.702 -0.0954 -0.1876 -0.1710
17173W        W33307  16.318   2.760   3.659  0.0820 -0.3285  0.1438
17174W        W33308   8.827   0.145   5.046  0.0804 -0.0048  0.0708
17175W        W33309   2.448   4.860  16.826  0.3033  0.1238  0.2007
17176W        W33310   5.236   1.497   3.676  0.0491 -0.1799 -0.0511
17177W        W33311  16.829   3.809   5.345  0.1139 -0.0925 -0.0220
17178W        W33312   1.755   4.697   5.690 -0.0283 -0.0057 -0.0442
17179W        W33313  16.168   3.784   0.275 -0.4223 -0.0466 -0.1395
17180W        W33314   0.214   8.646   3.563 -0.1066 -0.2611 -0.1450
17181W        W33315   7.882   5.392   0.105  0.2609  0.0274  0.2498
17182W        W33316  14.496   5.009   0.285  0.3177  0.1423 -0.1636
17183W        W33317  10.149  16.932   3.395 -0.0939  0.0936  0.1426
17184W        W33318   6.564   4.523   1.361 -0.0657 -0.0231 -0.1029
17185W        W33319  16.191   9.071   3.582  0.2590  0.0515  0.1815
17186W        W33320   1.884  12.384   0.457 -0.1396 -0.2830 -0.2738
17187W        W33321  10.084   2.187   3.515  0.0733 -0.1290 -0.0396
17188W        W33322   2.427   2.037   4.903  0.0834  0.0263 -0.1013
17189W        W33323   5.026   4.153   5.244 -0.0373  0.1141 -0.0882
17190W        W33324   3.322  11.491  12.182  0.0974 -0.1111  0.0563
17191W        W33325   6.170   0.718   5.160  0.0558 -0.0564  0.0676
17192W        W33326  11.998  11.283   5.100 -0.2045  0.2540  0.0899
17193W        W33327   6.176   0.578  14.035 -0.0805  0.0179 -0.1638
17194W        W33328   8.409  15.321   2.718  0.0459  0.2265  0.2535
17195W        W33329   9.753  15.800   0.597  0.0492 -0.2216 -0.3107
17196W        W33330  11.327   8.511  13.542  0.1838 -0.3987  0.2011
17197W        W33331  11.017   6.340   4.673  0.3489  0.0721 -0.1636
17198W        W33332  10.123   0.093  14.702 -0.1420  0.0515 -0.1390
17199W        W33333  13.612   5.298   1.820  0.1197  0.3002  0.2465
17200W        W33334  12.398   6.997   3.991  0.1793  0.0364  0.0624
17201W        W33335   9.437  10.928   1.137  0.4894  0.0781  0.1011
17202W        W33336   2.444   3.300  16.047 -0.0516 -0.3190  0.0979
17203W        W33337  17.073   3.581  16.743  0.1113  0.1870 -0.1404
17204W        W33338  17.566   5.145  16.424  0.2290 -0.0068  0.0499
17205W        W33339  10.707   4.088   1.976 -0.2806 -0.0377 -0.2519
17206W        W33340  13.784  10.521  15.054  0.0748  0.0734 -0.1627
17207W        W33341   6.641  15.866   1.770  0.0996  0.2780 -0.0165
17208W        W33342  13.688  17.160   5.838 -0.0589 -0.1375  0.1213
17209W        W33343   4.564   3.747  16.554 -0.2509 -0.0851  0.1534
17210W        W33344  12.282  11.952   2.784  0.3090  0.1380 -0.0722
17211W        W33345   0.166  11.470   0.213  0.1037  0.0039 -0.0473
17212W        W33346   3.254  17.421  14.248  0.1222  0.0848  0.0810
17213W        W33347   0.858   0.240   5.543 -0.0756  0.3572  0.2732
17214W        W33348   7.983  16.157   1.608  0.0379  0.1251 -0.0420
17215W        W33349   0.127   7.023   3.669  0.0824 -0.0219  0.2248
17216W        W33350  15.729   2.684  14.792 -0.1677  0.0264  0.1132
17217W        W33351   7.709   0.191  15.770 -0.1749  0.0024  0.0543
17218W        W33352   1.607   0.386   3.532  0.0977 -0.0761  0.1031
17219W        W33353  13.448  11.732   2.042 -0.2265  0.2294  0.0545
17220W        W33354   6.384   2.481   4.123  0.0883  0.0308  0.0638
17221W        W33355   6.508   8.278  15.311  0.1065 -0.0808  0.0075
17222W        W33356   6.362  15.538   1.100  0.0001  0.1581 -0.2247
17223W        W33357   1.258   1.326  13.326  0.2490  0.0344 -0.0439
17224W        W33358  11.009   0.943  16.031 -0.0545  0.0949  0.0261
17225W        W33359  15.709  15.552   3.761 -0.1877 -0.0707 -0.0044
17226W        W33360   5.192   1.950   6.416  0.2544  0.1985  0.4157
17227W        W33361  15.702   3.995  15.334  0.1350 -0.0451  0.0745
17228W        W33362  15.352   5.221   2.658 -0.1698  0.0332 -0.0321
17229W        W33363  14.832   7.362   1.303 -0.0066  0.2910  0.2202
17230W        W33364   1.312  17.641   1.906 -0.2190 -0.1485 -0.2441
17231W        W33365   3.895   6.849   0.468  0.1247 -0.1263  0.0588
17232W        W33366   5.774  10.736   6.287 -0.0791  0.3053 -0.3192
17233W        W33367   8.013   0.545   2.151 -0.1162 -0.0729  0.1437
17234W        W33368  12.695  14.091   4.832  0.1717 -0.1732  0.2294
17235W        W33369   2.404   5.769  16.581 -0.0279  0.0353 -0.2072
17236W        W33370  10.127  10.596   2.678 -0.0842  0.0924 -0.4953
17237W        W33371   0.472  13.709  15.708 -0.1469  0.0211  0.1609
17238W        W33372   8.308   7.984  15.961 -0.2241  0.1302 -0.0984
17239W        W33373   4.886   3.097  14.027  0.1447  0.1427 -0.1702
17240W        W33374   9.271  17.116  15.639 -0.0030 -0.0878 -0.4462
17241W        W33375  14.612  16.288  10.854  0.1800  0.0428 -0.1137
17242W        W33376   2.728   2.862   5.154  0.1055  0.0851  0.0560
17243W        W33377   0.593  12.982  15.264 -0.0990  0.0887 -0.0061
17244W        W33378   3.630  11.930  16.078  0.2599  0.0746 -0.1301
17245W        W33379   2.192  15.499   2.188 -0.1048 -0.2582  0.1693
17246W        W33380   6.400   3.922  13.899 -0.1363 -0.2229  0.0405
17247W        W33381   3.627   4.037   5.061  0.1021  0.1841  0.2700
17248W        W33382  14.758   4.231   4.233  0.3070  0.1590  0.0974
17249W        W33383  15.836   3.012  15.726 -0.1262  0.2363 -0.0469
17250W        W33384   9.846   0.475  13.616 -0.2263 -0.0006  0.0226
17251W        W33385   6.677  17.613  15.724  0.2828 -0.0104 -0.0299
17252W        W33386  16.995  10.972  13.656  0.1466 -0.0196  0.0340
17253W        W33387  14.392   4.434   5.818 -0.1239 -0.5238 -0.1691
17254W        W33388   4.532   7.832  16.881  0.1784 -0.0371 -0.2310
17255W        W33389   3.023  16.264  15.582 -0.1579 -0.0631 -0.0917
17256W        W33390  13.771   3.737   1.620  0.1298 -0.2093  0.1258
17257W        W33391  16.451   0.183   5.588 -0.2835 -0.0011  0.4601
17258W        W33392  13.166   2.440   3.347  0.0189 -0.0471  0.1350
17259W        W33393   6.311   4.651   0.190  0.2634  0.0735 -0.0162
17260W        W33394   6.402   7.034  15.609 -0.2467 -0.1986 -0.1169
17261W        W33395   5.468   8.671  13.067  0.4339 -0.1475  0.1382
17262W        W33396   6.377  11.402   4.759 -0.0494  0.1143 -0.1998
17263W        W33397   4.039   8.550   1.064 -0.1386  0.1017  0.2807
17264W        W33398  17.554  10.982  15.057  0.2031 -0.2832  0.0803
17265W        W33399   8.066  16.381  14.114 -0.1124  0.0255  0.5110
17266W        W33400  12.481   1.339   2.391 -0.1475  0.0615 -0.0778
17267W        W33401  10.768  10.817  16.158 -0.0226 -0.0090 -0.2274
17268W        W33402  13.625  15.482  12.931  0.0814  0.1832  0.3420
17269W        W33403   4.185   5.117  16.983 -0.1551 -0.2503 -0.0607
17270W        W33404   8.713   1.133  12.933 -0.1339  0.0429  0.2874
17271W        W33405   5.265  12.387  14.713 -0.1227 -0.0326  0.1021
17272W        W33406  16.689   5.133   3.191 -0.0401 -0.1338  0.0403
17273W        W33407   9.484   0.114   4.140  0.1910  0.0352 -0.0746
17274W        W33408   8.925  11.342  16.017  0.1649  0.0037 -0.2382
17275W        W33409   6.252  13.873   1.809  0.1490 -0.2197  0.0113
17276W        W33410   1.777  15.073   2.331  0.0518 -0.1756 -0.0257
17277W        W33411  16.793   2.313   1.204 -0.0284  0.1149 -0.2065
17278W        W33412   5.640   8.159   4.519 -0.0987  0.0853  0.0444
17279W        W33413   7.291   0.840   3.868  0.1466 -0.1606 -0.4504
17280W        W33414  15.107   6.537   4.507  0.0695 -0.2490 -0.0142
17281W        W33415  14.474  13.603   4.245 -0.1070  0.2374 -0.2098
17282W        W33416  10.908  17.547   5.298 -0.0159  0.1384 -0.0789
17283W        W33417   7.519   8.823   4.799 -0.2155 -0.0173  0.1999
17284W        W33418   6.618  17.134   2.422 -0.1310 -0.1564  0.2631
17285W        W33419   8.385   6.377   4.454 -0.1905 -0.1632  0.0653
17286W        W33420   0.532  10.625   0.713 -0.3672 -0.1170  0.0228
17287W        W33421   6.750  12.769  13.899 -0.1939 -0.0013  0.1394
17288W        W33422   8.612   7.633   2.445  0.2996  0.0176 -0.0082
17289W        W33423  17.063  11.406  12.969  0.1877 -0.2883  0.1248
17290W        W33424  11.684   6.729   4.374  0.1406 -0.0209 -0.2654
17291W        W33425  13.930  15.981  13.154 -0.0840  0.2353 -0.1149
17292W        W33426   7.319  17.613   5.743 -0.0632 -0.1117 -0.0134
17293W        W33427   8.484  12.752   3.641 -0.1521 -0.2506 -0.0876
17294W        W33428   3.253  10.677   6.008 -0.1459 -0.0295 -0.1034
17295W        W33429   4.259   5.745  15.015  0.0059  0.3014 -0.2198
17296W        W33430   0.981  15.593  14.758  0.1440 -0.2715 -0.3098
17297W        W33431  13.482   4.872   1.485 -0.0844 -0.0463  0.0660
17298W        W33432   4.396  12.653  16.912  0.0517 -0.1193  0.0223
17299W        W33433   5.224   9.168  16.349  0.1654  0.2863  0.1320
17300W        W33434   8.160   8.094  12.378  0.0056  0.0944 -0.0285
17301W        W33435   4.020  12.424   1.919  0.0074 -0.0267  0.1278
17302W        W33436   2.244   7.709   0.860  0.0206 -0.0500 -0.2723
17303W        W33437  12.399   3.602  15.241 -0.0612  0.0254  0.3733
17304W        W33438  15.807  11.358  13.267 -0.2129  0.0401 -0.0721
17305W        W33439   2.583   7.045   4.116  0.0619  0.3470  0.0452
17306W        W33440  16.221  14.284   2.290  0.0841  0.0513  0.0628
17307W        W33441  14.107  10.225  11.579  0.0307 -0.1146 -0.2136
17308W        W33442   4.571   4.424   1.074  0.2872  0.3694  0.1344
17309W        W33443   5.307   3.023   3.547  0.1500 -0.0820 -0.3986
17310W        W33444  10.078   3.511   3.516 -0.1486  0.0298 -0.2966
17311W        W33445   8.870  15.037  16.101 -0.0144  0.3025 -0.0015
17312W        W33446  11.477   1.687   3.968 -0.2567  0.0910 -0.0274
17313W        W33447   7.371   9.223   2.685  0.0604  0.0275 -0.2543
17314W        W33448  12.140   4.225  16.103  0.0687  0.0476 -0.3268
17315W        W33449  17.655  11.039  14.152  0.1816  0.0764 -0.2477
17316W        W33450   7.864   4.611  12.730  0.2442  0.1088 -0.1691
17317W        W33451   7.204   1.365  12.181 -0.2551  0.0995  0.1858
17318W        W33452   8.336   0.402  15.025  0.1213  0.1760 -0.0012
17319W        W33453   5.581  15.990   0.900  0.2612 -0.1299 -0.1765
17320W        W33454  11.138   6.652   2.145 -0.1030  0.1588  0.2332
17321W        W33455  13.748  10.877   0.424 -0.1755 -0.3290  0.0833
17322W        W33456   8.910   1.169   3.105  0.1726 -0.3243  0.0927
17323W        W33457   6.872  17.182  15.964 -0.0898  0.1674 -0.0142
17324W        W33458   9.221  15.434   3.679  0.1409 -0.0528 -0.3034
17325W        W33459   4.173  16.722   4.026 -0.0942 -0.0934  0.0850
17326W        W33460  14.992   6.961   3.532 -0.0497  0.0815  0.0660
17327W        W33461   8.260  15.890   2.000  0.1377  0.1409 -0.0398
17328W        W33462  16.860   8.236   2.448 -0.3418 -0.0451 -0.2057
17329W        W33463  17.122   3.801   1.898 -0.1534 -0.0936  0.3246
17330W        W33464   0.402  11.644   3.544 -0.1299  0.0124 -0.0974
17331W        W33465   8.172   9.013  12.690 -0.2156  0.1940 -0.0050
17332W        W33466   5.024  10.348   4.016  0.3513  0.0600  0.3278
17333W        W33467   1.094   9.968   2.170  0.2970  0.1719  0.1095
17334W        W33468   5.514  13.337   4.307 -0.2061  0.0901  0.0811
17335W        W33469   8.479   7.892  15.446  0.2137 -0.0398 -0.3212
17336W        W33470   2.417  15.920   1.983  0.0444 -0.2222  0.0066
17337W        W33471   7.760  11.166  14.634  0.0463  0.3172  0.3695
17338W        W33472  12.163  12.326  12.383 -0.1869  0.0087 -0.2308
17339W        W33473   7.135   1.270  15.418  0.1396 -0.1209  0.0146
17340W        W33474  14.808  15.503   3.694 -0.5153 -0.0084 -0.0743
17341W        W33475   0.201   0.050   2.945 -0.3820 -0.1817  0.0944
17342W        W33476  15.308   7.334  13.672  0.3194 -0.0562  0.2093
17343W        W33477   4.988   7.767   0.225  0.0919  0.0298 -0.2673
17344W        W33478  14.584   1.664   2.944  0.2298  0.0754  0.0305
17345W        W33479   6.762   9.746  13.865  0.1867  0.1385  0.1201
17346W        W33480   7.865   4.412  15.910  0.0177 -0.1316 -0.0619
17347W        W33481   1.677   7.055  16.605  0.0237 -0.0300 -0.2403
17348W        W33482   0.219   2.314  11.810  0.1023  0.1561  0.1089
17349W        W33483  16.180   4.227   2.582  0.0577 -0.0691 -0.5303
17350W        W33484   5.028   2.720   3.238  0.0454 -0.2261 -0.0203
17351W        W33485   0.568  11.773   0.193  0.0344 -0.1963  0.0933
17352W        W33486   4.539  16.135   5.116  0.2239 -0.1053  0.0900
17353W        W33487  13.687  12.531  13.152  0.0654  0.0923 -0.0083
17354W        W33488  14.245   0.064   2.329  0.1761 -0.2028 -0.0058
17355W        W33489   9.733   5.060   2.691 -0.0153 -0.1992 -0.1825
17356W        W33490   8.324   1.248   5.504 -0.2423  0.1404  0.2388
17357W        W33491   4.764   8.466  13.394 -0.0436 -0.0358  0.0129
17358W        W33492  14.911   8.249   2.312  0.0629  0.3135 -0.3234
17359W        W33493  10.801  10.718  11.531 -0.0608 -0.4019  0.0519
17360W        W33494   7.165   5.262   0.570 -0.1081 -0.2549 -0.1281
17361W        W33495  13.890  13.345   5.608  0.1952 -0.1022  0.1127
17362W        W33496   6.912   3.509   3.644  0.0426 -0.1625  0.1480
17363W        W33497   2.718  12.155  14.554 -0.0472  0.0196 -0.1026
17364W        W33498   0.101   8.632  12.131  0.1429 -0.2460  0.1981
17365W        W33499  10.969  15.357  13.509  0.1619  0.2851 -0.0340
17366W        W33500  13.473   8.469  11.304 -0.0336  0.0291 -0.1378
17367W        W33501  11.277   3.480   1.212  0.3195 -0.0748  0.1076
17368W        W33502  15.758   9.680   2.505  0.1342 -0.0880 -0.1013
17369W        W33503   1.162  16.928  13.523 -0.1063 -0.0033  0.0000
17370W        W33504   8.580   8.629  12.743 -0.1499  0.0735  0.1316
17371W        W33505   2.154   3.877   0.530 -0.0646 -0.0219 -0.2450
17372W        W33506   6.222  15.420  12.675 -0.1228  0.0918  0.0806
17373W        W33507   7.036   1.942  14.227 -0.0363 -0.1430 -0.1295
17374W        W33508   8.482   4.909   0.142 -0.4021  0.0653  0.1311
17375W        W33509   3.447   3.735   0.736  0.0947 -0.2909  0.0360
17376W        W33510   1.985  16.728  12.410  0.1335  0.0532 -0.0927
17377W        W33511   5.599   0.950   3.071 -0.1221  0.0384 -0.1158
17378W        W33512   4.574  13.552   4.335 -0.4225  0.2595 -0.1794
17379W        W33513  10.124   8.010   2.611  0.0835 -0.1800  0.0398
17380W        W33514   7.049   4.093   5.140 -0.0372  0.2453 -0.1443
17381W        W33515   6.490   7.298  13.166 -0.1917  0.1053  0.1550
17382W        W33516   5.332   6.420  13.626  0.1258 -0.1399 -0.3088
17383W        W33517   0.892   1.823  12.480 -0.0183 -0.0858  0.0458
17384W        W33518   9.296   5.911  15.968 -0.0716 -0.1108 -0.0812
17385W        W33519  12.685  17.303  16.269  0.0551  0.2175 -0.0379
17386W        W33520   3.677   8.346  14.786 -0.1219  0.1303 -0.0806
17387W        W33521   6.134  13.720  16.159  0.2700 -0.3333 -0.1729
17388W        W33522   9.560  10.777  16.182 -0.2107  0.2892  0.0368
17389W        W33523   3.160   6.262   5.278  0.0527 -0.0476  0.1719
17390W        W33524   6.883  11.275   4.851  0.1294  0.1913 -0.0220
17391W        W33525  13.390  10.846  15.055 -0.2420  0.0206 -0.0197
17392W        W33526   8.557   2.713   3.916 -0.2739  0.0371 -0.2705
17393W        W33527   4.562  12.401   5.379 -0.2078 -0.0428  0.1273
17394W        W33528   7.370  15.439  14.002  0.0650  0.0978 -0.2023
17395W        W33529   8.218  14.586  12.601 -0.0118  0.0538  0.0736
17396W        W33530   5.426   4.424  11.927 -0.0410  0.0483 -0.0417
17397W        W33531  14.180  14.820   2.908  0.1299 -0.1462  0.0779
17398W        W33532  11.166   9.171   3.299 -0.0229  0.1396  0.0145
17399W        W33533  10.984   5.412   4.585  0.1554 -0.0400 -0.0566
17400W        W33534   4.745   7.973   4.674 -0.0088  0.0113  0.1905
17401W        W33535   9.496  12.277   3.192  0.3702  0.1654  0.2048
17402W        W33536   4.315   3.439   3.910  0.0529 -0.1922  0.0176
17403W        W33537  16.685  14.368   1.880 -0.1307  0.0498  0.2530
17404W        W33538  14.737   8.888  14.216  0.0350 -0.0304 -0.0706
17405W        W33539  10.122   1.264  14.733 -0.3275 -0.2552 -0.0260
17406W        W33540   8.217  16.858   3.744 -0.1221  0.2097  0.2569
17407W        W33541   7.630   3.762   2.901  0.0355  0.2478  0.1290
17408W        W33542   0.708  15.518  15.564  0.0693 -0.2883 -0.0140
17409W        W33543  15.455  15.447  15.381  0.0654  0.1307  0.6113
17410W        W33544   4.867   8.585   2.719  0.0180 -0.0916  0.0894
17411W        W33545  11.303   1.815  11.682  0.2673  0.3389  0.0041
17412W        W33546   8.769   0.668   2.360 -0.2132  0.0738  0.1252
17413W        W33547  13.832  13.963  13.706 -0.0233 -0.1059  0.3564
17414W        W33548   6.190  10.971   1.186 -0.2659 -0.3070 -0.0157
17415W        W33549   2.404  15.743  16.288  0.1449  0.1255 -0.0555
17416W        W33550   3.584  15.424  16.534 -0.1075  0.2469  0.2999
17417W        W33551  13.126   6.814   5.492  0.0549 -0.1146 -0.0333
17418W        W33552   4.961   4.510  12.100 -0.0756  0.3237  0.1177
17419W        W33553   6.157   5.800  12.688  0.0262  0.2185  0.0899
17420W        W33554  11.823   9.361   2.670 -0.1557 -0.1937  0.1167
17421W        W33555  16.472  13.364  15.333  0.3562 -0.1966 -0.1011
17422W        W33556  11.588  11.714   0.108 -0.1850 -0.1505 -0.0014
17423W        W33557  11.047  11.025  15.260  0.0296  0.1525 -0.1679
17424W        W33558  11.846   5.180  15.791 -0.1422 -0.1337 -0.0277
17425W        W33559  12.714  16.324   1.250  0.0922  0.2328  0.1676
17426W        W33560  15.159   2.882   1.382  0.3854  0.0131 -0.5285
17427W        W33561   8.395  14.650  13.489 -0.1247  0.5298 -0.0260
17428W        W33562   6.645  10.411   5.837 -0.1151 -0.2075  0.1366
17429W        W33563   8.813  11.091   2.397 -0.1731  0.1014 -0.4578
17430W        W33564   4.574   2.439  16.843  0.0900 -0.2681 -0.0610
17431W        W33565   1.361  12.588  13.662 -0.3049  0.0754 -0.2333
17432W        W33566   2.987   8.024  15.424  0.1834 -0.4921  0.0988
17433W        W33567   6.212  14.793   6.467 -0.0254 -0.0048 -0.0073
17434W        W33568  16.146  14.920   0.220  0.1361 -0.3670 -0.0719
17435W        W33569   1.706  13.208  12.231 -0.0678  0.1479  0.1046
17436W        W33570   7.632   0.882   3.375 -0.1569 -0.0430 -0.1347
17437W        W33571  14.310   2.184   5.011  0.0737 -0.0120 -0.4008
17438W        W33572  11.790  16.434  16.339 -0.1596  0.0511  0.1175
17439W        W33573   1.479   5.243   0.095  0.0452  0.0322 -0.0267
17440W        W33574   7.291   9.417  11.418 -0.1336 -0.2609 -0.0219
17441W        W33575  13.560   4.265  14.842  0.1508 -0.3984  0.0638
17442W        W33576  15.446  16.184   3.648 -0.1506 -0.1322 -0.0657
17443W        W33577   3.715   4.484  12.635  0.0883  0.2497 -0.1068
17444W        W33578  12.830   3.172  14.812 -0.1003  0.1822  0.1049
17445W        W33579  16.161   9.374  12.123  0.3837 -0.0944 -0.2337
17446W        W33580  10.397   7.086   4.131  0.0218 -0.0622  0.1292
17447W        W33581  12.756   1.193   5.666 -0.1380 -0.0413  0.1976
17448W        W33582   5.807  13.477  13.332 -0.0374  0.0139  0.2707
17449W        W33583  11.730   8.154  13.456 -0.2078  0.1908 -0.1761
17450W        W33584  15.048   8.656  11.940  0.0593 -0.0758  0.2119
17451W        W33585   5.279  13.819  16.118 -0.0950  0.2318 -0.0775
17452W        W33586  17.304   3.367  11.332 -0.0296  0.1611 -0.0618
17453W        W33587   4.805   6.749  15.441 -0.1699 -0.4096 -0.0638
17454W        W33588  16.787   5.760   4.344 -0.0578  0.2200  0.0538
17455W        W33589   0.077   0.782   1.089  0.1361  0.2002  0.0530
17456W        W33590  16.799   8.966   2.921  0.1973  0.2467  0.1693
17457W        W33591  10.482  16.570   3.086 -0.0420  0.2647 -0.0978
17458W        W33592  14.821   1.291   2.682  0.2100 -0.1123  0.1118
17459W        W33593  15.556   1.291   6.491 -0.0392  0.0272  0.1772
17460W        W33594   1.871   6.241   0.820 -0.3364 -0.4318  0.0245
17461W        W33595   3.524  11.536   1.304  0.1575 -0.1292  0.0458
17462W        W33596   7.823   4.435   0.990 -0.0243 -0.0126  0.1263
17463W        W33597  16.772  15.830  16.739  0.0472  0.1405  0.0277
17464W        W33598   4.925   4.977  12.817  0.0151 -0.0072 -0.0457
17465W        W33599   7.719   2.933  13.266  0.1757  0.1267 -0.3106
17466W        W33600   2.716   5.218   3.559 -0.1336 -0.2207 -0.3504
17467W        W33601   3.066   0.571   0.739 -0.1284 -0.2158 -0.1639
17468W        W33602  10.906   0.692   5.643 -0.1591  0.0428 -0.1505
17469W        W33603  16.149  14.568  16.207  0.0348  0.1254 -0.0525
17470W        W33604  10.745   3.507   4.252  0.1164  0.1026 -0.2658
17471W        W33605   2.196   4.517   3.625  0.1468 -0.1050 -0.1371
17472W        W33606   9.611   4.398   5.936  0.0560 -0.0091 -0.0664
17473W        W33607  15.664   9.184   0.793 -0.1863  0.1757  0.1753
17474W        W33608   9.486  16.324  16.237  0.3296 -0.0809  0.0293
17475W        W33609   8.967   2.789   1.928  0.2172 -0.1808 -0.0198
17476W        W33610  13.693  13.088   3.364 -0.3375 -0.0135 -0.1694
17477W        W33611   2.593   4.132   0.099 -0.1800 -0.1558 -0.0539
17478W        W33612   3.473  16.823   4.656 -0.1117  0.0565 -0.1622
17479W        W33613  12.274   7.939   5.192  0.2358  0.4584 -0.1329
17480W        W33614  13.653  16.511   0.194 -0.1929  0.1646  0.0707
17481W        W33615  11.292   3.765   5.088  0.2226  0.0806 -0.0401
17482W        W33616  16.838   7.081   2.812 -0.0769 -0.0647 -0.0828
17483W        W33617  12.963   8.657   3.512 -0.0949 -0.2906  0.0553
17484W        W33618   1.021   4.310   1.641 -0.0512 -0.3027 -0.1247
17485W        W33619  14.127  16.345  16.575  0.0125 -0.0049 -0.1729
17486W        W33620  12.618   1.377   3.322  0.2268  0.2188 -0.0377
17487W        W33621   1.702  16.725  14.352  0.0329  0.0715  0.2186
17488W        W33622   0.215   2.883   0.352 -0.0759  0.0902  0.0297
17489W        W33623   4.110  15.736  13.650  0.2637 -0.1688  0.3041
17490W        W33624   7.689  15.867   5.413  0.2290  0.1554 -0.0890
17491W        W33625  16.324   8.572  12.092  0.0360 -0.0046  0.1960
17492W        W33626   9.830  10.005  14.586  0.1615 -0.0441 -0.0094
17493W        W33627   1.216  16.731   4.343  0.0018  0.0161 -0.0381
17494W        W33628   0.577   1.689   3.023  0.2758  0.1066  0.0000
17495W        W33629  14.213  12.928  16.688  0.0317  0.4068  0.1775
17496W        W33630  13.046   9.704  14.802 -0.0567  0.1106 -0.0034
17497W        W33631  14.834   7.598   1.852  0.2929 -0.0458  0.0554
17498W        W33632   1.097  14.417  16.883  0.1493  0.0248  0.1215
17499W        W33633   2.236  17.629  15.361  0.0575  0.0650  0.3215
17500W        W33634   1.596   6.658  12.114 -0.2750 -0.3914 -0.1727
17501W        W33635  11.817   5.182  12.533  0.1100 -0.0406 -0.1251
17502W        W33636   4.101  14.471  12.797  0.0759  0.0766 -0.1359
17503W        W33637  12.484   3.497   0.482  0.4028  0.5353  0.1258
17504W        W33638   7.242   9.682   6.127  0.1718 -0.0510 -0.1355
17505W        W33639   7.236  15.847   5.091  0.0509  0.3124 -0.0282
17506W        W33640  13.933  14.667   5.583  0.0355 -0.0083 -0.0828
17507W        W33641  11.812   4.305   4.233  0.1123 -0.1919 -0.2638
17508W        W33642   5.838   9.672  11.164  0.2019 -0.0812 -0.0755
17509W        W33643   1.976   4.523   1.303  0.1768  0.1398 -0.2156
17510W        W33644  10.677  13.600   4.870  0.0839  0.1067 -0.3081
17511W        W33645  16.992  11.889  11.561 -0.2019 -0.1860  0.3004
17512W        W33646  17.192  10.590   5.205  0.1152  0.0657 -0.0582
17513W        W33647  15.682   3.541   0.316 -0.3119 -0.0512  0.2038
17514W        W33648  15.507  12.817  14.621  0.1535 -0.1198 -0.0238
17515W        W33649  15.842   2.297   0.936 -0.4704  0.1505 -0.0909
17516W        W33650  10.637   4.955   3.697  0.0539  0.0382  0.3648
17517W        W33651   5.452   1.053   3.529 -0.0590 -0.0789 -0.2045
17518W        W33652   7.225  13.273  13.113 -0.1617  0.2665 -0.1175
17519W        W33653   8.604   8.759  14.064  0.1275 -0.1444  0.1784
17520W        W33654   6.010   5.930  15.258  0.1596 -0.1444  0.0531
17521W        W33655   1.342   8.833  12.540 -0.1116  0.3419  0.0389
17522W        W33656  10.814  11.243  13.197 -0.0056  0.0708 -0.2229
17523W        W33657  16.301  11.572   0.371  0.0343 -0.3408  0.1929
17524W        W33658  14.633   8.079   1.928 -0.1090 -0.1082  0.4740
17525W        W33659   0.576  14.783  17.054 -0.2682 -0.0228  0.1459
17526W        W33660  15.930  12.899   5.105  0.2696 -0.1481  0.1131
17527W        W33661  15.338   2.820  13.504  0.1768  0.0628 -0.0456
17528W        W33662   6.439   2.986  15.124  0.0241  0.0977 -0.0813
17529W        W33663  15.837  14.907  13.507  0.2433 -0.0669 -0.0380
17530W        W33664   4.382   7.951   2.350  0.2315  0.2486  0.5748
17531W        W33665  11.316   8.209  12.268 -0.1839 -0.1359 -0.1346
17532W        W33666   2.711  14.321   6.483  0.1408  0.0276  0.1302
17533W        W33667   8.285  11.182   3.206  0.0031 -0.0949 -0.0491
17534W        W33668   6.965   1.228   2.939  0.0016 -0.0146 -0.4913
17535W        W33669   5.352  14.451   5.340 -0.2257 -0.1244 -0.0514
17536W        W33670   0.391   5.540  11.694 -0.1187 -0.1616  0.2508
17537W        W33671  14.408   3.313   0.758  0.0691 -0.5291 -0.2362
17538W        W33672   5.064  10.295   0.464 -0.1851  0.1510 -0.2133
17539W        W33673  15.419   2.162  16.107  0.3030  0.0309 -0.1993
17540W        W33674   9.789   2.035   3.988 -0.2785  0.1570 -0.1058
17541W        W33675  15.261   4.396   4.169 -0.0435  0.2427 -0.3991
17542W        W33676   8.791  15.069  14.500 -0.1135  0.2059 -0.1762
17543W        W33677  16.100  10.673   2.094  0.1512  0.0231  0.1071
17544W        W33678  13.655   6.766   0.658 -0.1036  0.2003 -0.0257
17545W        W33679   9.472   3.830   0.645  0.3238  0.0581 -0.1889
17546W        W33680   8.553  15.684  16.805 -0.1702 -0.0448  0.2021
17547W        W33681   2.258   3.147   1.010 -0.1185  0.1733  0.0963
17548W        W33682   6.655  14.406  16.401  0.0461  0.0726 -0.0020
17549W        W33683   6.071   7.341   2.965  0.1317 -0.0069  0.2091
17550W        W33684  10.755   1.324   0.385  0.0067 -0.0431  0.2642
17551W        W33685   8.421  12.004   5.646 -0.0630 -0.1542  0.2409
17552W        W33686   4.721   5.948   2.037  0.0763  0.0874 -0.1932
17553W        W33687   3.190   3.693   2.311  0.0472 -0.0149 -0.1224
17554W        W33688  14.928   0.256  13.575  0.1090 -0.0254 -0.1283
17555W        W33689   2.646   9.106  13.703  0.0651 -0.1392  0.0273
17556W        W33690  10.730  15.577   4.212  0.0986  0.1555  0.1120
17557W        W33691   1.090   9.415   3.079  0.0810 -0.0217  0.0725
17558W        W33692  14.131   8.454  14.184 -0.0985  0.3308 -0.3063
17559W        W33693  12.962   6.215   0.436  0.0528  0.1764 -0.0138
17560W        W33694  14.324   7.662   4.992 -0.0491  0.0794 -0.1079
17561W        W33695   9.027   3.129  12.249 -0.1766 -0.0627 -0.1873
17562W        W33696   1.271   1.037  14.813  0.0397  0.1414  0.1683
17563W        W33697  12.968   3.660  12.824  0.2473  0.0981  0.1316
17564W        W33698  10.278  10.290   1.710  0.1066  0.2623  0.1136
17565W        W33699   7.409  11.882   5.946  0.0666 -0.1743  0.2448
17566W        W33700   5.255  13.065   3.947  0.0530  0.0631  0.3895
17567W        W33701   5.525  12.034  14.161 -0.1099  0.1336 -0.1009
17568W        W33702  16.550  14.047   3.106  0.2026  0.0869  0.0656
17569W        W33703   2.331   2.238   6.306  0.1557 -0.0162 -0.0214
17570W        W33704  17.473  17.194  15.284 -0.2411  0.0025 -0.2330
17571W        W33705  12.600   7.051   0.229 -0.1380 -0.0305  0.0788
17572W        W33706  14.468  15.961  13.278 -0.1534  0.2039  0.1863
17573W        W33707  15.379   2.494   1.033  0.0303 -0.2887 -0.2231
17574W        W33708   6.650   5.207  13.168 -0.1246  0.1855 -0.1773
17575W        W33709   9.612  14.152  14.551  0.3530  0.1464 -0.0878
17576W        W33710  11.128  11.880   3.588 -0.1809 -0.0880  0.0313
17577W        W33711   5.606   9.309  13.431  0.3642  0.0460 -0.0342
17578W        W33712   7.791   9.389  16.404  0.0064  0.2400 -0.2398
17579W        W33713  14.131  10.457  13.277 -0.0005 -0.2698 -0.2379
17580W        W33714   1.652  14.922   5.969  0.1594 -0.2742 -0.1033
17581W        W33715   2.231   7.897   2.662 -0.2651 -0.0011 -0.2589
17582W        W33716  12.204  16.898  13.123 -0.0885  0.1051  0.0464
17583W        W33717  14.404   9.818   4.383  0.2155  0.0795  0.1146
17584W        W33718   6.078   3.037   0.482 -0.2068 -0.1898 -0.0522
17585W        W33719   7.749  11.626  16.658 -0.1795 -0.1748  0.1983
17586W        W33720   8.915   7.639  13.637 -0.1090 -0.1912 -0.1639
17587W        W33721   0.169   5.219  13.821 -0.0440  0.0954 -0.1359
17588W        W33722  11.486  16.758   4.959 -0.0492  0.0091  0.2181
17589W        W33723   3.527   5.589   3.063 -0.3500 -0.1992  0.1860
17590W        W33724  14.865  11.117   1.745  0.2337  0.0154 -0.2820
17591W        W33725   4.877   1.809   3.636  0.0820  0.1553  0.2307
17592W        W33726   4.925   3.665  14.745 -0.1969 -0.0410  0.0191
17593W        W33727   1.312   3.328  15.794 -0.1405 -0.0198 -0.0143
17594W        W33728   5.183   4.112  16.090 -0.3056  0.0609  0.1143
17595W        W33729  17.416   0.999  13.975 -0.0096  0.0336 -0.2588
17596W        W33730   8.695   8.606  15.837 -0.2474  0.0851  0.1009
17597W        W33731  16.048   6.208   4.824  0.1266 -0.0036  0.2201
17598W        W33732   3.683  13.278   1.409  0.2898 -0.2019  0.0816
17599W        W33733  16.477   5.617   2.506  0.0836 -0.1636 -0.0279
17600W        W33734  11.548  16.462   2.985 -0.0349 -0.1437  0.1039
17601W        W33735   0.074   6.128   3.543  0.2446  0.0907 -0.0348
17602W        W33736  15.959  10.885  13.449 -0.2038 -0.0371 -0.1119
17603W        W33737  13.473   8.376  14.285  0.0726  0.1249 -0.1670
17604W        W33738   8.384   9.343   2.844  0.2050  0.0649 -0.3400
17605W        W33739   5.321   3.750   5.440 -0.0852  0.2147  0.1964
17606W        W33740   8.449   5.627  16.579 -0.1147  0.2364 -0.1154
17607W        W33741   7.062   3.949  12.831 -0.0225 -0.0065 -0.0326
17608W        W33742  10.483  12.611  11.370 -0.0236 -0.0922  0.0783
17609W        W33743   4.953   6.564   4.433  0.0128  0.1258 -0.0181
17610W        W33744  14.923  14.663   3.597 -0.0652 -0.0032 -0.2019
17611W        W33745  11.865  12.128   4.039 -0.0053  0.0105 -0.1158
17612W        W33746  15.239   3.344  10.812 -0.0167 -0.0326  0.0640
17613W        W33747  13.967   5.210   6.325 -0.1955 -0.2058 -0.3078
17614W        W33748  13.828   3.550  15.495  0.2735  0.3426  0.0691
17615W        W33749  11.036  12.787  14.999 -0.2424  0.2224  0.0283
17616W        W33750  14.461  13.976   5.217 -0.0966 -0.0104 -0.1602
17617W        W33751   2.203  10.691   5.448  0.1522  0.0336  0.1894
17618W        W33752  12.247  16.672   4.183 -0.0080  0.1552 -0.2464
17619W        W33753   5.486   4.669   4.122  0.1512 -0.0356  0.0870
17620W        W33754  11.898   6.381  11.669 -0.0491  0.2143 -0.1136
17621W        W33755  15.224   9.344   0.554 -0.1398 -0.1535  0.1574
17622W        W33756   3.190  11.634   0.950  0.0188  0.0790  0.2158
17623W        W33757  12.494  10.165  16.829  0.1825  0.0680 -0.0173
17624W        W33758   0.182  12.117   4.382 -0.0405  0.1274 -0.0465
17625W        W33759   2.034   1.269   3.706 -0.0063  0.0620 -0.1109
17626W        W33760   2.879   1.549   2.456  0.1695 -0.0891  0.0729
17627W        W33761   9.410  14.607   5.260 -0.2829  0.0480  0.1145
17628W        W33762   8.290   0.701   4.204  0.1300 -0.1080 -0.0451
17629W        W33763   7.452   9.478  13.416 -0.1273  0.0588 -0.0339
17630W        W33764  13.120  15.558   3.850 -0.1549 -0.0658  0.1711
17631W        W33765   1.286   1.561  12.395 -0.0792 -0.0487  0.1891
17632W        W33766   0.296  16.043   3.833  0.1523  0.3019  0.0587
17633W        W33767  10.155  14.691   1.272 -0.0417 -0.0234  0.0315
17634W        W33768   7.720   0.785   5.054 -0.0976  0.1068 -0.2116
17635W        W33769  15.579   8.520   0.873 -0.1602 -0.1241  0.1357
17636W        W33770  15.597  17.075  15.178  0.3184  0.1634  0.2295
17637W        W33771  16.120   6.181  14.003 -0.4076 -0.0648  0.0851
17638W        W33772  16.925   8.480  16.499 -0.0296 -0.1116 -0.2634
17639W        W33773   6.106   9.788   5.793  0.1515  0.0440 -0.2628
17640W        W33774  10.606   6.241   2.796  0.0282  0.0776  0.1360
17641W        W33775   7.249   8.782  14.915 -0.0775  0.3283  0.0001
17642W        W33776  11.107  11.915   0.110 -0.2725 -0.2050  0.1285
17643W        W33777  13.217   5.185  15.198 -0.1820  0.0882 -0.0877
17644W        W33778  11.081   0.977  13.408  0.0617 -0.0303 -0.0513
17645W        W33779  16.101   3.546  16.407  0.0024  0.0059 -0.0082
17646W        W33780   3.384   5.841   5.124  0.0565 -0.0916 -0.0782
17647W        W33781   6.454   9.277  15.036 -0.0330 -0.1117 -0.0038
17648W        W33782  17.109   0.305  14.251 -0.1245  0.1796 -0.2653
17649W        W33783   9.061  17.490   4.123  0.3800 -0.1188  0.3966
17650W        W33784  16.614  16.415  13.255 -0.1488  0.0959  0.0864
17651W        W33785   0.279   2.525  15.029  0.0590 -0.1275  0.0104
17652W        W33786   5.789   8.621  16.089 -0.0719  0.0241  0.1318
17653W        W33787  13.702   9.194  13.152  0.0173 -0.0979 -0.0257
17654W        W33788   9.220   4.166  14.448  0.0112  0.0238 -0.0018
17655W        W33789   9.932   4.449  12.568 -0.2431  0.0221  0.1123
17656W        W33790   9.756   4.082   4.270 -0.0483  0.0870 -0.0911
17657W        W33791  11.832  16.706   4.539 -0.1667  0.2190 -0.3613
17658W        W33792   1.598   7.454   5.430 -0.0533 -0.0483  0.0397
17659W        W33793  16.137   5.796  11.870  0.3171 -0.2195  0.1200
17660W        W33794   8.676  12.645  12.575  0.0338 -0.0124 -0.4237
17661W        W33795   3.606  10.978   4.017 -0.1699  0.2687 -0.1143
17662W        W33796  17.465   2.120   4.822 -0.4713 -0.0744 -0.1255
17663W        W33797   3.982   1.454   5.612  0.2633  0.1919  0.0624
17664W        W33798   5.927  16.924   0.886 -0.0983  0.1262 -0.2169
17665W        W33799  12.582  10.851  14.580 -0.1566  0.2180 -0.0474
17666W        W33800   1.851   6.493  16.192  0.2557  0.0721  0.0925
17667W        W33801  12.530  12.802  16.951 -0.3115 -0.0462 -0.0121
17668W        W33802   4.225  10.453  13.041 -0.2332 -0.0411  0.0722
17669W        W33803  13.832   7.197   5.468  0.3852  0.2458  0.0921
17670W        W33804   2.113   3.430  12.655  0.1712 -0.0072 -0.1931
17671W        W33805  15.131   3.878   1.454  0.0384  0.0431 -0.2025
17672W        W33806  14.130  11.245   5.052  0.0005  0.2403 -0.1978
17673W        W33807   1.167  11.456  13.539 -0.0090 -0.2851  0.0314
17674W        W33808   0.694  10.547  14.135  0.2220  0.2686 -0.1284
17675W        W33809   9.323  15.044  14.571  0.1060 -0.0394  0.0850
17676W        W33810   4.333  11.149   3.289 -0.2400 -0.2312  0.2366
17677W        W33811  13.416   3.767   5.173  0.1425  0.0264 -0.0775
17678W        W33812   0.781  11.675  15.797  0.0752 -0.0829  0.1748
17679W        W33813  13.184   0.857   1.354 -0.3695 -0.1928 -0.1031
17680W        W33814   3.681  15.695   1.650  0.1699 -0.3569  0.0103
17681W        W33815  14.146  14.593  15.590 -0.3080 -0.0550  0.0506
17682W        W33816   2.381  14.398   5.409 -0.1536  0.0589 -0.0732
17683W        W33817   1.134  14.894   6.075 -0.0480  0.1503 -0.0040
17684W        W33818   2.279  11.585  12.218 -0.2414 -0.1873  0.0134
17685W        W33819  11.222   9.899   5.254  0.2436 -0.0004  0.0573
17686W        W33820   2.874   0.074  13.982 -0.0691 -0.3449 -0.0977
17687W        W33821   0.337   6.801  11.431  0.0464 -0.1109 -0.0588
17688W        W33822   8.071   9.421   5.957 -0.1906 -0.2340  0.0643
17689W        W33823   4.810   7.434   0.590 -0.0308 -0.1351  0.1422
17690W        W33824   7.406   5.714  14.020  0.0529  0.1859 -0.0950
17691W        W33825   4.325  10.401  15.725 -0.2553  0.0107 -0.1524
17692W        W33826   4.893  12.547  12.243  0.1476  0.0465  0.1058
17693W        W33827   2.012  17.424   6.492  0.0897 -0.1048  0.2643
17694W        W33828  10.455  12.433   4.317  0.3937 -0.0668 -0.2914
17695W        W33829  12.926   5.734  13.346 -0.2698  0.2859 -0.1742
17696W        W33830  15.759  10.453  14.067  0.1218  0.0109  0.5380
17697W        W33831  13.920  15.347  11.173 -0.1963 -0.1092  0.1047
17698W        W33832   2.273  14.440   0.106 -0.1011  0.1227 -0.2032
17699W        W33833   5.810   4.804  12.791  0.1362  0.1104  0.1013
17700W        W33834  15.185   8.730   4.400  0.0394  0.1605  0.1355
17701W        W33835  15.349   2.128   3.946 -0.5859 -0.1693 -0.1235
17702W        W33836   2.136   0.697   4.632  0.0523 -0.2073  0.0254
17703W        W33837  15.469  16.782   4.366  0.0499 -0.2560 -0.0313
17704W        W33838  17.329  16.212  12.859 -0.1888  0.0858 -0.0232
17705W        W33839  15.464  17.009   5.203  0.0000  0.0517  0.5015
17706W        W33840  13.734   6.542   6.068 -0.4189  0.5254 -0.2140
17707W        W33841   4.901   9.745  16.207 -0.1629  0.0785  0.1104
17708W        W33842   9.535   3.501   3.409 -0.0222 -0.1791 -0.0992
17709W        W33843  17.173   3.283   1.972  0.1483 -0.2569 -0.1631
17710W        W33844  16.007  15.605  14.280 -0.3137  0.1451 -0.0726
17711W        W33845  15.025   5.691  14.865 -0.0003 -0.0957  0.3338
17712W        W33846  11.946  11.216   0.721 -0.1802 -0.1318 -0.1225
17713W        W33847   2.971   7.154   5.626 -0.1197  0.4081 -0.0858
17714W        W33848  12.860  11.232   4.501 -0.2586  0.0229  0.1161
17715W        W33849  15.048  16.031  16.035  0.1970 -0.0399  0.1804
17716W        W33850   0.522  15.270   2.201 -0.0899  0.0124  0.0583
17717W        W33851   1.169   1.675   5.986  0.0258  0.2554 -0.1150
17718W        W33852  10.675   6.734   2.353 -0.0433 -0.0310  0.1132
17719W        W33853  14.785   3.416   1.371  0.2296  0.1873  0.0248
17720W        W33854  15.409   3.859  13.928 -0.2255  0.0598 -0.0171
17721W        W33855   0.246  14.009   2.863 -0.1084  0.2463  0.0623
17722W        W33856   4.665   2.944  15.591  0.0322 -0.1564  0.0754
17723W        W33857   7.929  11.202  15.509 -0.0159 -0.1450  0.1318
17724W        W33858  12.240  11.924  13.818  0.0055  0.1119  0.3221
17725W        W33859   2.756  16.013   4.973 -0.1656  0.0778 -0.1062
17726W        W33860  10.422   7.290   0.322  0.1070 -0.4133 -0.2456
17727W        W33861  13.950   7.833  15.938  0.2672 -0.1562 -0.2332
17728W        W33862   9.136   1.094   0.677 -0.0152 -0.1615  0.1628
17729W        W33863   5.418  10.847  15.017  0.0398  0.1213  0.1043
17730W        W33864  15.552  12.175  14.592 -0.2077 -0.2344 -0.0081
17731W        W33865   4.578  14.496  12.690 -0.1263 -0.2333 -0.1034
17732W        W33866   7.423  11.972  15.264  0.2021  0.0491 -0.0701
17733W        W33867   1.161   3.405  15.345 -0.1692  0.0342 -0.1472
17734W        W33868  14.097   7.024  15.114 -0.0558 -0.3644  0.0293
17735W        W33869  13.511   6.028  14.253 -0.3307 -0.0951  0.0146
17736W        W33870   9.365   3.644   1.608  0.0500  0.2613  0.2660
17737W        W33871   0.185   6.558  15.610  0.1130 -0.3086 -0.0798
17738W        W33872  11.619  11.976   5.535 -0.0171 -0.4036  0.0320
17739W        W33873   1.057  10.331  11.765 -0.1753 -0.1156 -0.1896
17740W        W33874   4.513   4.202  16.849  0.1671  0.0896 -0.0997
17741W        W33875   8.551   3.060  12.792 -0.1012  0.1158  0.1044
17742W        W33876   0.954  12.644  14.022  0.1121 -0.2341 -0.0375
17743W        W33877   8.650   3.947  13.821 -0.0217  0.1314  0.2328
17744W        W33878  12.302   6.095   3.705 -0.2220 -0.2350  0.0902
17745W        W33879   7.709   6.616   4.916  0.1086  0.1815  0.0739
17746W        W33880   6.138   6.446  13.881 -0.0965 -0.2633 -0.2031
17747W        W33881   0.434  15.747   5.309 -0.3189  0.0200 -0.1171
17748W        W33882   4.515  14.063   6.035  0.0737  0.1603  0.1421
17749W        W33883  11.110   9.178  16.628 -0.1496  0.1015  0.0291
17750W        W33884  17.663   3.003  15.874 -0.1169  0.0528 -0.0545
17751W        W33885   0.151   9.083   4.392  0.0700  0.0925  0.2643
17752W        W33886  14.205   4.417  11.384  0.1718  0.2773 -0.1699
17753W        W33887  13.683  16.815   0.639  0.4390  0.1774 -0.3363
17754W        W33888  11.981   1.897   1.594 -0.1639  0.2025 -0.0361
17755W        W33889  12.796  15.950  11.993  0.0180 -0.1089 -0.1829
17756W        W33890   8.325   1.961   4.644 -0.2937  0.1630  0.1710
17757W        W33891  16.899   8.712  15.079  0.1492 -0.0915 -0.0766
17758W        W33892  17.535  13.459   5.435 -0.0575  0.2326 -0.0773
17759W        W33893  11.828   6.004  13.697 -0.0132  0.3513  0.0081
17760W        W33894   3.736   3.522  13.552 -0.0264 -0.1377  0.2045
17761W        W33895  12.264   9.167  15.929  0.1257 -0.0759 -0.0112
17762W        W33896   0.957   0.023  12.890  0.3341 -0.0767 -0.3640
17763W        W33897   9.571  13.665  15.292 -0.1791  0.1955  0.1861
17764W        W33898   7.987  12.406  14.006 -0.2244 -0.0612  0.2677
17765W        W33899  13.182   1.217   3.163 -0.2178 -0.1229  0.0701
17766W        W33900   0.581   2.523  15.589 -0.4229  0.2368  0.1330
17767W        W33901   6.509   2.546  14.851  0.0002  0.1024 -0.0944
17768W        W33902   8.069  10.390  12.667 -0.1747 -0.1265 -0.2647
17769W        W33903  10.467   2.533  15.847 -0.0188  0.2700  0.0595
17770W        W33904   6.371  12.788  13.021  0.1405  0.1806  0.3231
17771W        W33905  10.735   8.378  12.837  0.0212 -0.0602  0.3834
17772W        W33906   4.620  12.336   3.403 -0.0558  0.1887  0.2697
17773W        W33907  12.260  17.136   3.477 -0.0768 -0.2650 -0.2523
17774W        W33908  13.105   3.619  13.636  0.1311  0.0869 -0.3579
17775W        W33909  13.010   9.247   4.652 -0.0428  0.0179 -0.0921
17776W        W33910   0.633   8.845  15.811 -0.0296  0.1870  0.0852
17777W        W33911   1.571   2.363   1.931  0.2501 -0.0202  0.0378
17778W        W33912  17.400  12.533  15.017 -0.1322  0.0810  0.3020
17779W        W33913  15.712   3.291   5.490  0.0580  0.2601 -0.0739
17780W        W33914   8.836  10.171   0.128  0.1706 -0.1161  0.0880
17781W        W33915  13.304   8.079  13.047  0.2398 -0.1613 -0.0294
17782W        W33916   0.690  10.949  15.121  0.0028 -0.1032 -0.2959
17783W        W33917  12.013   6.075  15.991  0.0198  0.0420 -0.1733
17784W        W33918   8.941  12.808  13.425 -0.0160 -0.2081 -0.2025
17785W        W33919  17.371   0.598  15.148  0.0715 -0.1076 -0.0967
17786W        W33920   1.639  16.853   6.024  0.1284  0.1235 -0.0297
17787W        W33921  11.372  17.225   2.700 -0.3826 -0.1648 -0.1179
17788W        W33922   4.528  10.521  16.169 -0.0575  0.0452  0.2493
17789W        W33923   1.829  15.828  15.520 -0.0856  0.2935 -0.3844
17790W        W33924   0.565   5.675   4.490 -0.0377  0.0609 -0.1850
17791W        W33925   9.369   8.059  11.931 -0.3983 -0.2334 -0.1465
17792W        W33926   8.104   5.022  12.580 -0.1128  0.2820 -0.0895
17793W        W33927   9.287  10.375  11.756  0.2398 -0.2369 -0.1265
17794W        W33928  11.214   9.289  14.810 -0.0420  0.4437  0.1578
17795W        W33929  14.092  13.986   4.421 -0.0182 -0.1855  0.1237
17796W        W33930  16.901  11.527   3.660 -0.1822 -0.5228 -0.0305
17797W        W33931  14.569   0.181  12.233  0.0078 -0.2964  0.4175
17798W        W33932  13.948   1.400   6.216  0.1098 -0.2728  0.0791
17799W        W33933   1.685  16.450  14.803  0.0801 -0.2078 -0.0832
17800W        W33934  11.526   5.891  13.309 -0.0047 -0.1115 -0.0951
17801W        W33935  14.234  11.855   3.306  0.1404 -0.1060 -0.1974
17802W        W33936  13.789  14.518  13.585 -0.4852  0.0954  0.0016
17803W        W33937  14.495  10.923   4.870 -0.0813 -0.0298  0.1072
17804W        W33938  15.227  13.286   4.928  0.1037 -0.1109  0.1731
17805W        W33939  13.436  16.091   2.864 -0.3184 -0.0019  0.0341
17806W        W33940   4.326   9.047   4.079 -0.0125  0.2820 -0.3517
17807W        W33941   3.443   1.926  11.690  0.0342 -0.2039 -0.0722
17808W        W33942  13.714  13.736  13.256  0.0011  0.0797 -0.0002
17809W        W33943   5.990  16.476  14.288  0.0316  0.1080  0.1973
17810W        W33944   1.843  12.659   4.755 -0.3714  0.2966  0.1105
17811W        W33945  16.238   6.871   3.459  0.2917 -0.0905  0.1590
17812W        W33946  17.211  12.697   4.896 -0.0023 -0.2043  0.1852
17813W        W33947  12.619   6.025   2.648 -0.0450 -0.1322  0.4819
17814W        W33948   5.561   4.222   6.126 -0.2096  0.0504  0.0503
17815W        W33949   9.841  16.724  13.877  0.0706 -0.0025 -0.2183
17816W        W33950  17.594  10.552  12.760  0.0152  0.2370 -0.0289
17817W        W33951  11.251   0.244   0.088  0.0710 -0.0097 -0.2274
17818W        W33952   0.204  15.979   0.417  0.1717  0.0013  0.2753
17819W        W33953  14.153  10.067   0.019  0.1235 -0.2297  0.0701
17820W        W33954  11.585   4.234  12.278 -0.4269  0.0388 -0.0057
17821W        W33955   5.706   0.032   4.386 -0.1144  0.1573 -0.2185
17822W        W33956   4.984   2.159  16.583 -0.0295 -0.0625 -0.1112
17823W        W33957   7.956   7.995  12.850  0.0572 -0.1598 -0.1230
17824W        W33958  14.868   6.445   6.332  0.1801  0.1618 -0.3332
17825W        W33959  16.334  15.300  15.960 -0.4313  0.1532  0.1265
17826W        W33960  12.663  16.492   1.815 -0.1096  0.0144 -0.3353
17827W        W33961   7.576  15.620  14.538  0.1451  0.0039 -0.0635
17828W        W33962   0.163  13.157   2.214 -0.0767 -0.0881 -0.2665
17829W        W33963   4.215  10.714  11.930 -0.0648  0.2162 -0.0238
17830W        W33964  13.962   2.034   5.395  0.3324 -0.1183 -0.2308
17831W        W33965   1.914   6.337  15.115  0.0236 -0.0559 -0.1359
17832W        W33966   6.184   7.724   0.755  0.0665 -0.2912 -0.1414
17833W        W33967  12.315  15.699   0.806 -0.1988  0.1554 -0.2841
17834W        W33968   4.799   8.798   3.133 -0.1663 -0.0619 -0.0400
17835W        W33969   7.564  11.891  16.194  0.1306 -0.0274  0.1351
17836W        W33970   5.498   2.910   0.949  0.0870  0.1399 -0.0353
17837W        W33971   0.146   0.380   2.533  0.1085 -0.3115 -0.1328
17838W        W33972  14.343  14.139  12.797  0.2070 -0.3317  0.2047
17839W        W33973   8.208   3.805  14.576  0.0865  0.0236  0.0670
17840W        W33974   1.938   5.285  13.438 -0.1111 -0.2811 -0.0551
17841W        W33975   3.448   4.158   3.031  0.1300  0.1684 -0.0010
17842W        W33976   4.265  10.669   5.082  0.1763 -0.3795 -0.2173
17843W        W33977   1.157  10.962   2.365  0.2269 -0.4234  0.2582
17844W        W33978   7.985   5.680  16.435  0.0828  0.1234 -0.1300
17845W        W33979  17.323  14.899   1.485 -0.1088 -0.0737  0.2810
17846W        W33980   3.896   2.453   1.829 -0.2206  0.2193  0.1537
17847W        W33981   2.135   7.486  14.625  0.1514  0.1681  0.0053
17848W        W33982  16.897   9.848   5.161 -0.2236 -0.0467  0.1431
17849W        W33983   1.509  16.487   0.407  0.0704 -0.0324 -0.3443
17850W        W33984  12.915  12.042   4.514  0.0007  0.0297  0.1652
17851W        W33985   8.159   8.598   4.103  0.2378  0.1393 -0.2946
17852W        W33986  16.941   6.392  16.455  0.0101  0.1026  0.0320
17853W        W33987   3.378  12.504   6.174 -0.0289 -0.0150  0.2732
17854W        W33988   2.598   9.938   6.031 -0.0228  0.3707 -0.2575
17855W        W33989   3.256   1.536  13.612  0.0189  0.0160  0.0068
17856W        W33990   8.409  12.278  12.075  0.2633  0.0960  0.0710
17857W        W33991   9.298   0.081  16.252 -0.0228 -0.0508  0.2045
17858W        W33992   0.735  12.780   0.454 -0.1754 -0.2379  0.0770
17859W        W33993   5.430   3.182   2.664 -0.2166 -0.4126 -0.0340
17860W        W33994  13.345  10.430   2.614 -0.1973  0.1434  0.2198
17861W        W33995  13.734  15.350  16.272  0.0819 -0.0974  0.0667
17862W        W33996   2.995   3.954  12.298  0.1215  0.1421 -0.0053
17863W        W33997  13.509   5.685  14.602 -0.4104 -0.1012 -0.2950
17864W        W33998   2.941  11.775  13.989  0.3657  0.2877  0.0620
17865W        W33999   1.757   0.004  15.248 -0.1307 -0.0276  0.1356
17866W        W34000   2.919  15.751  16.961 -0.1079 -0.3716  0.2121
17867W        W34001  15.214   2.396  13.117  0.0276  0.2024 -0.1252
17868W        W34002  16.876  16.022  15.823 -0.1535  0.1640 -0.1955
17869W        W34003  10.322  10.298  12.510 -0.0459 -0.1743 -0.0629
17870W        W34004   3.950   3.752   0.781 -0.1468  0.0454  0.1677
17871W        W34005  10.615   1.655   2.865  0.0119 -0.1742 -0.0311
17872W        W34006   6.758   4.625   3.394 -0.0462  0.0359 -0.1056
17873W        W34007   2.236   9.107  16.309 -0.0469 -0.1101  0.1935
17874W        W34008  17.189   5.323  12.447  0.3876 -0.2241  0.1446
17875W        W34009   2.007   4.176   2.764 -0.3220 -0.0143 -0.0110
17876W        W34010  12.769  16.994   3.361 -0.2527 -0.1093 -0.1337
17877W        W34011  16.353   0.930   2.491 -0.0074 -0.1069 -0.1133
17878W        W34012  16.323  12.079   1.867 -0.1580  0.1232  0.1244
17879W        W34013   6.798   9.803   3.746 -0.1652 -0.0451  0.0354
17880W        W34014  12.626  12.011   1.771 -0.0197 -0.0486 -0.0538
17881W        W34015  14.625   6.600  13.902 -0.1487  0.0802  0.0358
17882W        W34016   4.894   0.395   4.787 -0.0118 -0.1232 -0.2676
17883W        W34017   4.265   0.578   4.150  0.2913  0.2084  0.0601
17884W        W34018   1.205   1.760   4.989  0.0537 -0.0158 -0.0217
17885W        W34019   7.376  11.958  12.837  0.1163 -0.0096  0.0875
17886W        W34020   2.985  11.214   4.804 -0.2736 -0.0226  0.0806
17887W        W34021  16.263  16.407   1.397 -0.1220 -0.1006  0.3709
17888W        W34022   7.653   2.653  15.101  0.0342 -0.3794 -0.2181
17889W        W34023   9.907   7.528   0.266  0.1485 -0.1392 -0.0691
17890W        W34024  12.355   2.222   0.163 -0.1345 -0.0385 -0.2029
17891W        W34025   9.580  11.598  16.638  0.1754  0.0321  0.0929
17892W        W34026  16.959  17.134  14.589  0.1983 -0.2500 -0.0001
17893W        W34027   7.730   4.957   3.636  0.0629 -0.1850 -0.1980
17894W        W34028   2.852   7.922   1.388  0.1476 -0.0025  0.1363
17895W        W34029  12.933   2.608   2.869  0.1151  0.1099  0.1710
17896W        W34030  11.681   9.672   5.309  0.3457 -0.0802  0.0096
17897W        W34031   1.162   5.528  12.838 -0.2204 -0.0565  0.0108
17898W        W34032   8.792   2.539   0.054 -0.2225 -0.0844 -0.0673
17899W        W34033   4.403  14.330   2.298 -0.3515  0.0821  0.0519
17900W        W34034   4.760  10.317   4.560 -0.1886  0.1204 -0.1920
17901W        W34035   8.019   4.712  13.231  0.2530 -0.0304 -0.1289
17902W        W34036  10.744  11.325  16.051 -0.0874  0.3197 -0.2286
17903W        W34037  11.431   2.824  13.099 -0.0325  0.0962  0.0191
17904W        W34038   0.049   1.660  12.799  0.0564 -0.1391  0.3837
17905W        W34039  12.343   0.146  15.512  0.1172 -0.0098 -0.0080
17906W        W34040  11.482   5.547  13.691 -0.0914 -0.3063  0.0491
17907W        W34041   0.876   4.611   2.569 -0.1564  0.2218 -0.1171
17908W        W34042   1.606   2.823  13.426 -0.2836  0.0486  0.1715
17909W        W34043   4.415   1.681   3.671  0.0144  0.1274  0.1919
17910W        W34044   8.413  14.257   6.250 -0.4122  0.0921  0.2343
17911W        W34045   5.310   6.492  12.034 -0.0595 -0.1838 -0.1875
17912W        W34046  16.535   5.617   3.119  0.0112  0.1440 -0.0999
17913W        W34047   5.355   2.204   0.306  0.1423 -0.1933  0.1274
17914W        W34048  15.477  14.308  14.596  0.0321 -0.1682 -0.3214
17915W        W34049   1.303   3.601  14.813 -0.0215  0.0395 -0.0483
17916W        W34050   9.099   2.497   2.771  0.0345 -0.0895  0.0556
17917W        W34051   3.849  11.671  15.708  0.1190 -0.2959  0.2766
17918W        W34052   6.551   1.356   5.505  0.0581 -0.0001  0.5416
17919W        W34053  16.870   3.789   0.821  0.2251  0.3043  0.0557
17920W        W34054   8.985   4.352   4.263 -0.0004  0.0740  0.3685
17921W        W34055   1.415  10.808   3.408 -0.0387  0.2169 -0.0296
17922W        W34056   9.178   4.401   0.113 -0.1105  0.0184 -0.1876
17923W        W34057  14.008  10.868   3.169 -0.0879 -0.1170 -0.1902
17924W        W34058   9.428   4.849  13.057  0.1385 -0.2537 -0.0387
17925W        W34059  12.694  17.571  13.359 -0.3524 -0.0732 -0.0068
17926W        W34060  13.556   5.732  15.744  0.0378  0.1151  0.1336
17927W        W34061   6.376  10.562   4.735 -0.2211  0.2207 -0.0061
17928W        W34062  15.675   6.257  13.812 -0.1117  0.1043  0.2865
17929W        W34063   8.559   6.861   2.902 -0.1454  0.0659  0.1471
17930W        W34064   9.971  10.918  14.074  0.2275  0.3604  0.4039
17931W        W34065   6.377  14.614   4.141  0.2950 -0.0651  0.2665
17932W        W34066  16.665   4.205  12.048 -0.1429 -0.0210  0.1312
17933W        W34067  10.952  10.770   3.280  0.1446  0.1612  0.1537
17934W        W34068   1.118   3.175   0.224 -0.0749  0.3547 -0.4161
17935W        W34069  16.024  13.145  13.975  0.1436  0.3724 -0.1568
17936W        W34070  12.759  16.999  13.264  0.2050  0.2435 -0.0548
17937W        W34071   5.833  10.113  12.835 -0.2525 -0.0608  0.1025
17938W        W34072   5.144  17.026   3.057 -0.1212 -0.1851  0.3058
17939W        W34073  12.046   1.423   2.680  0.0053  0.0737  0.1184
17940W        W34074   7.096  17.303  15.521  0.2584  0.0033  0.0559
17941W        W34075  11.228  17.513  15.156  0.0157 -0.2597 -0.0464
17942W        W34076  12.551  11.185  15.451 -0.0241 -0.0046 -0.1381
17943W        W34077  15.945   2.817   4.624 -0.4132 -0.0319  0.1457
17944W        W34078   2.707   6.046   5.216 -0.0827  0.0891  0.4057
17945W        W34079  10.520   4.950  11.651 -0.1974  0.0635  0.1916
17946W        W34080   4.785  17.612  16.530 -0.0515  0.2875  0.0878
17947W        W34081  13.532   0.655   2.025 -0.1005 -0.0505 -0.2759
17948W        W34082  10.196   5.819  14.213 -0.0609  0.0166  0.1684
17949W        W34083   1.988  11.518  16.560 -0.0882  0.1810  0.2057
17950W        W34084  15.113  12.969   2.483 -0.0759 -0.2966 -0.0037
17951W        W34085  16.646   9.991   1.073 -0.0291 -0.2759 -0.0580
17952W        W34086   6.232   3.017   5.007  0.3409  0.1823  0.2444
17953W        W34087  14.453   9.049  16.918  0.1034 -0.1194  0.1527
17954W        W34088   1.284   5.601  15.559 -0.0665 -0.0677 -0.2009
17955W        W34089  13.672   7.215   1.401 -0.0984 -0.2258  0.0132
17956W        W34090   8.086   9.519  15.057 -0.1863  0.0051  0.2371
17957W        W34091  12.749  16.364  14.291  0.0929  0.1014 -0.3182
17958W        W34092   3.494   5.887   0.135 -0.2466  0.1857  0.2516
17959W        W34093   3.053   7.881   4.082  0.1579 -0.3368  0.0606
17960W        W34094   5.026   0.321  15.083  0.1304 -0.0205  0.0262
17961W        W34095   1.046  10.453  13.098  0.2683  0.0395 -0.1626
17962W        W34096  13.636   8.422  16.631  0.0945 -0.0136 -0.0505
17963W        W34097   5.288   9.255   5.842 -0.0248 -0.2245  0.0324
17964W        W34098   8.863  15.307   1.791  0.0543  0.1019  0.2370
17965W        W34099   1.243  10.833   0.099  0.1639  0.1900 -0.1548
17966W        W34100  14.307  13.319   2.942  0.0892  0.0588 -0.1145
17967W        W34101  17.598   2.753   3.743  0.0244  0.1853 -0.3077
17968W        W34102   8.325   8.808  13.143 -0.1890  0.2394 -0.1308
17969W        W34103  10.051   6.835   3.371  0.4383 -0.1259 -0.0437
17970W        W34104  13.290   5.511   3.139  0.0119  0.0647 -0.2521
17971W        W34105  17.651  13.650  13.139 -0.1075 -0.2568  0.0881
17972W        W34106   1.586  15.521   1.421 -0.2477  0.1139 -0.1336
17973W        W34107   8.342  15.600   0.238  0.0597 -0.0183 -0.0627
17974W        W34108   7.503   7.815  13.964 -0.0761 -0.1902  0.1599
17975W        W34109   9.421  11.914   4.774  0.0263 -0.1152 -0.0447
17976W        W34110  14.085  17.449   1.128  0.1213 -0.3065  0.1160
17977W        W34111   2.735  12.426  14.984 -0.2084 -0.1404 -0.1854
17978W        W34112   7.977  16.972   3.140  0.1796  0.0694 -0.3587
17979W        W34113   7.998   0.458  16.502  0.0761  0.2219  0.1030
17980W        W34114   9.752   6.317  14.223  0.0770  0.2134  0.0472
17981W        W34115  14.116  12.016   1.553  0.1788  0.0774  0.0288
17982W        W34116   3.080   8.129  16.859 -0.0731 -0.1880 -0.0630
17983W        W34117   5.997  13.642  15.602 -0.1280  0.2016  0.3471
17984W        W34118   8.716  12.151   4.490  0.2631  0.3179 -0.4819
17985W        W34119   2.046   7.553  15.244 -0.0578 -0.3687  0.0050
17986W        W34120   7.891   1.009  14.461 -0.1128  0.2512  0.0761
17987W        W34121  17.017   5.618  11.842  0.1100 -0.0009 -0.1239
17988W        W34122  16.130  14.279  13.326  0.0026  0.0548  0.0780
17989W        W34123  16.849   5.758  16.422 -0.0479 -0.1353  0.0729
17990W        W34124  14.195  16.311  15.595 -0.1304  0.4093 -0.2779
17991W        W34125   5.690  16.073  16.204 -0.3179 -0.0642 -0.0336
17992W        W34126   6.442  17.061   5.380 -0.1434 -0.1168 -0.0914
17993W        W34127   5.767  10.208   1.522  0.3288  0.0383  0.0550
17994W        W34128   1.355   8.686   0.046 -0.1818  0.0137 -0.1061
17995W        W34129  10.314   6.681  15.268  0.1159 -0.3571 -0.0158
17996W        W34130   0.076   0.832  16.862 -0.3538  0.2424 -0.0880
17997W        W34131   4.389   7.007  15.254 -0.1652 -0.0919 -0.0387
17998W        W34132  15.788  12.456  16.017 -0.1194  0.0457 -0.1392
17999W        W34133  12.061  12.399   3.010 -0.0004 -0.2614  0.0719
18000W        W34134   9.702   1.873   3.481 -0.2067  0.0673 -0.2381
18001W        W34135   3.478   3.780   4.578 -0.1351  0.0131 -0.1871
18002W        W34136   1.572   3.264  15.106  0.2257 -0.3552  0.2205
18003W        W34137   2.122   3.565  15.778  0.0173  0.3825  0.4527
18004W        W34138   2.613   3.415  12.962  0.0576 -0.2230 -0.0771
18005W        W34139   8.062   1.378  15.752  0.4719 -0.2838 -0.1584
18006W        W34140  16.738  16.150   0.008 -0.0685 -0.0155 -0.3070
18007W        W34141  17.260  17.518  14.462  0.0446  0.0827 -0.1211
18008W        W34142  12.577  10.396  14.786  0.0403  0.0375  0.1424
18009W        W34143  12.498   0.094  15.983  0.3860 -0.0486 -0.3992
18010W        W34144   4.199  15.194   4.022  0.0155 -0.1552 -0.0175
18011W        W34145   5.874  13.647  14.145 -0.0099 -0.0119  0.1371
18012W        W34146   5.337  12.662  15.460  0.3969  0.0854 -0.3138
18013W        W34147  15.148  15.970  17.170  0.1662  0.2055  0.1034
18014W        W34148   9.792   7.784   3.715  0.0598  0.0362  0.1561
18015W        W34149  12.331  10.337  11.723  0.0889  0.0498  0.0941
18016W        W34150   8.822   2.284   3.137 -0.0605  0.1326 -0.0197
18017W        W34151   1.370   7.065  17.036 -0.2133 -0.1380 -0.5027
18018W        W34152   6.845   3.789   0.108  0.0090  0.0170 -0.0341
18019W        W34153   7.624   4.724  16.193  0.2560 -0.1026 -0.1146
18020W        W34154  15.849  14.542   4.687  0.0117  0.2631 -0.3463
18021W        W34155   8.190   3.388  15.787  0.0637 -0.2057  0.1213
18022W        W34156   1.494   9.532   0.377  0.0277 -0.1678  0.0945
18023W        W34157  14.856   8.737  16.977  0.1710 -0.2968 -0.1462
18024W        W34158  17.504  16.489   3.168 -0.1163  0.2806 -0.0628
18025W        W34159  15.168   5.674   2.445 -0.2858 -0.0370  0.2137
18026W        W34160   1.596  17.555  16.983 -0.3015 -0.1854  0.2423
18027W        W34161   1.622  15.864   3.968 -0.5956 -0.1240 -0.0464
18028W        W34162   2.535  10.804  14.093 -0.0767 -0.0752  0.3456
18029W        W34163   7.328  11.179  16.919 -0.1999 -0.3806 -0.0477
18030W        W34164  16.929   5.950  13.152 -0.1225 -0.0468 -0.1454
18031W        W34165  12.654  11.761   0.079  0.2073 -0.0284 -0.1093
18032W        W34166   7.342  16.130  15.162  0.0378 -0.1007 -0.0711
18033W        W34167   7.542   9.061  13.629  0.0397 -0.2120  0.0074
18034W        W34168  11.280  10.424  12.614 -0.1813  0.0340  0.2711
18035W        W34169  13.980   8.094   4.941 -0.0099  0.0369 -0.1124
18036W        W34170  11.224   2.247   6.474 -0.1536 -0.2615  0.0972
18037W        W34171   3.111   8.075  11.837  0.2574 -0.2231 -0.0162
18038W        W34172   4.254   3.696  16.015  0.3255  0.1936  0.2761
18039W        W34173  14.732   7.244  12.822  0.1824 -0.0080 -0.0715
18040W        W34174   9.292   4.971  11.931  0.0365  0.2759  0.0619
18041W        W34175   7.035   8.409  16.249 -0.3851 -0.0920  0.1251
18042W        W34176  12.781  10.743   0.468  0.0137  0.1149  0.1721
18043W        W34177   0.189   8.393  10.406 -0.0341 -0.2078  0.1303
18044W        W34178  12.293  16.447  14.080 -0.0540 -0.0026 -0.4870
18045W        W34179   5.334  10.306  12.750 -0.0432  0.2587 -0.2816
18046W        W34180  15.404  15.242  12.625 -0.3080 -0.3040 -0.1796
18047W        W34181   4.727  15.243   5.391 -0.0442  0.1759  0.2061
18048W        W34182   5.196  12.039   2.317  0.2471 -0.3516  0.0976
18049W        W34183   4.973   8.157   0.500  0.0859 -0.0559  0.0646
18050W        W34184  10.382   1.866  13.126 -0.1401 -0.1808 -0.0920
18051W        W34185  14.408   9.376   0.236  0.1196  0.1323 -0.1158
18052W        W34186  10.181   8.837   0.909  0.0289  0.0769  0.2548
18053W        W34187   4.566   8.136   0.153  0.2674  0.0274  0.1794
18054W        W34188   3.073   9.836   2.762  0.1275 -0.4797  0.0468
18055W        W34189  15.384  15.534  16.663  0.1077 -0.3638 -0.1647
18056W        W34190  11.850  13.007   1.490 -0.1101  0.1358  0.1353
18057W        W34191  11.437   7.439  16.736 -0.0175  0.2036 -0.0392
18058W        W34192   2.299   2.384  11.492  0.0392 -0.3330 -0.1946
18059W        W34193  10.175   3.435   0.431  0.0387 -0.0150 -0.2099
18060W        W34194   3.267  14.011  14.663 -0.2414 -0.1399  0.0666
18061W        W34195   1.474   2.187   2.449  0.2840  0.2461 -0.0138
18062W        W34196  10.076  10.740   3.398  0.1979 -0.1567 -0.0002
18063W        W34197  14.409  13.948   3.872  0.1003  0.2900 -0.1518
18064W        W34198  13.760   1.147  15.040 -0.1677 -0.0159  0.1469
18065W        W34199   2.411   8.074   4.990  0.1176 -0.0057  0.0989
18066W        W34200   7.756  12.895   0.995  0.3065 -0.0381  0.1208
18067W        W34201  15.262   2.958   0.833  0.1710 -0.1414 -0.0773
18068W        W34202   5.224   9.661   1.156  0.0216 -0.0418  0.1966
18069W        W34203  10.681   5.604   0.488 -0.1235  0.1023 -0.3266
18070W        W34204   6.603   6.239   3.688  0.1156 -0.0795  0.0221
18071W        W34205  17.127   5.040  12.054  0.0182 -0.0152  0.0387
18072W        W34206   6.902   2.360  12.352 -0.2101 -0.0363  0.1473
18073W        W34207  16.632   2.305  16.343 -0.2743 -0.0090 -0.0394
18074W        W34208   9.360  16.838  13.237  0.0697 -0.4348  0.1767
18075W        W34209   0.536   4.989   6.117  0.0671  0.1473  0.1168
18076W        W34210  16.421  16.949   0.796  0.1625 -0.2252 -0.0238
18077W        W34211   0.318  12.627   5.632 -0.0799  0.1262 -0.0818
18078W        W34212  14.936   4.149   3.741 -0.1152  0.1057  0.3237
18079W        W34213  12.496   2.764  10.322 -0.0466 -0.0047 -0.0661
18080W        W34214  13.636   3.095  16.297 -0.4770 -0.2173  0.3740
18081W        W34215   9.755   1.222   0.428 -0.0103 -0.1277 -0.0996
18082W        W34216  17.626  10.246   0.083  0.1836  0.0241  0.1471
18083W        W34217   3.262   9.986  16.573 -0.2329  0.1180  0.2149
18084W        W34218   8.300   8.938   5.168  0.0117  0.0298 -0.0143
18085W        W34219   5.057   2.653  14.732 -0.1409 -0.1669 -0.2579
18086W        W34220   5.084   2.661   5.191  0.1190 -0.0646 -0.4442
18087W        W34221   1.705  11.527  15.542 -0.0795 -0.0860 -0.3643
18088W        W34222  14.998   3.084   1.822  0.0402 -0.0256 -0.0204
18089W        W34223   3.248   9.730  16.069  0.0769 -0.0393  0.0791
18090W        W34224  12.943   9.093  14.305  0.0990  0.1303  0.0525
18091W        W34225  13.775  12.864  11.703  0.0397 -0.0145  0.1602
18092W        W34226   7.230   6.762  12.453 -0.1717  0.1606 -0.1117
18093W        W34227  16.650   5.244   1.829  0.4730 -0.1387  0.0903
18094W        W34228  11.566  12.558  14.833  0.1921 -0.0283 -0.2436
18095W        W34229   7.037  12.411   1.246  0.2398 -0.0576 -0.0118
18096W        W34230   3.373  10.019   0.356 -0.0618 -0.1888  0.0143
18097W        W34231  13.589   6.840  13.047  0.0219 -0.2256 -0.1317
18098W        W34232   4.188  10.963  13.036 -0.0631  0.1932 -0.0384
18099W        W34233   4.500  12.708   4.929 -0.1359  0.3359 -0.0201
18100W        W34234   1.270  16.670   6.342 -0.1042  0.2420 -0.0443
18101W        W34235   7.635   6.453   0.842 -0.0964  0.2718 -0.0575
18102W        W34236  16.713   7.580   2.670 -0.1341 -0.1669 -0.0381
18103W        W34237   7.021   9.923  14.243  0.0788  0.1282 -0.0051
18104W        W34238  15.726   8.704  11.561 -0.1056  0.3157  0.0708
18105W        W34239  16.914   1.473  12.720 -0.2940  0.1914 -0.0698
18106W        W34240   5.815   2.725  13.188 -0.2083  0.3233 -0.0264
18107W        W34241   0.720   1.581   2.517 -0.0417  0.0118  0.0427
18108W        W34242  14.694   3.520  12.303 -0.0133  0.0418 -0.0322
18109W        W34243   6.585  15.737   6.401  0.2106 -0.0140  0.0190
18110W        W34244  15.988  13.402  13.131  0.1621  0.1997 -0.1092
18111W        W34245  17.569  16.850   6.180  0.0310 -0.1674 -0.0252
18112W        W34246  14.618  17.237  14.832 -0.0332  0.2836 -0.0277
18113W        W34247   0.641   3.025   6.526  0.2009 -0.1971  0.0962
18114W        W34248   4.358   3.614  10.932  0.0399 -0.1279 -0.3147
18115W        W34249   7.867  15.958  12.757  0.1392 -0.4082 -0.1021
18116W        W34250  11.005   0.215   5.659 -0.3646 -0.1158 -0.1125
18117W        W34251   4.925  16.948   2.571 -0.0372  0.1344  0.0475
18118W        W34252  12.966  13.406  13.920  0.2711 -0.0117 -0.2700
18119W        W34253   7.470   2.483   2.054 -0.0195  0.0818 -0.0127
18120W        W34254  15.625  14.289   5.112 -0.1559 -0.0595  0.0687
18121W        W34255  13.004   8.998  16.319  0.0995 -0.0059 -0.0559
18122W        W34256  16.987   4.021  15.426  0.1533 -0.5490 -0.1275
18123W        W34257   3.775   5.023   0.088 -0.3417 -0.4152  0.1714
18124W        W34258  16.782   3.997  15.934 -0.2551 -0.2890  0.5058
18125W        W34259  10.197   4.716  12.065  0.1878  0.0286  0.0375
18126W        W34260   9.467  12.742  16.472  0.0261 -0.2825  0.1656
18127W        W34261  16.466   7.389   3.094 -0.1283  0.0356  0.0235
18128W        W34262   3.538   4.865  16.001  0.0616 -0.0945 -0.1502
18129W        W34263  17.657   5.269  14.356 -0.1676  0.0471 -0.0728
18130W        W34264   7.304  14.792   1.696 -0.1747 -0.2475  0.0018
18131W        W34265   5.200  14.268  12.264 -0.1591 -0.1178  0.3479
18132W        W34266  10.477  17.311  14.900 -0.0128  0.2394 -0.0101
18133W        W34267   1.142   5.004   4.935 -0.0274  0.1099 -0.0524
18134W        W34268  15.052  17.026   1.801 -0.1845 -0.5549  0.2416
18135W        W34269   1.338   6.412   0.861 -0.0735 -0.3851  0.0349
18136W        W34270  10.651  16.175   3.368 -0.1464 -0.0009  0.3720
18137W        W34271  16.234   6.660  16.703 -0.1833  0.0996  0.0013
18138W        W34272   6.156   1.467  14.405  0.0335  0.0317 -0.1298
18139W        W34273  10.133   6.076  15.392  0.1635 -0.1468  0.1251
18140W        W34274   0.198   3.704   2.524 -0.2441 -0.0040  0.0672
18141W        W34275   9.902   2.773   1.410  0.1524  0.0998 -0.1257
18142W        W34276   1.366  12.893   2.735 -0.1612  0.0713 -0.0082
18143W        W34277  10.277  12.703   1.109 -0.1356  0.0296 -0.0534
18144W        W34278   2.279  14.210   6.237 -0.1668  0.1415 -0.0165
18145W        W34279   5.436   5.624   1.009 -0.0634 -0.3696 -0.2567
18146W        W34280  14.854  14.322   0.165  0.2412  0.2492  0.4406
18147W        W34281   9.542   8.899   1.800 -0.1470 -0.0554 -0.0461
18148W        W34282   4.191   3.897  12.376  0.1485  0.0219 -0.0392
18149W        W34283   5.440  16.680  14.302 -0.0285 -0.2256 -0.2833
18150W        W34284   8.605   8.904  13.529 -0.0332  0.0400  0.0098
18151W        W34285  14.086   2.673  15.555 -0.3010 -0.0442  0.1766
18152W        W34286   6.341  13.175  12.057  0.0495  0.0680  0.1188
18153W        W34287   3.006  10.426   1.070 -0.1485 -0.1350 -0.1399
18154W        W34288  12.063   6.032  14.284  0.1529 -0.2958  0.2326
18155W        W34289   1.223   2.552   2.680  0.2055 -0.0046  0.1028
18156W        W34290   3.513  10.119   2.826 -0.1939  0.0480  0.0468
18157W        W34291  13.506   9.840   1.966  0.2033 -0.1359 -0.1100
18158W        W34292  15.135   0.912  15.465  0.1327  0.0067  0.0300
18159W        W34293  17.458   0.258   0.305 -0.1612 -0.2335  0.0160
18160W        W34294   1.457   4.103  14.779  0.1718 -0.0547 -0.2436
18161W        W34295  17.535   7.322   6.066 -0.0618 -0.0075  0.0381
18162W        W34296   0.303  16.017  16.327  0.3682  0.2387  0.1093
18163W        W34297  17.280  14.838   4.023 -0.1579  0.0745 -0.0373
18164W        W34298   7.696  10.256   1.598 -0.1284  0.2547 -0.1156
18165W        W34299  14.660   7.748  16.564  0.0996  0.2657  0.2370
18166W        W34300  13.733  14.815  15.856 -0.2466  0.0832 -0.4026
18167W        W34301   9.075  16.107  12.067  0.0928 -0.1173 -0.2303
18168W        W34302  14.473  15.839   2.717  0.0528  0.3964  0.1057
18169W        W34303  10.398   9.817   1.740 -0.2451 -0.1493  0.0063
18170W        W34304   3.888  14.895   0.004  0.0563  0.1168  0.4934
18171W        W34305   1.944  10.598  12.914 -0.2808 -0.0300 -0.0083
18172W        W34306  11.361  14.467   3.946 -0.3153 -0.0181  0.3317
18173W        W34307   1.740   1.205  17.058  0.3638 -0.0053 -0.0212
18174W        W34308   6.688  11.476  13.711  0.1251 -0.1056 -0.2823
18175W        W34309  12.024   0.217  16.159 -0.0103  0.3327 -0.0597
18176W        W34310  16.495  12.933  17.074 -0.0894  0.0287 -0.1519
18177W        W34311  15.802   4.308   2.048 -0.0037  0.1222 -0.1770
18178W        W34312   9.760   6.999  13.665  0.2041  0.1087 -0.2045
18179W        W34313   6.739  13.643  12.396 -0.1552 -0.0489 -0.2734
18180W        W34314  15.980   2.293   4.611  0.1893 -0.0169 -0.1666
18181W        W34315  13.616   7.132  13.476  0.0763  0.0886  0.1817
18182W        W34316  13.496   9.802  15.942  0.3641 -0.1897 -0.0395
18183W        W34317   3.425  16.343  16.302  0.0582 -0.2124  0.0234
18184W        W34318   7.294   1.369   3.356  0.1643 -0.1848  0.1279
18185W        W34319   5.698   7.762   0.817  0.0466 -0.0863 -0.1324
18186W        W34320   7.672   9.560   4.886  0.0936  0.0238 -0.0519
18187W        W34321   2.974   1.433  15.251  0.1030 -0.0351 -0.0228
18188W        W34322   0.519  13.399  14.288 -0.4434  0.0047 -0.0938
18189W        W34323   5.424  15.876  17.013  0.0951  0.0378  0.1413
18190W        W34324   2.510   3.409   4.311  0.3545 -0.0886  0.0982
18191W        W34325  15.810   3.437  15.170 -0.1682 -0.0525  0.0377
18192W        W34326  16.566   4.872  16.384 -0.0397  0.1135  0.0201
18193W        W34327  12.038  15.464   1.696 -0.0174  0.1289  0.3378
18194W        W34328   2.483  15.041   3.834 -0.1120 -0.1431  0.1587
18195W        W34329  11.425   6.907  16.747 -0.3619  0.1184  0.1131
18196W        W34330  16.768  11.639   2.800 -0.0571 -0.1295  0.1879
18197W        W34331   4.243  14.141   4.693  0.0533 -0.2534  0.1511
18198W        W34332   7.495  15.452   0.536  0.1862 -0.1691  0.2134
18199W        W34333  12.013  11.055  12.642 -0.0986 -0.2358  0.0647
18200W        W34334  14.977   8.815  10.586 -0.0258  0.2412 -0.1369
18201W        W34335  12.262   4.618  10.935 -0.1789 -0.1285 -0.0815
18202W        W34336   1.785   1.866   1.834 -0.0087  0.1399  0.3066
18203W        W34337   9.545   7.385   3.873 -0.0611  0.0846  0.1783
18204W        W34338  12.312  13.360   4.014  0.0362  0.1710 -0.1281
18205W        W34339   0.509   5.836   1.136  0.2198 -0.0088 -0.4259
18206W        W34340   7.563   0.230  12.802  0.1946 -0.3408  0.0401
18207W        W34341   5.784  12.356  15.883 -0.0736  0.0518 -0.3286
18208W        W34342  12.002  16.029  12.740 -0.0893 -0.0340  0.0052
18209W        W34343   1.610  11.075  15.404  0.0214  0.1692  0.1610
18210W        W34344   8.513   5.723  15.694  0.0287 -0.1930  0.0766
18211W        W34345  12.299   5.040   1.721 -0.2662  0.1267 -0.1781
18212W        W34346  15.673  16.704   0.817 -0.0574  0.3772 -0.0613
18213W        W34347  15.846   3.541   5.074 -0.0733 -0.0511 -0.2083
18214W        W34348   5.545   0.413  15.754 -0.0374  0.0074  0.3710
18215W        W34349  10.316   6.312   1.838 -0.1114 -0.1539  0.0224
18216W        W34350   6.496  12.882   5.282 -0.1895  0.1564  0.2483
18217W        W34351   3.732   4.665   3.801 -0.2204  0.0727 -0.1055
18218W        W34352   6.396  15.565   5.518 -0.1978  0.1434 -0.2018
18219W        W34353  15.749   9.093   3.366 -0.1497  0.2049  0.3430
18220W        W34354   0.868   6.104  14.012  0.0719  0.0435 -0.2236
18221W        W34355  15.222   9.266   1.955 -0.1357 -0.3663 -0.0594
18222W        W34356   7.125  15.973   2.365  0.0827 -0.0449  0.0828
18223W        W34357   4.769   1.953  15.510  0.1678 -0.0280 -0.1009
18224W        W34358  17.066   7.342  15.111 -0.2853  0.0594 -0.0371
18225W        W34359   8.699   7.214  17.079 -0.3118  0.1239 -0.0598
18226W        W34360   2.380   3.297   6.589  0.2023  0.2003  0.1153
18227W        W34361  14.909  15.102   0.917  0.1913 -0.1968  0.0844
18228W        W34362  14.660  16.639  14.672 -0.3514 -0.1559 -0.2322
18229W        W34363  16.375   7.342   4.004 -0.0283  0.0177 -0.0445
18230W        W34364  14.880  14.673   5.493  0.0576  0.1004  0.1157
18231W        W34365  14.842   9.623   2.035  0.1078 -0.0010 -0.0506
18232W        W34366  16.271  16.406  13.609  0.0361 -0.1310 -0.0820
18233W        W34367  17.213  15.999   3.062  0.2126  0.1443 -0.1827
18234W        W34368   9.267   1.888  10.686 -0.1007  0.1678 -0.0951
18235W        W34369  13.152   9.123   5.228 -0.0352  0.2091 -0.1311
18236W        W34370   8.797   4.801   2.122 -0.2522  0.0216  0.0134
18237W        W34371  15.247   9.676   1.608 -0.2546  0.2870 -0.1571
18238W        W34372   5.179  16.519   1.735  0.0763  0.1391  0.2359
18239W        W34373   5.607  16.461  15.550 -0.0022  0.0536 -0.1614
18240W        W34374   5.074   4.436   4.188 -0.0245  0.0165  0.2023
18241W        W34375   1.814  12.571   5.630  0.1327 -0.1138  0.1706
18242W        W34376   9.732  17.235   5.734  0.1944 -0.0616  0.1560
18243W        W34377   8.079  12.894   4.571  0.0344  0.3062 -0.1751
18244W        W34378   6.177  10.457  13.074  0.2551  0.2309  0.0163
18245W        W34379  11.096  13.496  16.889 -0.0162 -0.2315  0.0101
18246W        W34380   9.758   7.844   0.731 -0.0474 -0.0509 -0.0137
18247W        W34381   9.963   9.012   6.031  0.0035 -0.0560 -0.0662
18248W        W34382   1.116  10.921   4.700  0.0082 -0.1916 -0.0707
18249W        W34383   6.090   4.940   1.394 -0.1814  0.1910  0.1598
18250W        W34384  12.563   2.063  14.002  0.0308 -0.1209 -0.0271
18251W        W34385  13.130   1.886   5.007  0.3446  0.0202 -0.0867
18252W        W34386  15.707  15.684  17.054 -0.4153 -0.3035  0.0709
18253W        W34387  16.713  13.736   0.308 -0.2255 -0.2634  0.1928
18254W        W34388  12.086  13.343  16.452 -0.1194 -0.2572  0.0044
18255W        W34389  16.313   3.514   2.005 -0.0062  0.0940 -0.1931
18256W        W34390  10.224   7.502  14.109  0.1931  0.5479 -0.1112
18257W        W34391  17.519   1.314  16.240 -0.1374 -0.0554  0.0903
18258W        W34392  12.401   7.477  13.691  0.1588  0.1422  0.1796
18259W        W34393  11.604   8.577  16.732 -0.0675 -0.1986 -0.0107
18260W        W34394  15.601   6.031  17.066  0.0123 -0.1573  0.4049
18261W        W34395  14.879   1.488  14.808 -0.0123 -0.0783 -0.1979
18262W        W34396   7.257   6.117   1.718 -0.0263 -0.1445  0.1616
18263W        W34397   7.330  17.654   1.776  0.0038 -0.2088  0.0033
18264W        W34398   8.546   1.173  16.959  0.2434  0.2111  0.0895
18265W        W34399  13.330   4.482  11.786 -0.1752  0.1274  0.2177
18266W        W34400   7.636   8.290  14.184 -0.4209  0.3641  0.0626
18267W        W34401  15.690  10.134  16.046  0.0519  0.0771  0.0855
18268W        W34402  12.412   8.506   4.388  0.1666  0.1902 -0.1076
18269W        W34403   9.813  14.967  16.419  0.0865  0.4186 -0.4557
18270W        W34404   3.500   8.850   0.278 -0.0070 -0.0132  0.2094
18271W        W34405  11.266   7.258  11.431  0.0159  0.3360  0.3326
18272W        W34406  11.141  11.616   0.570 -0.0901 -0.2080  0.2454
18273W        W34407  15.840   2.086   1.470 -0.3500  0.0703 -0.1045
18274W        W34408   9.146  14.470   2.188 -0.3167  0.1723 -0.0577
18275W        W34409   1.165   5.863   2.252  0.0395  0.0483  0.2084
18276W        W34410   3.579  16.524   1.997 -0.1013 -0.0585  0.0530
18277W        W34411  16.756  12.577   6.320 -0.2746  0.2103  0.2075
18278W        W34412  12.909   2.570  14.120  0.0877 -0.3108 -0.0117
18279W        W34413  14.541   1.163  16.186 -0.1676  0.2837  0.1533
18280W        W34414   9.725  10.673  15.376 -0.0428  0.2136  0.3499
18281W        W34415  12.020   9.840  12.457 -0.0145 -0.0713 -0.2368
18282W        W34416   3.797  10.723   4.853  0.0275  0.3165 -0.1370
18283W        W34417   2.727  13.068  14.316 -0.0231 -0.0495 -0.0829
18284W        W34418   0.395  17.186  14.070  0.1892 -0.3339 -0.2977
18285W        W34419  12.633   0.037   4.201 -0.2102 -0.0472 -0.0014
18286W        W34420   8.997  15.271   0.604 -0.1435  0.0059 -0.1381
18287W        W34421   4.060   4.726  12.869 -0.0338 -0.1853  0.1173
18288W        W34422  11.280  15.719  16.979 -0.3502  0.2776 -0.2764
18289W        W34423   2.717  14.760  14.897 -0.0055 -0.1484 -0.0043
18290W        W34424   8.365   6.571  14.281  0.0020  0.0450 -0.1267
18291W        W34425  14.817   0.317  16.509 -0.0342 -0.1791 -0.0671
18292W        W34426   1.248  14.728  12.654 -0.0695 -0.0869  0.0193
18293W        W34427   1.925   4.065   3.629  0.0385  0.0361  0.2048
18294W        W34428   0.748   2.348  15.091  0.0515  0.1664 -0.0626
18295W        W34429   0.291   7.601   5.088 -0.1245 -0.1472 -0.0846
18296W        W34430  12.285  12.457  16.192 -0.1631  0.1234 -0.1959
18297W        W34431   2.140  10.314   0.217 -0.2079  0.0491 -0.1135
18298W        W34432  10.875  10.718   4.930  0.4729  0.0435 -0.2646
18299W        W34433  16.264  11.721   1.056 -0.0471  0.2301 -0.0883
18300W        W34434   7.428   9.908   1.987  0.3713  0.2685 -0.2960
18301W        W34435   5.917   4.668  13.781 -0.0498  0.2850 -0.1629
18302W        W34436  15.919   6.640  15.680 -0.1656  0.0254  0.0685
18303W        W34437  11.674   7.679  15.051  0.0140 -0.1589  0.2464
18304W        W34438   1.580  12.141   5.487  0.0312 -0.0187 -0.1382
18305W        W34439   8.875   7.790   1.124  0.3430  0.0364  0.0030
18306W        W34440  16.729   2.721  13.494 -0.0538 -0.2563  0.0928
18307W        W34441  10.299   0.712  13.888 -0.0122  0.0251 -0.0145
18308W        W34442  14.665  12.678  16.643 -0.2412  0.1910 -0.0915
18309W        W34443   3.159  15.493   0.343  0.0417 -0.0480  0.3842
18310W        W34444   0.640   0.882  14.052  0.1322 -0.0134 -0.1539
18311W        W34445   0.896  10.479   4.525 -0.1537  0.3213  0.0448
18312W        W34446   0.109   1.366   2.032  0.0926 -0.2501  0.0473
18313W        W34447   7.744   8.781  14.489 -0.3218  0.0244 -0.5108
18314W        W34448   6.325  11.421  15.888 -0.1656 -0.2626 -0.1330
18315W        W34449  17.335  14.778  15.281 -0.2531  0.0411  0.2087
18316W        W34450   9.152   8.158   3.429  0.0224 -0.3189  0.0570
18317W        W34451  11.686   3.138   1.123 -0.0499 -0.0284  0.1772
18318W        W34452   5.129   4.601  14.900 -0.0856  0.1707 -0.1374
18319W        W34453   3.924  17.093  15.982  0.1758 -0.4702 -0.0211
18320W        W34454   8.639   4.662   5.854 -0.2531  0.0835  0.0072
18321W        W34455   1.566   6.264  13.577 -0.0255  0.1220  0.2126
18322W        W34456   3.188  12.701   2.012 -0.1111 -0.2095 -0.2160
18323W        W34457  16.097  12.089  16.289 -0.1154 -0.0495  0.2123
18324W        W34458   6.399   2.820   0.074  0.2042  0.1481 -0.0454
18325W        W34459   4.001   0.754  12.451 -0.1638 -0.4158  0.2556
18326W        W34460   2.316   7.030   1.491 -0.0301  0.3137  0.0236
18327W        W34461  15.124  14.068   0.982 -0.0934 -0.1724  0.1119
18328W        W34462   7.682  13.990   5.102  0.0462 -0.2908 -0.0686
18329W        W34463  13.635  13.775   1.282 -0.1428  0.0174  0.3506
18330W        W34464   3.211  14.385   5.797  0.0266 -0.0792  0.1885
18331W        W34465   0.120   9.813  14.654 -0.2399 -0.4004 -0.0036
18332W        W34466  11.479   2.250   3.177  0.1433 -0.1105 -0.0197
18333W        W34467   5.801  10.625  16.170 -0.1877  0.0641 -0.0439
18334W        W34468  10.860  17.112  15.277  0.0459 -0.1134 -0.1170
18335W        W34469   6.072  11.314   2.942  0.3083  0.1453 -0.1740
18336W        W34470   9.422   7.380  16.660 -0.0750  0.3625  0.1459
18337W        W34471   5.290  12.722  16.344 -0.5618 -0.0443 -0.0569
18338W        W34472   2.134  10.310  16.249 -0.1898  0.2283 -0.0500
18339W        W34473  10.754   9.971   0.639 -0.0973  0.1362 -0.4510
18340W        W34474  12.794  14.386   2.367  0.2383  0.2298  0.0269
18341W        W34475   9.650   4.686  14.905  0.1314 -0.0252 -0.1274
18342W        W34476  11.012   3.634  15.403 -0.4111  0.0185 -0.0614
18343W        W34477   8.231  16.515  16.208  0.2067  0.2504  0.2954
18344W        W34478  11.095   3.723  14.001  0.1313 -0.0021 -0.2247
18345W        W34479   0.488   3.773   3.049  0.0472  0.1269 -0.3698
18346W        W34480  15.077  15.649  14.411  0.2948 -0.3995 -0.0331
18347W        W34481   1.509  13.479  14.162  0.0279  0.2146 -0.1198
18348W        W34482  13.258  13.251   4.661  0.1931 -0.0708 -0.0673
18349W        W34483  16.249  11.487  14.113 -0.1588 -0.1208  0.1408
18350W        W34484  10.073  10.117   3.535 -0.2024  0.1293  0.2681
18351W        W34485   7.083   4.273   1.801 -0.2718  0.0159  0.0806
18352W        W34486   2.062   7.132  12.804 -0.0041 -0.0050 -0.0073
18353W        W34487  16.225  14.885  12.261 -0.0961  0.1155 -0.0829
18354W        W34488   2.009   1.604  16.662 -0.1984  0.0003 -0.1470
18355W        W34489  13.720  12.371   4.268 -0.0176 -0.2703 -0.1784
18356W        W34490  12.068   8.024   4.336 -0.1617  0.0611 -0.2450
18357W        W34491   0.266  14.751  14.509  0.0285  0.2048  0.2455
18358W        W34492  12.299  12.817  12.434 -0.0902  0.1036 -0.2335
18359W        W34493   6.662   0.906   0.222 -0.0439 -0.0088 -0.4039
18360W        W34494   1.957   0.262  14.887  0.3706  0.0660  0.0899
18361W        W34495   0.172   0.375   0.626  0.3064 -0.1584  0.0050
18362W        W34496  14.549  14.915  12.808  0.0328  0.1395 -0.0802
18363W        W34497  14.829   3.740   2.347  0.0090 -0.0196 -0.1513
18364W        W34498   7.841   7.127   4.143  0.0135 -0.0663  0.1497
18365W        W34499  10.839   1.933   2.434 -0.3717  0.1612 -0.1145
18366W        W34500  10.286  17.614   5.077  0.0196 -0.2197  0.2575
18367W        W34501  16.280  14.712  14.196  0.1663 -0.1120  0.1273
18368W        W34502   6.481   4.658   2.405  0.2580  0.1807 -0.0665
18369W        W34503  15.140  11.773   3.372  0.3349 -0.1121  0.0942
18370W        W34504   4.580  12.656   2.679  0.0864  0.2274  0.0259
18371W        W34505   7.283   3.240   0.309 -0.0111  0.0695  0.0916
18372W        W34506   4.374   7.971  11.732  0.1636  0.1632  0.1243
18373W        W34507   1.653  17.611   1.072 -0.2388 -0.0329 -0.1983
18374W        W34508  13.130  10.714   4.807  0.1573  0.0543 -0.0065
18375W        W34509   8.837   6.720  15.779 -0.2097  0.0716  0.2479
18376W        W34510   9.445  16.068   5.033  0.2365  0.1182 -0.0966
18377W        W34511   6.364   4.827   4.915 -0.1501 -0.2302  0.1609
18378W        W34512   1.638   2.383  15.903 -0.2054  0.1633 -0.0424
18379W        W34513  14.089  13.760   5.503 -0.1839 -0.1520 -0.0500
18380W        W34514   1.968  14.069   2.418 -0.0684  0.2776 -0.5377
18381W        W34515  12.653  11.638   3.624  0.2132  0.0725  0.0725
18382W        W34516  11.421  14.161  10.928 -0.0986  0.1332 -0.0515
18383W        W34517   5.293   4.264   6.615 -0.3660 -0.1382 -0.1563
18384W        W34518  11.869  10.847   0.385  0.1590  0.1596 -0.1009
18385W        W34519  12.536  13.469  13.666  0.3910  0.2025 -0.4629
18386W        W34520   4.150   2.300   0.971 -0.0711  0.2340 -0.4436
18387W        W34521  14.186   9.256  16.098  0.0353  0.3029  0.0435
18388W        W34522   7.311   3.711  14.235 -0.0947  0.3556  0.0382
18389W        W34523  15.906  13.438  12.161  0.0344  0.0075  0.2494
18390W        W34524   0.838  14.950  12.356  0.2470 -0.1836 -0.1610
18391W        W34525   7.471  12.993   5.224  0.2458 -0.1130 -0.0364
18392W        W34526   3.039   0.853   4.319 -0.0245  0.0514  0.1978
18393W        W34527   4.650  13.562   5.585  0.2084  0.0438  0.0197
18394W        W34528   2.414  17.587  13.710  0.0731 -0.1381  0.0742
18395W        W34529   0.577  10.525   3.171 -0.1363 -0.2064 -0.1128
18396W        W34530   3.526  10.529  16.735  0.1912  0.2855  0.3805
18397W        W34531   3.437   5.394   5.337  0.0065  0.3202  0.1808
18398W        W34532   4.504   5.420  14.297 -0.0946 -0.1827  0.0375
18399W        W34533  16.106   5.405   1.646 -0.1461  0.0354 -0.3231
18400W        W34534  17.661  14.294  14.533  0.0368 -0.0477  0.0272
18401W        W34535   4.521   2.120   6.963  0.0580 -0.1049 -0.0896
18402W        W34536   0.077   6.027  15.353  0.2308  0.0468 -0.1722
18403W        W34537  14.136   4.901  12.043  0.2564  0.2594 -0.2586
18404W        W34538  14.771   9.747  13.393 -0.0674 -0.2001  0.2164
18405W        W34539  11.315  13.993   3.284 -0.4034 -0.1671  0.1249
18406W        W34540   1.705   1.224  14.423 -0.0280  0.1059 -0.0393
18407W        W34541   5.147  14.099   3.835 -0.2014  0.2340  0.2293
18408W        W34542  17.027  12.233  16.246  0.0674  0.0129  0.0399
18409W        W34543  13.472  14.174   2.151  0.0160  0.0110  0.1173
18410W        W34544  12.564  10.849   1.004 -0.2411 -0.2389 -0.0469
18411W        W34545  16.269  14.471   4.398  0.1761 -0.1183 -0.0491
18412W        W34546   3.683   3.471  11.697 -0.1660  0.1815 -0.1690
18413W        W34547   1.155  11.632   4.714 -0.2691 -0.3698 -0.1168
18414W        W34548  12.164  14.416  13.743  0.0256 -0.2703  0.0766
18415W        W34549   6.492   0.598  13.409  0.2607 -0.1120  0.2209
18416W        W34550   1.882  10.668   5.118  0.0154 -0.0057  0.2737
18417W        W34551   6.448   2.962  15.625 -0.0605  0.2786  0.1854
18418W        W34552  12.839  17.605   6.389  0.3321  0.1861  0.0634
18419W        W34553   8.088  11.183  12.126 -0.0963  0.0339 -0.0331
18420W        W34554   0.231   7.198  14.751 -0.0604  0.0556  0.2423
18421W        W34555  10.625   4.180  17.138 -0.0377  0.0413 -0.1275
18422W        W34556   1.969   5.890   5.102 -0.3801  0.0356  0.0045
18423W        W34557  13.230   8.308   0.337  0.1732  0.2183 -0.1893
18424W        W34558   0.625   3.361   6.033 -0.2900 -0.1173 -0.4178
18425W        W34559  13.027   4.972  12.919  0.1562  0.0155 -0.2528
18426W        W34560  13.580  13.365   3.751  0.2061  0.2411  0.1320
18427W        W34561  16.922  12.663   3.582  0.2074  0.0464  0.1499
18428W        W34562   8.408   6.166   2.918  0.3578  0.2539 -0.0010
18429W        W34563   8.153  17.590  12.643 -0.2737 -0.1223 -0.0266
18430W        W34564   3.402   9.763   2.367 -0.2507  0.2799 -0.0919
18431W        W34565   9.536   8.894  16.982 -0.1352  0.0807  0.0057
18432W        W34566  15.286  16.649   1.469  0.2448  0.1517 -0.0327
18433W        W34567   3.416   5.760  15.498 -0.4155 -0.1736 -0.0157
18434W        W34568  11.375   3.922   0.271 -0.0027  0.4004 -0.2428
18435W        W34569  11.901   1.379  15.957  0.2741  0.1056 -0.1760
18436W        W34570   8.570   5.287  15.314 -0.2775  0.1712 -0.1103
18437W        W34571   7.885   4.098   3.257 -0.2709  0.0524  0.1752
18438W        W34572  13.973   1.291  15.538 -0.0143 -0.0179 -0.1283
18439W        W34573  10.772  10.856  16.614  0.2215  0.1260  0.0910
18440W        W34574   0.450   4.529  12.836 -0.0644  0.2082  0.1656
18441W        W34575   7.171  15.137  13.616 -0.1705 -0.0034 -0.0140
18442W        W34576  12.238  14.383  12.714 -0.0889  0.1994 -0.1302
18443W        W34577   2.488   2.122   0.701 -0.6265 -0.1329  0.0323
18444W        W34578   7.295  10.435   0.243  0.0581 -0.0554  0.0620
18445W        W34579   5.532  16.458  16.834 -0.2001  0.2051  0.0112
18446W        W34580   2.258  10.576   3.479 -0.0436  0.2684 -0.1258
18447W        W34581   2.514  16.437   1.715  0.2006 -0.1075 -0.1443
18448W        W34582   3.494  11.210  16.461  0.2457  0.3052  0.0394
18449W        W34583   6.663  13.910  16.391  0.1560 -0.0319  0.1540
18450W        W34584   5.998  15.616  15.634  0.1621  0.0818  0.2478
18451W        W34585   4.429   0.930   6.044  0.0752 -0.3916  0.0516
18452W        W34586   1.454  14.178   0.783 -0.0772 -0.1489  0.0177
18453W        W34587   8.477   8.175  14.393 -0.1868  0.0451 -0.0049
18454W        W34588   8.958  13.910  12.582  0.3003 -0.0671  0.0911
18455W        W34589   5.077   8.397   5.295 -0.1729  0.1967 -0.0240
18456W        W34590  11.117  17.023  16.374 -0.0963  0.1166 -0.0859
18457W        W34591   0.794   5.526   2.909 -0.1024 -0.0671  0.0405
18458W        W34592  11.623   6.550   0.353  0.0510  0.0029  0.1580
18459W        W34593   6.396   9.270  11.741  0.0888 -0.0972 -0.1770
18460W        W34594  15.401   1.156  12.601  0.0469 -0.1028 -0.0367
18461W        W34595  11.451   3.596  12.277 -0.1042  0.0479 -0.0240
18462W        W34596   6.447   5.135   5.331 -0.0694 -0.2492 -0.2927
18463W        W34597   6.608   5.742  12.127  0.0839  0.0539  0.1048
18464W        W34598  15.279   7.428   1.601 -0.1944 -0.2133 -0.1386
18465W        W34599   0.875  16.596   6.041  0.1433  0.2088  0.2902
18466W        W34600  10.181   8.838  13.937  0.1817  0.1805 -0.0435
18467W        W34601   9.057  11.225   5.223 -0.1353 -0.1071 -0.1513
18468W        W34602   2.990   4.885  12.383  0.1779 -0.1550 -0.0262
18469W        W34603  15.405   9.553  14.524 -0.0426 -0.1126  0.0856
18470W        W34604   0.092   6.133   2.772 -0.1415  0.1827  0.0837
18471W        W34605  15.569   0.465  13.612  0.0760  0.0156  0.0353
18472W        W34606   9.912   6.270   1.042  0.2557  0.0469  0.0449
18473W        W34607   3.807   5.883  11.513  0.0490 -0.1426 -0.2376
18474W        W34608  15.204   5.350   3.785 -0.0888 -0.2670  0.0094
18475W        W34609   8.908  13.071   3.304 -0.2911  0.2299 -0.2406
18476W        W34610   6.003  14.037   1.424 -0.0730 -0.3264  0.0259
18477W        W34611  15.728   7.170   0.170  0.1042  0.2291 -0.0718
18478W        W34612   7.767  11.149   1.618 -0.0172  0.4758  0.1650
18479W        W34613  16.516  12.303   4.606  0.0659 -0.0600 -0.0397
18480W        W34614   9.752  15.976  14.685  0.2144 -0.0989  0.1356
18481W        W34615   4.424  15.946  16.778 -0.0873 -0.1659  0.0272
18482W        W34616   1.076  15.637   3.954 -0.0375  0.0730  0.0173
18483W        W34617   8.493  17.276   0.929 -0.1094 -0.0641 -0.1864
18484W        W34618   0.769   7.863  15.117  0.2264  0.0456  0.0828
18485W        W34619  11.894   9.616   1.409 -0.2567  0.0817  0.1066
18486W        W34620  15.193   9.032  12.264 -0.0185  0.0942 -0.0855
18487W        W34621  10.842   3.013   5.519 -0.2909  0.1601  0.1418
18488W        W34622   7.547  12.366   5.809  0.3211 -0.0415  0.0693
18489W        W34623   6.058   1.525  16.448 -0.0101  0.0685  0.0356
18490W        W34624  15.162  11.464   3.778  0.1310  0.0911 -0.1560
18491W        W34625   3.910   5.013  14.901  0.2410 -0.0642  0.1045
18492W        W34626  13.421  17.083   5.004 -0.1703 -0.2591  0.0488
18493W        W34627   5.659  17.243  12.274  0.2608  0.2118 -0.3263
18494W        W34628  11.661   0.526  14.299 -0.0595 -0.0594  0.2353
18495W        W34629  11.003   8.401   5.486  0.0131  0.2138 -0.0694
18496W        W34630   9.247   6.118   3.357 -0.2782  0.3719 -0.2608
18497W        W34631  12.911  17.083   0.078 -0.2244  0.1153  0.2522
18498W        W34632  16.484  15.198   4.504  0.3836 -0.2874 -0.3480
18499W        W34633   8.020  16.083  15.993 -0.0165  0.2432 -0.0520
18500W        W34634   5.956   7.025   3.351  0.0287  0.1066 -0.0842
18501W        W34635   5.125   8.521  14.326  0.0924  0.2083 -0.0414
18502W        W34636  13.677   3.539   4.832  0.2510  0.0017 -0.5099
18503W        W34637   3.936   4.623  16.927 -0.0963 -0.0439 -0.3417
18504W        W34638   9.922   7.444  12.117 -0.2034 -0.0365 -0.1076
18505W        W34639   3.911  13.934   3.783 -0.0557 -0.1358 -0.2618
18506W        W34640   3.373  11.351   3.181 -0.1343 -0.2610 -0.0051
18507W        W34641  13.195  15.082  12.225  0.0849  0.0661  0.1365
18508W        W34642  14.795   0.038  12.642 -0.0628 -0.2389 -0.0132
18509W        W34643  16.594  11.268   1.901 -0.1297 -0.0884  0.1336
18510W        W34644   0.452   3.425  12.095  0.4236  0.0819  0.0068
18511W        W34645   3.486  11.677   1.781  0.1745  0.2401 -0.0849
18512W        W34646   8.276   8.696  12.295  0.0885  0.2455 -0.1961
18513W        W34647  17.509   7.028  10.570  0.0328  0.0658  0.1992
18514W        W34648   8.917   0.185  12.542  0.2939 -0.1342  0.3417
18515W        W34649  17.586   7.595  14.373  0.1040 -0.0081 -0.1451
18516W        W34650   1.917   5.226   0.809  0.0691 -0.0199 -0.0810
18517W        W34651  16.808   3.543  14.217 -0.1825  0.2682 -0.2394
18518W        W34652   1.921   4.141  13.166 -0.0316  0.1986 -0.0610
18519W        W34653  17.082  13.220  13.774  0.2609  0.1869  0.1381
18520W        W34654  17.352   4.040  14.533  0.1168  0.0757  0.3484
18521W        W34655   4.195  12.576  12.966 -0.0485 -0.0608  0.0862
18522W        W34656  12.250   9.297   1.728  0.1001  0.1449  0.1177
18523W        W34657  16.888   7.737   1.034 -0.0396  0.2654  0.0288
18524W        W34658  16.226   3.393  14.157  0.0207  0.2073 -0.1782
18525W        W34659  15.414   1.143   4.397  0.0954  0.0493  0.1874
18526W        W34660   3.344  14.005  16.906  0.1011  0.0439  0.1441
18527W        W34661  13.308  15.393   5.780 -0.1938  0.1802 -0.1031
18528W        W34662   7.473  13.372  13.533  0.0581 -0.1920 -0.1586
18529W        W34663  13.389   8.974  11.053  0.2252  0.2902  0.1813
18530W        W34664  15.486   7.567  11.275  0.1094  0.1499  0.2351
18531W        W34665  14.326   4.370  14.201  0.1880 -0.0100 -0.2491
18532W        W34666  12.523   3.944  11.956  0.0146  0.0806 -0.1228
18533W        W34667   4.617   9.504   2.765 -0.0851  0.4141 -0.1697
18534W        W34668   4.316   0.885   2.405  0.2890  0.1054 -0.3481
18535W        W34669   6.519  15.066   1.131 -0.1551  0.0970 -0.3851
18536W        W34670   2.501  11.124  14.462  0.2624 -0.4868  0.1251
18537W        W34671  17.165  13.204  13.062  0.0420  0.0225  0.2453
18538W        W34672  10.340   9.788   0.354 -0.2349 -0.0904 -0.1112
18539W        W34673  11.812  15.654  13.899 -0.0766 -0.1040 -0.0328
18540W        W34674  10.720   1.818   4.703  0.1900  0.1818  0.3854
18541W        W34675   4.437   4.540   4.803  0.0613 -0.0928  0.1089
18542W        W34676   9.916  10.405  14.305  0.0688  0.2022  0.0162
18543W        W34677  10.393   1.753  12.214  0.3465 -0.1446 -0.0540
18544W        W34678   9.325  12.096  15.698 -0.1335  0.1462 -0.0849
18545W        W34679  16.561  11.577  12.860  0.1036  0.0295 -0.2311
18546W        W34680   4.387  12.392   3.973 -0.3114 -0.0435 -0.0024
18547W        W34681  10.502  13.464   1.758 -0.3171 -0.1924  0.2373
18548W        W34682  10.920   0.235   0.950 -0.1251 -0.1495 -0.1342
18549W        W34683   2.881  13.949   4.836  0.1547  0.0733 -0.1085
18550W        W34684  12.668   2.804   3.729 -0.3241  0.1688 -0.3369
18551W        W34685  15.143   8.199   1.045 -0.1920 -0.1241 -0.1642
18552W        W34686   4.741  16.495   4.466  0.4435 -0.0351  0.0031
18553W        W34687  10.631  13.308   0.459  0.0895  0.2882  0.1112
18554W        W34688   0.124  10.587   3.494 -0.3818  0.2042 -0.0262
18555W        W34689   3.278  12.305  12.792  0.2657 -0.0506  0.2335
18556W        W34690  11.667  13.647  15.768  0.1261  0.1345  0.0686
18557W        W34691  14.159  11.600   5.404  0.0175 -0.0353 -0.2044
18558W        W34692   6.723   9.390   1.151 -0.0143  0.2038  0.2244
18559W        W34693  13.613  11.651   2.817  0.0049 -0.1489  0.1227
18560W        W34694  16.038   2.148  13.477 -0.1485  0.1930 -0.1421
18561W        W34695  14.143   5.323   1.775  0.2163 -0.0955 -0.1356
18562W        W34696   2.259   6.800  13.759  0.0533 -0.0630  0.0209
18563W        W34697   7.134   9.785   1.607 -0.0256 -0.0604  0.1747
18564W        W34698  14.544   8.869   1.582  0.0660  0.2191 -0.2937
18565W        W34699   4.212  17.211   6.334 -0.3263  0.0186  0.1513
18566W        W34700  11.433   7.503   2.136  0.4415 -0.0276 -0.1962
18567W        W34701   5.069   2.253  14.425  0.1541 -0.0318 -0.0698
18568W        W34702   6.165  13.071  13.356  0.2800  0.0945 -0.2626
18569W        W34703   8.181  16.329  12.554  0.4989 -0.2768  0.0587
18570W        W34704  10.706  10.811  13.812 -0.1893 -0.3383 -0.1030
18571W        W34705   9.616   6.941  15.975 -0.0875  0.0382  0.1494
18572W        W34706   7.056   6.901   1.376 -0.1017  0.1448  0.0504
18573W        W34707   1.886  14.578  14.972  0.0226  0.1051 -0.2520
18574W        W34708   0.164   9.639   3.221 -0.3778  0.1847 -0.2195
18575W        W34709  10.189   5.573  16.637 -0.2179 -0.5109 -0.1244
18576W        W34710  15.318   7.794   3.908  0.1223 -0.0066  0.2431
18577W        W34711  15.744   6.709  17.009 -0.1997 -0.0930  0.0346
18578W        W34712  10.598   0.658   2.248  0.1822 -0.0840  0.0047
18579W        W34713   7.467   0.271  14.745 -0.1446 -0.2403 -0.0407
18580W        W34714  14.312  12.434   5.364 -0.3374 -0.4467  0.0202
18581W        W34715   0.098  16.812   2.329 -0.1865 -0.0245 -0.2473
18582W        W34716   3.795   9.381  11.627  0.0187  0.0809 -0.2408
18583W        W34717   2.728   9.822  15.304  0.0103 -0.1129 -0.0542
18584W        W34718   3.736  15.827   5.258 -0.1640 -0.1154 -0.1890
18585W        W34719  16.965  10.904  14.975 -0.0270 -0.0269 -0.0950
18586W        W34720  12.449   7.999   4.695  0.2761  0.0122 -0.5369
18587W        W34721   7.604   1.644   3.692  0.1476 -0.1645 -0.2505
18588W        W34722  10.749   5.048   5.395 -0.1712  0.0480 -0.2131
18589W        W34723   2.380  14.864   0.554  0.1037  0.2081 -0.0132
18590W        W34724  13.149   6.073  14.804 -0.1838  0.2691 -0.0065
18591W        W34725  11.598  10.826  14.552 -0.1492 -0.0396 -0.1889
18592W        W34726  14.861   2.019   6.412 -0.0133 -0.1174 -0.0078
18593W        W34727   7.988  15.763  13.284  0.1383 -0.0866  0.1048
18594W        W34728   8.447   6.847  16.844 -0.2765  0.0511 -0.0131
18595W        W34729   3.876  15.511   3.669 -0.1271 -0.0881 -0.0238
18596W        W34730   8.371   5.091   2.264 -0.2951 -0.1050 -0.1822
18597W        W34731  14.661   8.019   1.047  0.6162  0.0327  0.2018
18598W        W34732   0.715   9.178   1.673 -0.0981  0.1090 -0.0704
18599W        W34733  15.937  10.207  12.220  0.0462 -0.2009  0.0925
18600W        W34734   7.777  14.626   4.258 -0.0668  0.3923  0.0571
18601W        W34735   0.789  16.082   3.643 -0.0705 -0.0483 -0.6180
18602W        W34736  14.917   7.195   0.008 -0.0820 -0.1090 -0.1830
18603W        W34737   4.149   6.313   1.114 -0.0341 -0.1714 -0.1628
18604W        W34738   4.106   8.491  14.061  0.0512 -0.1325 -0.0560
18605W        W34739   8.270  17.587  14.928 -0.0333  0.0162  0.0352
18606W        W34740   1.532   6.786  10.974  0.3969  0.0860  0.0426
18607W        W34741  16.920   7.717  11.432  0.1262  0.1176 -0.0753
18608W        W34742  12.883  10.037  14.500  0.1546  0.2069 -0.0084
18609W        W34743   4.719  13.662   6.606  0.0182 -0.0753  0.0713
18610W        W34744   7.323   6.285  11.554  0.2677  0.2404  0.0296
18611W        W34745   1.312   2.412  15.076 -0.2038 -0.0119  0.0808
18612W        W34746   2.420  12.228  15.284  0.0342  0.1996 -0.1834
18613W        W34747  14.796   0.835   5.682 -0.0003  0.0695  0.0818
18614W        W34748  15.252  11.000   5.261 -0.2458 -0.0390  0.3181
18615W        W34749   9.468   6.102   0.128 -0.0719  0.0752 -0.1289
18616W        W34750  16.637  10.257  12.371 -0.0999  0.2383 -0.1233
18617W        W34751  15.118  10.612   0.540  0.3772 -0.1414  0.0577
18618W        W34752   6.930  10.244  14.612 -0.2528 -0.2064  0.1099
18619W        W34753   9.771  17.205  16.763 -0.0929 -0.0233  0.0960
18620W        W34754  15.774   5.423   3.883  0.0504 -0.2197 -0.1541
18621W        W34755  13.119   1.676  14.597  0.1055 -0.1155 -0.0432
18622W        W34756   6.473   7.922  12.072  0.0909  0.3986 -0.0389
18623W        W34757  15.422  17.416   1.847  0.2261 -0.0608  0.0554
18624W        W34758  15.204  10.451  14.847 -0.3748  0.2581  0.0632
18625W        W34759  11.043   2.133  11.976  0.0064 -0.0389 -0.1050
18626W        W34760   9.799   1.378  13.964 -0.0283  0.2460 -0.0860
18627W        W34761   2.456   0.822  13.373  0.0768  0.0186 -0.2913
18628W        W34762   2.541  12.336   2.296 -0.0259 -0.1702 -0.2035
18629W        W34763  16.150   6.511   2.562 -0.1849  0.1258  0.0533
18630W        W34764  17.056   9.281  12.561  0.0263  0.2399  0.0149
18631W        W34765   3.909   4.398  16.070 -0.0494 -0.2650 -0.3028
18632W        W34766   7.855  12.942   0.125  0.3263 -0.0293 -0.2233
18633W        W34767  10.922   1.274   5.094  0.2793 -0.1457 -0.0737
18634W        W34768  16.276   7.821   1.872  0.2060 -0.2621  0.0528
18635W        W34769  12.611   2.634   2.045  0.2004 -0.0344 -0.0301
18636W        W34770  10.638   1.056  14.729 -0.3471 -0.2635 -0.0264
18637W        W34771  13.056  11.212   2.227 -0.0213 -0.0655  0.1918
18638W        W34772   4.135  15.290   1.235  0.2446  0.0641  0.0705
18639W        W34773  15.137  15.969   4.474 -0.1006  0.0385 -0.0843
18640W        W34774   5.129  13.673   4.326 -0.4406 -0.1635 -0.2810
18641W        W34775   0.968  17.197  13.038 -0.1318  0.3397 -0.0285
18642W        W34776  13.085  10.143  14.080 -0.1500  0.2988  0.2231
18643W        W34777  11.334  11.966  16.296  0.3442  0.0144  0.3650
18644W        W34778  15.362   8.242   4.282  0.0860 -0.2117  0.0934
18645W        W34779   6.400   8.448  12.044 -0.0172  0.3308 -0.1673
18646W        W34780  15.878   2.029   4.191 -0.0578  0.0095  0.1350
18647W        W34781  17.071   4.359  13.737  0.0290 -0.3403 -0.0737
18648W        W34782   5.573   3.265  14.609  0.0246 -0.1188  0.1824
18649W        W34783   0.188  12.887   1.766 -0.4034  0.2045 -0.0066
18650W        W34784   6.841  14.678   4.551  0.2264  0.0874  0.2632
18651W        W34785   7.462   7.727   5.418 -0.0384 -0.0146 -0.2063
18652W        W34786  15.574  11.261  16.392 -0.2757  0.2300  0.0865
18653W        W34787  10.379  12.651   2.922 -0.0061 -0.2413 -0.0100
18654W        W34788  12.463   1.327   0.645 -0.1401  0.1830 -0.4047
18655W        W34789   3.909   0.979   2.762  0.1955 -0.0433  0.0904
18656W        W34790   6.513  10.632  12.355  0.0320 -0.1214 -0.0018
18657W        W34791   7.053   4.727  16.195  0.1293  0.3491  0.0476
18658W        W34792   1.102   6.528   1.304 -0.0056  0.3261 -0.0896
18659W        W34793   4.063   8.797  16.136 -0.0977 -0.1022  0.0726
18660W        W34794   9.081  13.095   0.630  0.0577 -0.0481  0.4186
18661W        W34795   5.678   9.551   4.127 -0.0077  0.0542 -0.1100
18662W        W34796  11.753   6.850   2.764  0.0795 -0.1723 -0.2276
18663W        W34797   1.607   3.583  13.979  0.0202 -0.0787 -0.0466
18664W        W34798  13.136   2.325  17.015 -0.1261  0.1607  0.2091
18665W        W34799   4.041  16.711   2.179  0.1941 -0.0302  0.1592
18666W        W34800   6.797  16.011  14.063  0.5404  0.0252 -0.1469
18667W        W34801   6.030   7.563  13.988 -0.1615 -0.0549 -0.0716
18668W        W34802   2.790   7.530  15.908 -0.3065  0.4747  0.1497
18669W        W34803  16.298   4.252   2.149  0.0795  0.0161 -0.2558
18670W        W34804   0.212  13.880   3.953  0.0121  0.2086  0.1122
18671W        W34805   2.787   9.107   3.679 -0.1311  0.0661  0.2556
18672W        W34806   6.544   6.101  14.089 -0.0207  0.3261 -0.2332
18673W        W34807   1.202  15.515  14.287 -0.2141 -0.1310  0.0884
18674W        W34808  13.054  10.328  10.924  0.2392  0.1725  0.0314
18675W        W34809   0.100  13.738  16.144  0.1841  0.1134 -0.1132
18676W        W34810  15.475  10.585  15.982  0.0427  0.2468  0.0554
18677W        W34811   7.803   3.871  14.140 -0.1652 -0.3738 -0.1909
18678W        W34812   2.390   2.570   0.342  0.0274  0.1018 -0.0142
18679W        W34813   3.214   6.398   1.297  0.0703  0.0532 -0.1530
18680W        W34814  15.670  11.749   2.282  0.2251  0.0531 -0.2540
18681W        W34815  11.130  17.329   4.301  0.0142  0.0709  0.1518
18682W        W34816  12.368  12.129   6.273  0.2125 -0.3279 -0.0749
18683W        W34817   0.291  10.726   1.352 -0.0251 -0.3752  0.0490
18684W        W34818   7.894   7.934   5.597 -0.1396  0.1146 -0.0823
18685W        W34819   1.917  15.717  16.092  0.0594  0.2268 -0.4497
18686W        W34820   3.761  17.254  13.479 -0.2441 -0.1905 -0.1140
18687W        W34821  17.362   5.258  13.994 -0.0036 -0.0607  0.0779
18688W        W34822   1.019   8.535   0.443  0.0743  0.2713 -0.2846
18689W        W34823  14.893  11.809   1.162  0.1367  0.2304  0.1159
18690W        W34824   6.762   1.511   2.523 -0.0558 -0.1035  0.4496
18691W        W34825   1.679   7.847  15.611  0.0078  0.1691 -0.0727
18692W        W34826   7.443   0.795   0.690  0.1682 -0.1166  0.0199
18693W        W34827  10.663   5.432  13.161  0.2046  0.0048  0.0705
18694W        W34828   7.800  16.969  11.760  0.0912 -0.0722  0.0384
18695W        W34829  13.562   5.350  16.785 -0.1076 -0.1009 -0.2905
18696W        W34830  15.680  11.101  13.785  0.3345  0.0342 -0.0806
18697W        W34831   0.670   2.658   1.922 -0.0081  0.0462  0.2679
18698W        W34832   7.325   6.262   5.253 -0.1623  0.1576  0.0788
18699W        W34833   3.913   7.129   0.058 -0.0378 -0.0044 -0.1077
18700W        W34834  14.955   6.744   2.204 -0.2423  0.0573  0.0104
18701W        W34835  10.126  16.108  15.604  0.2830 -0.1033 -0.1732
18702W        W34836  16.067   3.644  16.913 -0.0253 -0.4198 -0.0753
18703W        W34837   0.731  15.848   5.707 -0.3020 -0.0813 -0.2480
18704W        W34838  12.730   0.704   2.530  0.1663  0.1022 -0.2993
18705W        W34839   8.103   0.750   4.673 -0.1074 -0.0401 -0.0276
18706W        W34840  12.945  15.124   5.414 -0.1478  0.2084  0.1548
18707W        W34841   4.938  12.151   1.480  0.1018 -0.0215  0.2504
18708W        W34842  10.417   0.031   1.555  0.0632  0.2800 -0.1918
18709W        W34843  13.082   4.882  11.619  0.0631  0.0584 -0.1257
18710W        W34844   2.636  12.309   5.489 -0.1273 -0.4837  0.0246
18711W        W34845  12.114  10.105  14.040  0.0587 -0.1734  0.0229
18712W        W34846  14.977  11.428   0.728  0.1013 -0.0585 -0.0237
18713W        W34847   5.744   3.487  13.573 -0.3445 -0.1865  0.1065
18714W        W34848  12.275  14.277   1.542 -0.0469 -0.2468  0.4393
18715W        W34849   4.757   8.032  14.121  0.0764  0.1731 -0.0271
18716W        W34850   4.831  12.683   6.105  0.1237 -0.0961  0.0588
18717W        W34851  15.061   1.685   0.568  0.2392 -0.1835 -0.5012
18718W        W34852   6.640  13.366   0.108  0.0444  0.2018  0.0664
18719W        W34853   2.331   8.758   2.714  0.2364 -0.0511  0.1691
18720W        W34854   2.780  11.931   6.285 -0.1783 -0.0241  0.0042
18721W        W34855   2.499  13.432   4.574 -0.1209  0.0838 -0.1468
18722W        W34856   4.430   1.975   5.589  0.0576  0.0177 -0.4446
18723W        W34857  12.432   7.758   4.088 -0.2930  0.1006  0.4535
18724W        W34858  14.485   5.002  11.394  0.1204  0.1687  0.2547
18725W        W34859  10.379  17.316   5.907 -0.0121 -0.1347 -0.1031
18726W        W34860  11.726  11.166  11.867 -0.3241  0.4290  0.2172
18727W        W34861   0.138   9.941   1.287 -0.4243 -0.1617 -0.0515
18728W        W34862  14.371  12.948  15.358 -0.0691  0.2564  0.1086
18729W        W34863  15.479   3.892   4.950  0.0833 -0.2898  0.1718
18730W        W34864  12.028   2.084   3.495  0.2473 -0.0972  0.1012
18731W        W34865  14.916   8.555  12.604  0.2829 -0.0230  0.2021
18732W        W34866   9.970   0.143   4.601  0.2947  0.1523  0.1046
18733W        W34867  10.342  17.488   4.141  0.0010 -0.0015 -0.1301
18734W        W34868   9.176  14.827   0.462 -0.0243 -0.0140  0.2040
18735W        W34869  11.085   6.073   3.722  0.2341  0.2829 -0.1563
18736W        W34870   9.561   8.676  12.477  0.2199  0.0558  0.3208
18737W        W34871  17.444  17.611   2.639  0.0666  0.1160 -0.1763
18738W        W34872   2.668  15.840  15.905  0.1139 -0.1873  0.0103
18739W        W34873  15.304  16.816  12.263  0.2671  0.1354 -0.1311
18740W        W34874   5.945   5.536  13.601 -0.2418  0.4701  0.0507
18741W        W34875   1.130   2.965  13.317 -0.1255 -0.1189  0.1269
18742W        W34876  16.060  11.917   5.369  0.3629  0.0277  0.1249
18743W        W34877  10.366   7.053   4.813  0.1561  0.1538 -0.0583
18744W        W34878   0.543   3.336  15.082  0.2544  0.2406  0.0486
18745W        W34879   8.148  11.698   3.248 -0.1756  0.0124 -0.1550
18746W        W34880   2.461   9.109  13.248  0.1329 -0.0270  0.0221
18747W        W34881  14.591  13.209  11.950  0.3204 -0.5561  0.0866
18748W        W34882   6.722   4.546  12.400  0.0931 -0.0561  0.1094
18749W        W34883   4.063   7.563  14.478 -0.1309 -0.1234 -0.0253
18750W        W34884  15.869  13.979  13.793 -0.2137 -0.3401  0.1607
18751W        W34885   4.653   7.358   6.126  0.0981 -0.1338  0.1123
18752W        W34886   2.059  13.963  17.134  0.0153  0.0561 -0.2530
18753W        W34887   6.911  15.081   1.861 -0.2971  0.0638  0.3632
18754W        W34888  11.559   6.438   2.327  0.2003 -0.2299  0.1303
18755W        W34889   4.084   3.180  13.339  0.0017 -0.2461  0.0352
18756W        W34890  14.527  15.477  12.867  0.0028  0.1876  0.2678
18757W        W34891   3.298   9.582  12.765 -0.1160 -0.2417 -0.2142
18758W        W34892  16.907   7.268  11.171  0.0956  0.1865 -0.2555
18759W        W34893   1.015   8.962   2.063  0.0843  0.1715  0.1890
18760W        W34894   3.510   9.542  16.693 -0.0356 -0.1061  0.0311
18761W        W34895  17.183  11.649  15.308  0.1977 -0.0234 -0.1552
18762W        W34896  17.217   8.326   0.037 -0.1796  0.1527  0.2507
18763W        W34897   3.973   1.725   3.317 -0.0491 -0.0281 -0.0933
18764W        W34898   2.164   3.240  13.118  0.0391  0.0964 -0.1004
18765W        W34899   6.748  14.362  12.268 -0.1985 -0.1331 -0.2004
18766W        W34900  15.162  10.349   4.612  0.2556  0.2302 -0.0238
18767W        W34901   1.147   0.865   4.294 -0.0519  0.0425  0.1444
18768W        W34902   9.344  12.647  12.077  0.0664 -0.0058  0.0731
18769W        W34903   0.740   4.854   4.497 -0.0956  0.2518  0.3134
18770W        W34904   8.546   2.693   3.431 -0.1799 -0.1659 -0.1208
18771W        W34905  17.602  12.568   0.432  0.2168  0.0804  0.0648
18772W        W34906   0.093   4.801  15.774  0.0496 -0.0124  0.1217
18773W        W34907   3.475   1.683   3.340  0.2324  0.0609 -0.2060
18774W        W34908   8.800  15.022  15.579 -0.1988 -0.0144  0.3133
18775W        W34909   6.641   3.039  14.062 -0.2589  0.0950  0.2389
18776W        W34910   4.960   8.093  13.090 -0.0833  0.0337  0.1180
18777W        W34911   1.601   8.793  15.686  0.1682  0.0088  0.0867
18778W        W34912  12.198   1.644   3.606 -0.3148 -0.1217  0.4530
18779W        W34913   9.985  12.096  15.069 -0.0650 -0.4078  0.4375
18780W        W34914   9.028  13.616  16.209 -0.0642 -0.0565  0.0243
18781W        W34915   6.847   8.406  12.282 -0.0794  0.0027  0.0035
18782W        W34916   3.446   1.367   5.339  0.4187  0.1708  0.1964
18783W        W34917   5.784  15.364   2.472 -0.1623  0.1679 -0.0962
18784W        W34918  15.328   4.566   3.661 -0.0376  0.0368  0.0352
18785W        W34919  14.062  16.490   3.973 -0.1632 -0.1307  0.0400
18786W        W34920   8.790   4.854  12.701 -0.3579 -0.1013  0.1639
18787W        W34921   3.217  16.226   2.193 -0.1232 -0.0587  0.2110
18788W        W34922  11.121  16.310  13.647  0.0449  0.1367  0.0697
18789W        W34923   8.293   4.718  16.805  0.0808 -0.1584 -0.0628
18790W        W34924   1.878   0.871  13.459  0.2033 -0.2923 -0.0609
18791W        W34925   9.542   4.122  15.629  0.3165  0.0945  0.0075
18792W        W34926  16.326   3.361   1.488 -0.2221 -0.1572 -0.3769
18793W        W34927   6.960   5.821  12.455  0.2035 -0.1086 -0.1620
18794W        W34928   7.353   1.512  15.000  0.0066 -0.3262  0.2342
18795W        W34929   0.522   0.013   5.226 -0.1041 -0.0726 -0.1058
18796W        W34930   7.219   8.196  16.690 -0.1455 -0.1036 -0.1745
18797W        W34931   5.147  16.055  12.806  0.0959  0.0682  0.0941
18798W        W34932   3.485   4.088  16.556  0.0777  0.0166  0.0125
18799W        W34933  12.538  11.971   0.865  0.2263 -0.1856 -0.2462
18800W        W34934   0.359  16.420  17.170  0.0493 -0.4831 -0.0454
18801W        W34935  15.550   0.318   2.409 -0.1225  0.3360  0.1077
18802W        W34936   0.966   9.910  11.478  0.0116 -0.1409 -0.0067
18803W        W34937  16.104  16.294   4.535 -0.1056 -0.3375 -0.1467
18804W        W34938  11.053   5.496  12.864 -0.2894  0.1937 -0.0828
18805W        W34939  10.892   9.421   2.989 -0.0929  0.2162 -0.1010
18806W        W34940  13.562  16.085  13.484 -0.1841 -0.0493 -0.0963
18807W        W34941   7.565  14.666  14.278 -0.0150 -0.3468  0.1594
18808W        W34942   2.538  15.845   5.834  0.1259 -0.0972  0.2508
18809W        W34943   8.430   6.016  13.723  0.4704  0.0421  0.0364
18810W        W34944   5.302  16.803  14.784  0.3688  0.2194 -0.0274
18811W        W34945   9.959  14.053   4.654 -0.4061 -0.0037  0.0517
18812W        W34946  17.317   2.793  16.153  0.0012  0.1508  0.0757
18813W        W34947   5.035  13.351   1.337 -0.0596  0.0575 -0.2770
18814W        W34948   3.467   1.854   4.293  0.0643 -0.1067 -0.0333
18815W        W34949  10.728   6.132  16.516  0.1392  0.0097  0.0589
18816W        W34950   3.077   7.983   2.862 -0.1910  0.1505  0.1234
18817W        W34951   1.383  14.413  16.331 -0.1487 -0.1417  0.0312
18818W        W34952   1.964   1.916  12.586  0.2072 -0.0656  0.1282
18819W        W34953   0.601   9.224  15.446  0.0453  0.1466  0.1142
18820W        W34954   7.357   7.580   1.917 -0.1550 -0.0816  0.0859
18821W        W34955  15.484  13.455  13.360  0.0245 -0.0544  0.0378
18822W        W34956  10.285   6.661  15.773 -0.0045 -0.2394  0.0732
18823W        W34957   8.190  13.911  12.110  0.1281 -0.2099 -0.0343
18824W        W34958   9.858  14.050  15.508  0.1501  0.1500  0.1477
18825W        W34959   8.417  10.307   2.825  0.2026  0.1071 -0.1117
18826W        W34960   0.590   1.860  15.097 -0.0751  0.0019  0.0095
18827W        W34961   1.978  12.509  15.199 -0.1810  0.0608  0.0128
18828W        W34962   4.515  15.510  13.063  0.1269 -0.0212  0.4909
18829W        W34963   5.013   2.811  12.634  0.1649 -0.0388 -0.0601
18830W        W34964  11.286   4.493  11.958 -0.0722 -0.3482  0.3398
18831W        W34965  13.349  16.439  12.483 -0.1774 -0.0285 -0.1872
18832W        W34966  14.258  14.918   1.470 -0.1628 -0.0051  0.0329
18833W        W34967   6.915   0.946   4.710 -0.1774 -0.0535 -0.0787
18834W        W34968   2.473   1.160  15.932 -0.4803 -0.0009 -0.1093
18835W        W34969   6.336  13.730  12.005  0.1350 -0.1336  0.0993
18836W        W34970   9.578   4.667   1.594 -0.1162 -0.1333 -0.1891
18837W        W34971   2.077   1.848   1.396  0.0962  0.1924 -0.3458
18838W        W34972  17.191   0.769   2.979  0.0375 -0.0290 -0.0143
18839W        W34973   9.329   3.696   2.468 -0.1457 -0.0671  0.0399
18840W        W34974  16.081   9.544   5.400 -0.1118 -0.0388 -0.1913
18841W        W34975  14.795   8.508   3.399 -0.1665 -0.2156 -0.0001
18842W        W34976  15.299  15.761  12.337  0.0824 -0.0002  0.0504
18843W        W34977  12.753  13.902   1.002 -0.4086  0.0091  0.0553
18844W        W34978   3.572  12.360   1.701 -0.1309 -0.2294  0.1135
18845W        W34979   0.845   5.727  10.339 -0.0901 -0.2228  0.0922
18846W        W34980   1.058   9.128   4.100 -0.2272  0.0815 -0.0137
18847W        W34981   4.804   4.387   5.875 -0.1089 -0.0874 -0.1343
18848W        W34982   6.644   1.576  13.343  0.3654 -0.4681 -0.1446
18849W        W34983  17.438   2.194   0.465  0.0834  0.1359 -0.0588
18850W        W34984   3.192  14.934  15.578 -0.0110 -0.0010  0.0287
18851W        W34985   7.100  13.157  16.632  0.0143  0.0984  0.0072
18852W        W34986   9.835   9.885  14.042 -0.4422 -0.1382 -0.2649
18853W        W34987   1.928  14.698   4.187 -0.0916 -0.2675 -0.1403
18854W        W34988  10.853   1.401  15.210 -0.4758  0.1873 -0.0253
18855W        W34989   0.379   4.997  13.044  0.0415  0.2044  0.0475
18856W        W34990   5.387   5.162   6.184 -0.0386 -0.0600  0.0699
18857W        W34991   6.141  13.944   4.751  0.0180 -0.0731  0.0479
18858W        W34992  16.565  15.104   3.088  0.0327 -0.0708  0.1860
18859W        W34993   2.984   9.508  14.948  0.2979 -0.0664 -0.3907
18860W        W34994  12.649   5.581   2.923 -0.1731 -0.1306  0.1312
18861W        W34995  10.851  14.956  12.987  0.0155  0.0648 -0.0169
18862W        W34996  14.082   9.300   2.554 -0.0056 -0.0995  0.0389
18863W        W34997   4.641   1.893   1.779  0.2177 -0.0181  0.0713
18864W        W34998  12.018   7.749  16.218 -0.1070 -0.3096 -0.1313
18865W        W34999   2.080  10.254   5.188 -0.4140 -0.0536 -0.1379
18866W        W35000   0.291  13.423   6.065  0.2122 -0.1421  0.1366
18867W        W35001   1.310   8.090  15.923  0.0880  0.0089 -0.2778
18868W        W35002   1.369  15.203  15.960 -0.0015  0.0881 -0.2916
18869W        W35003   2.038  15.534  13.260  0.0185 -0.1865 -0.3277
18870W        W35004  11.276   6.701   0.006 -0.0383  0.1143  0.1592
18871W        W35005   3.756  11.045   4.496  0.1605  0.1732  0.0108
18872W        W35006   8.508  16.306   2.030  0.0463 -0.0689 -0.1990
18873W        W35007  12.290  17.568  14.939 -0.2888  0.0756  0.0795
18874W        W35008   1.040  12.222  13.446 -0.0501 -0.2906 -0.1194
18875W        W35009  16.789   0.800  15.974 -0.0355  0.0104  0.3237
18876W        W35010  13.768  14.812   2.552 -0.2282  0.0041  0.1188
18877W        W35011   4.394   7.065   0.006 -0.0025 -0.2347 -0.2827
18878W        W35012  15.144  13.476  13.757 -0.2237 -0.2129 -0.2527
18879W        W35013   4.059   2.591   5.066  0.0608  0.1254  0.2213
18880W        W35014   4.315  13.090  16.659  0.0323  0.1871  0.0231
18881W        W35015  14.687  12.879  12.445  0.1569 -0.0563 -0.0149
18882W        W35016   8.206   7.373   6.130  0.2023 -0.0252 -0.3063
18883W        W35017   4.361   6.011  15.410 -0.2522 -0.7103 -0.1203
18884W        W35018  14.290   1.646  15.600 -0.2434  0.1173  0.2926
18885W        W35019   4.614   1.324   1.094 -0.0528  0.3135 -0.2293
18886W        W35020  17.617  17.139   1.030  0.0440 -0.0070 -0.0839
18887W        W35021   4.655   5.454   3.095 -0.1712 -0.0911  0.0690
18888W        W35022   3.427   8.979   1.282  0.0867 -0.1567 -0.0400
18889W        W35023  15.393   4.295   0.578  0.0933  0.3230  0.2244
18890W        W35024   1.349  16.689  13.925  0.1901 -0.0336  0.0151
18891W        W35025   7.825   6.476  13.097 -0.1214 -0.1456  0.2178
18892W        W35026   3.518  15.197   0.225  0.0764 -0.3425  0.0721
18893W        W35027   4.780   4.938  15.086  0.3280 -0.0603  0.2493
18894W        W35028   6.975   0.278   4.945  0.0136  0.2044 -0.1208
18895W        W35029   2.036  13.229   0.745  0.1010  0.1864  0.0422
18896W        W35030   8.131  13.837  16.752  0.0974 -0.4015 -0.0404
18897W        W35031   2.004   1.579  15.280 -0.0497 -0.0275  0.0930
18898W        W35032   9.030  15.501  16.834  0.2452  0.2083  0.2143
18899W        W35033   6.441   6.689  11.613 -0.0461  0.0816 -0.1914
18900W        W35034  12.532   4.995  16.676  0.0990  0.1906  0.0665
18901W        W35035  15.289   8.233  12.528  0.2441  0.1500 -0.2190
18902W        W35036  16.341  15.070   5.706  0.0451  0.1353  0.0096
18903W        W35037   6.422   1.507   2.090  0.1352  0.2367 -0.3059
18904W        W35038   1.591   0.257  14.521 -0.2242  0.0802 -0.4547
18905W        W35039   7.408  15.297  15.821 -0.0938 -0.0225  0.3065
18906W        W35040   9.004  11.683  13.813 -0.0715  0.1224  0.0450
18907W        W35041  13.789  16.487   3.254  0.2177 -0.1518 -0.4077
18908W        W35042  16.570   5.021  15.039  0.0353  0.1823  0.2648
18909W        W35043   3.950   4.053  15.755  0.2208 -0.3325  0.1657
18910W        W35044  10.875   1.694  12.269 -0.0561  0.0782  0.1876
18911W        W35045   8.345   9.574  16.804 -0.0850  0.0010 -0.3744
18912W        W35046   7.784  16.957   1.727 -0.0747  0.1955  0.0890
18913W        W35047   8.032   4.923   0.944 -0.3847 -0.2541 -0.3349
18914W        W35048   7.488  10.809   1.875 -0.0005  0.2077  0.4821
18915W        W35049   3.296   7.989   5.595  0.3299  0.0819 -0.1498
18916W        W35050  10.393   3.137  11.196  0.2681 -0.3263  0.1292
18917W        W35051   1.062   5.008   2.251 -0.2533 -0.0272  0.5710
18918W        W35052   3.846  16.872  12.642 -0.0424  0.1835 -0.0157
18919W        W35053  13.223   9.090   0.745 -0.4009 -0.1442 -0.0610
18920W        W35054  13.231   6.591  11.525  0.2261 -0.0017 -0.0911
18921W        W35055  13.471   7.221   0.923 -0.0070  0.1457  0.3671
18922W        W35056   8.828  11.343   5.747  0.0413  0.0276  0.0911
18923W        W35057   1.607   4.969  14.804  0.0305  0.1382  0.1444
18924W        W35058   1.174  13.085   5.239  0.1913  0.0467 -0.2126
18925W        W35059   5.964  12.425  16.653  0.3751  0.0652  0.0148
18926W        W35060   0.747  16.061  14.848  0.1319  0.0310 -0.0516
18927W        W35061   6.674   0.004  12.048  0.1685 -0.1134  0.0343
18928W        W35062   2.820   9.173   5.046 -0.0917  0.1660  0.2013
18929W        W35063   5.784   4.662   3.341  0.0361  0.0234 -0.0479
18930W        W35064   5.323   9.923   1.618 -0.2397 -0.1040 -0.1071
18931W        W35065  14.421   5.062   3.571  0.1737  0.1747 -0.2231
18932W        W35066  10.745  17.249   4.910  0.0375 -0.3619 -0.1120
18933W        W35067  13.023  17.169  15.230  0.1573 -0.0353  0.0860
18934W        W35068  15.626   5.991   2.310 -0.1977  0.0144 -0.1789
18935W        W35069   9.623  13.070   1.372  0.1488  0.1961 -0.1504
18936W        W35070   3.726  15.634  12.625 -0.0630  0.0494 -0.1087
18937W        W35071   5.138  16.758   1.265 -0.0352  0.4264  0.2396
18938W        W35072   3.129   5.543   1.351 -0.0682  0.0843 -0.0430
18939W        W35073   4.711  10.463  12.251  0.0354 -0.0991  0.2228
18940W        W35074  12.663  16.521   5.086 -0.1478  0.0542 -0.0484
18941W        W35075  13.351   1.531  15.066  0.1509 -0.1435 -0.0998
18942W        W35076  13.589  16.355   1.930  0.1976 -0.2319  0.3442
18943W        W35077   8.435  11.572   0.788  0.1534 -0.2478  0.0433
18944W        W35078   1.709   5.457   1.980  0.2215  0.2064  0.1311
18945W        W35079  13.977   7.102  10.970  0.1935  0.4244  0.1114
18946W        W35080   2.739   2.795   1.907 -0.0642  0.0785  0.0823
18947W        W35081   7.327  15.758   0.214 -0.0854 -0.0615  0.2010
18948W        W35082  15.144  12.413  14.844  0.1112  0.1340 -0.0165
18949W        W35083   9.008  17.261   3.662  0.1369  0.0565 -0.1071
18950W        W35084   2.036   4.757   5.224 -0.3621 -0.2112  0.2451
18951W        W35085   4.692   8.792  17.009  0.0562  0.0903 -0.1804
18952W        W35086  17.252  10.225   2.747 -0.0607  0.1595 -0.2843
18953W        W35087  12.484  12.510  14.136 -0.2137 -0.0528 -0.2208
18954W        W35088  17.346   8.579   1.525  0.0145 -0.1773  0.0792
18955W        W35089  10.771   9.619   4.610  0.0311  0.2200 -0.0336
18956W        W35090  14.379   2.368  13.429 -0.2300 -0.2006 -0.0230
18957W        W35091   8.737  10.636  13.391 -0.0998  0.0251  0.0934
18958W        W35092   3.753   3.805   3.321 -0.0277 -0.6221  0.1233
18959W        W35093  13.694  13.627  12.569  0.4139  0.1309 -0.1201
18960W        W35094   0.990   8.472  12.469  0.1518 -0.1745  0.2114
18961W        W35095   1.077  10.436   3.315 -0.0178  0.0170 -0.0903
18962W        W35096   7.245  11.513  16.443 -0.2715 -0.0449  0.0333
18963W        W35097  14.335   3.869  13.070 -0.0542 -0.4188 -0.0223
18964W        W35098  11.102   8.504  14.519  0.3601  0.0323  0.3618
18965W        W35099   4.308  15.080  16.975 -0.3094 -0.0042  0.0444
18966W        W35100  11.158  10.531  16.361 -0.2518  0.0139 -0.0269
18967W        W35101  14.101   7.498   1.537 -0.2371  0.0172 -0.0949
18968W        W35102  12.805  16.277  16.441 -0.0775 -0.1014  0.3641
18969W        W35103   7.373   2.432  12.824  0.1046  0.0109  0.0174
18970W        W35104   8.975   7.795  12.055  0.3628 -0.3045 -0.1741
18971W        W35105  13.721  16.695   4.310  0.1105 -0.1457 -0.0997
18972W        W35106   3.484  11.773   3.384 -0.1199  0.1533  0.3581
18973W        W35107   4.452  11.498  12.197 -0.1736  0.0763 -0.0051
18974W        W35108   5.142   6.834   0.521  0.0075  0.2930 -0.2837
18975W        W35109   2.262  16.216   4.976  0.3072 -0.1575  0.0285
18976W        W35110   8.528  13.762  16.290  0.3540  0.0502 -0.0696
18977W        W35111  16.906   9.683  11.261  0.1178 -0.0304 -0.0557
18978W        W35112   4.460   2.645   1.131  0.3117 -0.2392 -0.0431
18979W        W35113  13.351   2.408  12.386  0.0154 -0.0908  0.0073
18980W        W35114  13.514   6.353  13.841 -0.1046  0.4675 -0.1270
18981W        W35115   7.622  16.201   3.038  0.0781 -0.0760 -0.0787
18982W        W35116  12.378  16.689   3.509 -0.1999  0.0587 -0.2060
18983W        W35117  10.684   4.570   5.256  0.0514 -0.0231  0.0123
18984W        W35118   8.701  17.381  15.643  0.2469 -0.3163 -0.0032
18985W        W35119   6.182  15.755   3.124 -0.2652 -0.0630 -0.0486
18986W        W35120   3.928  14.671   0.448 -0.0809  0.0642 -0.2873
18987W        W35121   1.748  16.651   0.005 -0.0743  0.0497 -0.0710
18988W        W35122   3.316   7.680  15.128 -0.1075 -0.0117  0.0038
18989W        W35123  11.537  12.163   3.134  0.0376  0.2611 -0.1894
18990W        W35124  16.313  13.057   5.832  0.1844 -0.0361 -0.2501
18991W        W35125  11.542  15.924   2.769 -0.2723  0.3163 -0.0338
18992W        W35126   6.587  13.134  16.757  0.3066 -0.1075  0.1904
18993W        W35127   2.305  10.022  13.350  0.1573  0.0272  0.1195
18994W        W35128   4.707  15.425  17.031  0.0720  0.1751  0.2710
18995W        W35129   7.555  14.196  12.268 -0.3581 -0.1326  0.3077
18996W        W35130  17.096   2.510   0.774 -0.0379  0.1291 -0.0365
18997W        W35131   6.700  17.305   4.353 -0.1460  0.2123  0.2144
18998W        W35132   4.250  11.602   1.411  0.0462 -0.0980  0.3384
18999W        W35133   9.542   9.459   4.678 -0.2269  0.0944  0.0925
19000W        W35134   9.013  14.564  15.396 -0.0427 -0.0591  0.1489
19001W        W35135   9.701   7.915   2.106 -0.0481 -0.2425 -0.2189
19002W        W35136   5.070   0.966  13.224 -0.1392 -0.1478 -0.0688
19003W        W35137  16.748  15.659   1.120  0.0618 -0.1076  0.3244
19004W        W35138   2.646  11.889   1.747 -0.0772  0.0624 -0.0897
19005W        W35139  14.618  15.743   4.162 -0.2862 -0.1427 -0.1666
19006W        W35140   6.538  11.398  12.781 -0.0474  0.4987  0.1934
19007W        W35141   2.834  14.919   1.742 -0.0621 -0.2548 -0.0674
19008W        W35142  15.910  15.295   5.923 -0.0167  0.2102 -0.0665
19009W        W35143  15.710  17.218   2.224 -0.1504  0.1150  0.1547
19010W        W35144  11.472   1.139  16.310 -0.0606  0.2894 -0.0411
19011W        W35145  15.484  16.199   1.421  0.0371  0.0620  0.2664
19012W        W35146   7.244  13.942   5.488 -0.1762  0.0079 -0.0061
19013W        W35147   1.631  13.000   1.724  0.1547  0.0460 -0.2310
19014W        W35148   9.762  10.329  13.363  0.3750 -0.2159  0.1212
19015W        W35149   7.430  11.798   3.950 -0.0870  0.0291 -0.0356
19016W        W35150   8.960  16.024   5.284 -0.0979  0.2204  0.0040
19017W        W35151  10.777  11.977  15.317  0.1414 -0.1622  0.3306
19018W        W35152  16.325  15.519   4.994  0.1548 -0.0533 -0.1890
19019W        W35153   0.547   8.700  12.296 -0.0229 -0.2907 -0.1474
19020W        W35154  15.715   6.236   5.167 -0.3313  0.1766 -0.0172
19021W        W35155  11.150  14.415   3.452  0.1977  0.0708  0.0712
19022W        W35156   2.906   7.602  14.100 -0.4437 -0.2023  0.0280
19023W        W35157   5.464   0.537   3.371  0.1250 -0.4006 -0.1791
19024W        W35158   5.935  12.185   0.795 -0.1235  0.1616 -0.0029
19025W        W35159   5.195   6.101   3.823  0.0036 -0.0283  0.1551
19026W        W35160  11.508  16.179  17.046  0.1070  0.1121 -0.2626
19027W        W35161  14.737   8.048  15.402 -0.1528  0.2139  0.1526
19028W        W35162  12.834  10.517  13.766 -0.3072  0.0989 -0.3781
19029W        W35163  16.120   6.898  12.587  0.3252 -0.1966  0.0839
19030W        W35164   4.329   3.945   5.852  0.1807  0.1085  0.1739
19031W        W35165   6.315  11.819   0.848  0.1149 -0.1792  0.3368
19032W        W35166   4.075  10.501   2.031 -0.1280  0.2382 -0.1235
19033W        W35167  17.496   6.381   4.297  0.1690 -0.0321  0.1909
19034W        W35168  15.276  13.483   4.140  0.0298 -0.0310 -0.1606
19035W        W35169  16.463  15.756   4.333  0.0392  0.2739  0.2238
19036W        W35170   4.216  16.367  15.366  0.1976 -0.2176  0.1567
19037W        W35171   1.219  13.649  12.863 -0.0724 -0.0997 -0.0789
19038W        W35172  13.051  12.363  16.103  0.3407  0.0214  0.0577
19039W        W35173   2.264   2.958  16.502 -0.3228 -0.1176  0.1781
19040W        W35174   8.890   8.150  11.695 -0.2312 -0.3022 -0.1201
19041W        W35175   3.703  12.698   3.444 -0.1436  0.2588 -0.1007
19042W        W35176  11.119  10.542  15.863 -0.1190  0.0654 -0.0894
19043W        W35177   4.511  15.321   3.624  0.2326  0.2961 -0.0683
19044W        W35178  12.941   1.449  16.051  0.0014  0.0934  0.0329
19045W        W35179  13.095  14.673  16.479  0.2176  0.3393 -0.1452
19046W        W35180  15.923   0.965  12.051  0.1185  0.0428  0.2754
19047W        W35181   9.369  11.494  12.833 -0.1238 -0.0695  0.0535
19048W        W35182   8.520  16.018   3.730  0.0066 -0.0318  0.0325
19049W        W35183  17.075   9.149   3.973  0.1344  0.1071  0.1649
19050W        W35184  15.545   5.010   3.607  0.0788 -0.2143 -0.0433
19051W        W35185  12.618  16.005  16.099 -0.1560 -0.1187  0.1039
19052W        W35186  15.553   5.028   0.912 -0.1179  0.2454  0.0628
19053W        W35187   5.199  10.446  12.278 -0.2688  0.0493 -0.0403
19054W        W35188   9.455  15.403   0.702 -0.1682  0.0905 -0.1567
19055W        W35189   5.808   4.652  17.114  0.2435 -0.0102 -0.0011
19056W        W35190  11.150  16.933   3.683 -0.0643  0.2556  0.0678
19057W        W35191   2.273  11.837  16.271  0.1106 -0.1197 -0.0056
19058W        W35192  14.786  14.912   1.403  0.1818 -0.0911  0.1724
19059W        W35193   8.342   0.648  14.502  0.1249 -0.1825 -0.3481
19060W        W35194   5.133   1.961   4.481 -0.3398  0.4256  0.0378
19061W        W35195   0.300  13.896   2.184 -0.1034 -0.2477  0.2518
19062W        W35196  12.120   3.258  16.322 -0.0366  0.1032 -0.0707
19063W        W35197  16.613   5.675   0.783  0.0194 -0.1334 -0.0254
19064W        W35198   8.656  17.079  11.898  0.3592  0.1280 -0.0149
19065W        W35199   0.728   6.579  14.252  0.3225 -0.0558 -0.2700
19066W        W35200  14.237  12.241  14.460 -0.1813 -0.3767  0.0587
19067W        W35201  13.006   1.470  12.876  0.2245  0.2275 -0.3365
19068W        W35202   2.832   2.485   3.747 -0.0313  0.3009 -0.2160
19069W        W35203  17.069   2.453   2.917 -0.0994 -0.1400  0.0961
19070W        W35204   7.018  11.821   5.063  0.0645 -0.1103 -0.0288
19071W        W35205  15.104  15.221   4.854 -0.2238  0.0424  0.1145
19072W        W35206   8.148   1.775  16.144  0.0866 -0.0865  0.2168
19073W        W35207   3.380  14.047  15.475  0.0248 -0.1348  0.2942
19074W        W35208   2.980   9.230  16.073 -0.1914  0.1950  0.1048
19075W        W35209   4.321  11.034   4.732 -0.0113  0.0246  0.2343
19076W        W35210  15.465   6.453  14.243  0.0687  0.0173 -0.3058
19077W        W35211   1.696  14.628   0.847  0.0154 -0.0863  0.0428
19078W        W35212   4.603  14.891  14.905  0.2259  0.3239 -0.1441
19079W        W35213  11.308  15.562   3.036  0.3420  0.0584 -0.2444
19080W        W35214  13.544   7.710   1.117 -0.0362  0.2980  0.1491
19081W        W35215  13.948  15.276   2.872  0.1021  0.1408 -0.1556
19082W        W35216   5.363  13.454  12.844 -0.1410 -0.0909 -0.0181
19083W        W35217   0.746   2.334   4.023 -0.1287 -0.1702  0.2393
19084W        W35218   9.763   5.884   0.638  0.0830  0.0459  0.1189
19085W        W35219   5.947   1.805  16.925 -0.0670 -0.0674  0.0213
19086W        W35220  11.239  14.344  16.831  0.2020 -0.0138  0.1617
19087W        W35221  15.550   2.971  14.087 -0.0857  0.0126 -0.1527
19088W        W35222   9.544  11.401   2.890 -0.2296  0.1588  0.2948
19089W        W35223  16.772   4.027  13.568 -0.1422  0.2210 -0.0715
19090W        W35224  16.430  15.906   6.349  0.0617  0.1553 -0.1332
19091W        W35225   0.518  16.539   3.658 -0.1110  0.2021 -0.1832
19092W        W35226  11.217   8.765  16.940  0.1294  0.1228 -0.1555
19093W        W35227  14.995  12.779  16.102  0.0001 -0.2306 -0.0777
19094W        W35228   1.614   3.021   0.316  0.1629  0.2696 -0.1260
19095W        W35229   1.687   3.319  16.969 -0.0446  0.2254 -0.3630
19096W        W35230   5.546   5.779   1.490  0.1683 -0.3019  0.0159
19097W        W35231   8.105   0.290  13.501  0.1680  0.0677 -0.2659
19098W        W35232  11.775  13.223  16.001 -0.3010 -0.1104 -0.3821
19099W        W35233   0.316  15.508  16.801  0.0712 -0.0756 -0.1147
19100W        W35234  10.344  13.734  15.471  0.3961 -0.3368  0.1482
19101W        W35235   6.668   6.983  16.068  0.2206  0.2532  0.1355
19102W        W35236   3.740   1.119  16.924  0.2166  0.1598 -0.1308
19103W        W35237   7.240   4.757   1.903 -0.1884  0.2074  0.2444
19104W        W35238   9.006   8.963  14.884 -0.0380 -0.1800 -0.0951
19105W        W35239   0.263   2.959  12.236 -0.2185 -0.0148  0.1328
19106W        W35240   8.765   4.847  14.459 -0.1039  0.0278  0.0905
19107W        W35241   9.497   9.476   3.228  0.4147 -0.2436 -0.0451
19108W        W35242  11.139   4.621  13.419 -0.1570  0.0595 -0.1384
19109W        W35243  12.685   2.090   0.643 -0.3385 -0.0956  0.3028
19110W        W35244  12.595   5.971  14.641  0.2278 -0.2227 -0.2019
19111W        W35245   3.175   8.888  12.042  0.1902  0.0821 -0.0101
19112W        W35246  10.288   7.944  14.306  0.0146  0.0071 -0.3357
19113W        W35247  10.948  12.449  11.327  0.1069 -0.0481 -0.0576
19114W        W35248   5.697   1.485   5.870 -0.0469 -0.2797  0.0778
19115W        W35249  13.198  13.496   2.737  0.0720 -0.1761  0.1261
19116W        W35250   5.027  12.904   1.156  0.3026 -0.3946 -0.2681
19117W        W35251  16.266  12.639  16.004 -0.1971 -0.1445 -0.2480
19118W        W35252   0.075   9.530   4.678  0.1082 -0.0494  0.3447
19119W        W35253   3.631   7.877  14.513 -0.0344 -0.1655  0.1983
19120W        W35254   8.599   3.669   2.788  0.4002  0.1925 -0.0766
19121W        W35255   9.618  17.358  12.296  0.0654 -0.5618 -0.2999
19122W        W35256  11.874  12.004   2.259  0.1033 -0.1281 -0.0725
19123W        W35257  17.490   3.009   1.541 -0.1414 -0.0098 -0.2665
19124W        W35258  15.750  14.577   5.633  0.0296 -0.0062 -0.0434
19125W        W35259  16.939   6.709   4.158 -0.2402 -0.1303  0.1441
19126W        W35260   2.072  13.568  15.359  0.1238 -0.1834  0.1946
19127W        W35261   9.108  14.972   2.213  0.0119  0.0805 -0.2379
19128W        W35262  15.609   9.514  16.021 -0.0133 -0.2001  0.0656
19129W        W35263  14.468  15.327   1.103  0.1229  0.0148 -0.1717
19130W        W35264  14.274   8.414   0.968  0.1672 -0.0855  0.0584
19131W        W35265   9.419   0.999  13.972  0.1109  0.4621  0.2941
19132W        W35266  13.814  11.178   2.802 -0.2537 -0.1221  0.1181
19133W        W35267   8.501  12.328  13.647  0.0004 -0.3222 -0.1593
19134W        W35268   3.326  11.237   1.661  0.0585 -0.0641 -0.0981
19135W        W35269   5.178  17.131  12.469 -0.0052  0.1301  0.0444
19136W        W35270   5.588  16.802   4.883  0.2788 -0.0739 -0.1372
19137W        W35271  17.392   8.463   2.250 -0.1365  0.0551 -0.2031
19138W        W35272  17.534   2.226  14.606 -0.0500 -0.2239 -0.2446
19139W        W35273   1.863   8.911  14.732 -0.0454 -0.0354  0.5858
19140W        W35274   3.445  14.794   3.743 -0.2156 -0.1513  0.1147
19141W        W35275   2.351  16.807  15.054  0.0286  0.1108  0.3020
19142W        W35276   7.795   1.665   2.804  0.0243 -0.0154  0.2140
19143W        W35277   8.228   4.376   1.917 -0.1397 -0.2425 -0.3382
19144W        W35278   3.629  12.861  14.106  0.0237 -0.2697  0.0466
19145W        W35279   5.601   8.262  15.139  0.1166  0.0674 -0.2244
19146W        W35280   2.571   8.267  16.763 -0.0868 -0.1915  0.1339
19147W        W35281   4.740  17.195   6.133 -0.0722  0.0145 -0.3867
19148W        W35282  12.748  14.778  15.529  0.1311 -0.0931  0.0572
19149W        W35283  16.616   1.928   3.453  0.0106 -0.2605 -0.1037
19150W        W35284   4.946   6.592   4.902  0.0678  0.5112 -0.2288
19151W        W35285  10.959   0.305  14.977 -0.1472 -0.1497  0.0591
19152W        W35286  17.308   0.456   3.926  0.0599  0.2053  0.5164
19153W        W35287  17.417  10.756  14.601 -0.0459  0.1062  0.0905
19154W        W35288   1.335   9.109  12.085  0.2958 -0.0337 -0.1710
19155W        W35289   1.935  12.848  12.527  0.1761 -0.1418 -0.1459
19156W        W35290   2.769   6.825  15.468 -0.0204  0.0008  0.1714
19157W        W35291  11.467   4.912  13.212  0.1884 -0.0148  0.1004
19158W        W35292  15.959  12.764   3.797 -0.1103  0.1524  0.2302
19159W        W35293   1.530  17.659  13.546  0.1211 -0.0423 -0.0754
19160W        W35294   7.858   0.817  15.767 -0.0665 -0.0320 -0.0012
19161W        W35295  11.002   0.949   2.117 -0.0633  0.2326 -0.0517
19162W        W35296   7.548   5.897   4.040  0.1236 -0.2136  0.1061
19163W        W35297  11.955   9.110   1.086 -0.0515  0.0070 -0.2694
19164W        W35298   3.998   5.063   5.048  0.0575 -0.1966  0.2254
19165W        W35299   7.422   2.123   4.555  0.2444 -0.3356  0.1550
19166W        W35300  16.274   4.672   2.800 -0.1556  0.2330 -0.2499
19167W        W35301   4.582   8.118   5.583 -0.2626 -0.0790  0.0588
19168W        W35302  15.991  10.990   4.682  0.3027 -0.0265 -0.0407
19169W        W35303   4.428   9.526   4.314 -0.1316 -0.2122  0.1091
19170W        W35304   9.312   3.464   3.887 -0.1180 -0.0070 -0.0666
19171W        W35305   6.004  12.288   2.475 -0.2101 -0.1435 -0.2152
19172W        W35306   9.215  14.238   1.743 -0.1686  0.1881 -0.0468
19173W        W35307  13.972  14.722   0.506 -0.1158  0.0547 -0.0313
19174W        W35308   8.605   9.628  15.974 -0.2486 -0.0061 -0.0299
19175W        W35309   1.246   3.021   5.597 -0.0963  0.3202 -0.2411
19176W        W35310   6.195   6.915  16.883 -0.2297  0.2626  0.1319
19177W        W35311   7.001   1.491  16.166  0.2138  0.0529  0.0695
19178W        W35312   9.178  10.594  11.289  0.2273  0.0953  0.0104
19179W        W35313  10.783   4.626  14.445  0.1131  0.2504 -0.0179
19180W        W35314   4.042   7.743   0.680 -0.1142 -0.1311 -0.0635
19181W        W35315   3.488  12.700  13.002  0.1648  0.0815 -0.0722
19182W        W35316   2.956   9.596  12.215 -0.2463  0.0957  0.2580
19183W        W35317   7.956   6.332  14.533 -0.4971  0.0363  0.0939
19184W        W35318  15.899  14.155   0.039 -0.0919  0.0633 -0.0751
19185W        W35319  14.609   2.778   2.025  0.2631  0.1647 -0.0408
19186W        W35320  13.783  11.935   4.085  0.0725 -0.1289 -0.0947
19187W        W35321   8.364   9.864  11.739 -0.0129  0.3166  0.2230
19188W        W35322   4.525   3.124   1.012  0.1135  0.2153  0.0011
19189W        W35323  14.452   2.616   3.813  0.0730  0.1921 -0.0239
19190W        W35324   1.375  17.492  12.217 -0.2085  0.0985  0.1155
19191W        W35325  13.039   1.671  13.905 -0.3121 -0.2216 -0.0363
19192W        W35326   8.864   1.698  14.123  0.1072 -0.1443 -0.1667
19193W        W35327   4.947   8.294   1.026  0.0323 -0.2123  0.1469
19194W        W35328   8.341   8.951  15.670 -0.1307 -0.1554 -0.1692
19195W        W35329   2.885  12.077  13.021  0.0919 -0.1121  0.3915
19196W        W35330   7.800   5.268   5.241 -0.0777  0.0144  0.2469
19197W        W35331   6.905  10.332  15.111 -0.2300 -0.0222  0.0502
19198W        W35332   9.493   6.084  12.327  0.1030 -0.2957 -0.0444
19199W        W35333  15.302   2.962   2.216 -0.0803  0.3804 -0.1764
19200W        W35334   4.779   5.263   2.640  0.0008 -0.2360 -0.1085
19201W        W35335  10.032  11.976   1.912  0.3601  0.1930  0.0038
19202W        W35336  10.016  17.488   0.744 -0.0739  0.0369 -0.2512
19203W        W35337  12.057   8.427   5.179 -0.3005 -0.0431 -0.3330
19204W        W35338  17.033   1.361  14.797  0.0525 -0.2150 -0.1828
19205W        W35339  17.178  11.259   1.381 -0.2786  0.0820  0.0775
19206W        W35340   1.099  12.407   1.217 -0.3792 -0.2341 -0.1523
19207W        W35341  11.754   3.409   3.716 -0.0231 -0.1995 -0.0497
19208W        W35342   7.907   1.247  13.195  0.1198 -0.0551 -0.1722
19209W        W35343   7.461   5.625   5.250  0.2220 -0.0165  0.0624
19210W        W35344   6.842   3.062  16.015 -0.0720  0.0819 -0.4195
19211W        W35345   6.075   3.598  13.173 -0.3117  0.2040  0.0899
19212W        W35346  17.345   6.412   0.803 -0.1279 -0.2323 -0.0342
19213W        W35347   5.574   1.642  11.246 -0.0503  0.0075  0.3532
19214W        W35348   0.416  11.011   3.085 -0.1586 -0.1253  0.1324
19215W        W35349  12.821   4.484  11.900  0.0949  0.1048 -0.0091
19216W        W35350  16.767   1.177   2.657  0.1001 -0.1221  0.0288
19217W        W35351   2.819  12.746   2.370  0.5505  0.1384 -0.2879
19218W        W35352  16.715  16.825   6.285 -0.0187  0.0960  0.2597
19219W        W35353  13.311   5.325   1.377  0.1565  0.1063  0.0561
19220W        W35354   0.277   3.181  13.194  0.2707 -0.0211 -0.1851
19221W        W35355   5.128  15.039  16.654  0.1672 -0.1006  0.2134
19222W        W35356   6.040   7.150   0.106  0.1843 -0.0689  0.0381
19223W        W35357   4.321  11.493  13.060  0.1466  0.2354 -0.0655
19224W        W35358  15.325   6.419  15.187 -0.1525  0.1209  0.0352
19225W        W35359   3.888  11.868   5.027  0.2313  0.0984  0.1058
19226W        W35360   0.771   4.758   1.735  0.0794 -0.2651 -0.1884
19227W        W35361   1.229   7.298  14.477  0.4684  0.1505 -0.0292
19228W        W35362   2.610  16.253   3.198  0.1173 -0.0413  0.0665
19229W        W35363   8.345   7.366   4.962 -0.2790  0.0557 -0.1411
19230W        W35364   8.494   0.229   5.445  0.4596 -0.1272  0.3962
19231W        W35365  10.962   2.748  12.747  0.0389  0.4054  0.0601
19232W        W35366  14.341   8.037  14.498 -0.2090  0.2374  0.0518
19233W        W35367  14.026   5.571  13.173  0.1947 -0.0045 -0.1957
19234W        W35368   7.838  10.640   4.740  0.1645  0.0385  0.0809
19235W        W35369   2.273  15.086   2.410 -0.0721  0.4034  0.0665
19236W        W35370  16.223   2.097   1.925 -0.0602  0.0852  0.0247
19237W        W35371   7.270  13.340   4.160  0.0520 -0.0419 -0.3120
19238W        W35372  16.569   5.575   5.205 -0.0746  0.1581  0.0976
19239W        W35373  15.552  15.048  16.780  0.0993  0.0328 -0.1022
19240W        W35374   9.926  14.176   1.609 -0.2062  0.0732 -0.0885
19241W        W35375  16.458   2.879   1.388  0.0003  0.3654 -0.1075
19242W        W35376  17.595   2.719  12.427  0.0830  0.1149  0.1305
19243W        W35377   4.192  12.704  16.278  0.1285 -0.0041  0.0123
19244W        W35378   3.636  17.641   5.213 -0.0559  0.1571  0.0537
19245W        W35379  15.955   8.800   0.853 -0.0261  0.0650  0.2846
19246W        W35380  16.542  10.821   1.091  0.2591  0.1169  0.2670
19247W        W35381   3.610   0.407  14.914 -0.1207  0.1850  0.0004
19248W        W35382  10.083   6.073  12.239  0.0836 -0.1014 -0.0521
19249W        W35383   4.117  16.208   5.921  0.0702  0.0026  0.1542
19250W        W35384   9.134  10.431  13.096  0.0709  0.0447 -0.0039
19251W        W35385   1.313   3.939   6.497  0.0876  0.0494 -0.0528
19252W        W35386  11.305   3.531  14.442  0.1928  0.0578 -0.2745
19253W        W35387  13.806   8.756   0.981  0.2668 -0.1370  0.0721
19254W        W35388   6.926   2.956  13.167  0.0545  0.2552  0.1392
19255W        W35389  17.272   5.976   4.485  0.0214 -0.1015 -0.0566
19256W        W35390  15.742   0.648  14.065  0.0753 -0.2019  0.0303
19257W        W35391  16.275  11.365  15.101 -0.2353  0.0183 -0.2274
19258W        W35392   6.812   7.821  12.922 -0.1518  0.1630 -0.2334
19259W        W35393   3.702   6.972   3.077  0.1345  0.0632 -0.1117
19260W        W35394   8.123  13.967   0.587  0.0437 -0.4286 -0.1125
19261W        W35395   7.565  14.435   4.746  0.2959 -0.1737 -0.1110
19262W        W35396   2.693  10.878   5.701 -0.2905  0.1349  0.3730
19263W        W35397   3.394  10.474   3.377  0.1013  0.3447  0.0114
19264W        W35398  14.465  13.936  16.494  0.1582  0.0337  0.4144
19265W        W35399  14.157   2.783   6.178  0.0171 -0.1655  0.0111
19266W        W35400  16.166  15.465   1.098 -0.0469  0.1100  0.0881
19267W        W35401  17.624  11.247   4.024  0.0604 -0.0525 -0.2524
19268W        W35402   4.963   8.746   2.229  0.3109  0.1611 -0.0954
19269W        W35403   5.896  12.196   4.655 -0.1611  0.0328  0.0085
19270W        W35404  14.617   5.481   1.926 -0.1349  0.2645  0.0658
19271W        W35405  15.869  13.109   5.570  0.0732  0.0880  0.2197
19272W        W35406   4.791  15.892   6.464  0.0005  0.0148 -0.0542
19273W        W35407  13.601   0.066  17.077  0.0888 -0.0124  0.2891
19274W        W35408   9.809   9.234   2.149  0.1350 -0.2594 -0.1906
19275W        W35409   1.039  11.963  12.643 -0.1270 -0.1517 -0.1856
19276W        W35410   7.334   3.104  16.391  0.3430  0.1778  0.1325
19277W        W35411  17.572  14.522   2.870 -0.0104  0.0956  0.0031
19278W        W35412   8.140  16.658   0.392  0.0834 -0.0808 -0.0364
19279W        W35413   7.036   7.299   3.220  0.3190  0.1126 -0.2558
19280W        W35414  15.912   7.763  12.090 -0.0240  0.0413 -0.0231
19281W        W35415  13.190   5.665   4.541 -0.0671  0.0054 -0.2468
19282W        W35416   6.501  15.050   5.365  0.4824  0.1600 -0.0296
19283W        W35417  13.449   6.963   4.056 -0.0735 -0.0481  0.0301
19284W        W35418  13.573  16.166  14.618 -0.1730 -0.0077 -0.0247
19285W        W35419  17.216  12.275   3.708  0.3515 -0.0060  0.0447
19286W        W35420   5.007   7.875   5.579 -0.1172 -0.0914  0.2849
19287W        W35421  13.909  11.604  11.917 -0.0182  0.2546  0.0696
19288W        W35422  16.572  13.123   0.906 -0.1316 -0.1182 -0.0271
19289W        W35423  14.880   3.366   3.585 -0.1456 -0.3611 -0.0509
19290W        W35424   0.247   2.648   4.123  0.0021  0.0069 -0.5423
19291W        W35425  12.007  16.097   5.011  0.1135 -0.1251 -0.3690
19292W        W35426  10.306   4.369  16.195 -0.0532  0.0139  0.0046
19293W        W35427   9.735   9.415  16.012 -0.0489 -0.1332  0.1918
19294W        W35428  13.578  12.709  12.718  0.0068 -0.0227  0.0914
19295W        W35429   7.570  10.944   1.073 -0.1012 -0.0020 -0.3355
19296W        W35430  11.964   0.999   2.293  0.2818  0.1400  0.2198
19297W        W35431   9.329  16.739  13.806 -0.0949 -0.0879  0.1399
19298W        W35432   6.349   2.516  15.854 -0.0023  0.0399  0.0127
19299W        W35433   7.372   0.069   4.741 -0.1543  0.1115 -0.0771
19300W        W35434  13.593  14.568   5.207  0.1517  0.0269 -0.2936
19301W        W35435   2.977   9.942  12.584  0.1161  0.2107 -0.0209
19302W        W35436  14.847   8.363   0.244  0.2214 -0.1836 -0.2025
19303W        W35437   0.965  12.121   5.450  0.1478 -0.0573  0.1773
19304W        W35438   5.166  10.613   3.580  0.3265  0.1016  0.1227
19305W        W35439  11.988  13.953  12.482  0.0572 -0.3108  0.1253
19306W        W35440  15.652  17.271   4.543  0.0897 -0.0863  0.0568
19307W        W35441  11.864   4.696  15.021  0.2588  0.0792 -0.2397
19308W        W35442  10.107   1.662  15.825  0.2003  0.3107  0.2661
19309W        W35443   0.195  15.904   4.838 -0.1816 -0.0028 -0.1239
19310W        W35444  14.251   9.759   2.618 -0.0889  0.1333 -0.1961
19311W        W35445  14.280  16.887  17.041 -0.0569  0.4228  0.1680
19312W        W35446   4.359  12.430   4.506  0.0400  0.2101 -0.0657
19313W        W35447   1.763  14.796   3.160  0.2878 -0.0432  0.5158
19314W        W35448   2.965   0.365   5.776 -0.1421 -0.1607  0.1183
19315W        W35449   3.807  10.882   2.278 -0.1472  0.1177  0.1564
19316W        W35450  11.132   4.019  16.448  0.3995  0.0956  0.0751
19317W        W35451   2.726   1.033  15.167  0.0766 -0.0848 -0.2110
19318W        W35452   3.440   8.382   2.784 -0.0766  0.1434  0.3125
19319W        W35453   4.572   7.832   5.176 -0.2249  0.1525  0.2786
19320W        W35454  15.218  12.787   1.831  0.1797 -0.2018 -0.3721
19321W        W35455  14.307  14.455  16.498  0.2214  0.0725  0.1777
19322W        W35456   8.019   1.612   1.062 -0.4627  0.0304  0.0637
19323W        W35457  10.264   2.621  12.043  0.0400 -0.0388  0.0387
19324W        W35458   4.564   8.351   0.700 -0.0352  0.1318 -0.2557
19325W        W35459  15.384  13.727   1.384  0.1879  0.2982  0.2118
19326W        W35460  14.714  10.976   0.453 -0.0122  0.0767 -0.0653
19327W        W35461  17.360  10.987  16.573  0.0554  0.0591 -0.1449
19328W        W35462   2.913   7.536  16.935 -0.0726 -0.2799  0.2097
19329W        W35463   9.052   8.954   3.874  0.2242 -0.0281  0.0418
19330W        W35464   5.565   1.660  16.602 -0.1711 -0.2961 -0.0130
19331W        W35465   9.987   5.407   2.406  0.1944 -0.0813  0.0934
19332W        W35466   9.164   5.093  14.752  0.0500  0.3335  0.2225
19333W        W35467  16.354  14.066  13.691  0.2231 -0.0100  0.1858
19334W        W35468   1.169  13.122  13.607  0.1543  0.0725 -0.0441
19335W        W35469   4.256   5.213   3.321 -0.2062  0.0027  0.2812
19336W        W35470  13.107  16.564   5.654  0.0879 -0.2727 -0.0478
19337W        W35471  11.282   5.955   2.654 -0.0628 -0.3746  0.0377
19338W        W35472   9.745  11.566  15.696 -0.1770 -0.3397 -0.3243
19339W        W35473   8.815   8.097   4.912 -0.0792 -0.0374 -0.0075
19340W        W35474   9.266   0.015   3.622 -0.0678 -0.2055 -0.0427
19341W        W35475  11.576   5.206   5.267 -0.2583  0.1396  0.1837
19342W        W35476   2.451  13.236   2.295  0.0563  0.1238  0.2384
19343W        W35477  14.229   0.240   6.342  0.2276 -0.0982 -0.1245
19344W        W35478   5.967   2.105   2.769 -0.1735  0.3890 -0.0910
19345W        W35479   8.539  16.386   2.648 -0.0891 -0.1672  0.1526
19346W        W35480  12.932  15.905   3.482  0.1090 -0.2607  0.0092
19347W        W35481  10.919  14.895   3.591 -0.0322  0.0504  0.1051
19348W        W35482  12.580  15.208  12.751  0.2436 -0.0561 -0.0368
19349W        W35483   8.392   9.575  14.124 -0.2743  0.4213  0.1958
19350W        W35484  10.963  12.708  15.951 -0.0277  0.1739 -0.0177
19351W        W35485  12.124  11.744   0.969 -0.1110 -0.0618 -0.1381
19352W        W35486   1.945   3.121  14.771 -0.0064  0.3157  0.1812
19353W        W35487   4.084  13.758  10.954 -0.0463 -0.0434 -0.0452
19354W        W35488  11.411   5.466   2.596  0.0218  0.1525 -0.0675
19355W        W35489   6.106   6.141  15.787  0.0813 -0.0270  0.3550
19356W        W35490   6.965   4.341  15.589  0.0419  0.1040  0.2124
19357W        W35491   5.888  17.520   1.172 -0.3121  0.0909 -0.0841
19358W        W35492   4.788   9.110  12.665 -0.1864 -0.0822 -0.0667
19359W        W35493  11.648   0.714  15.294 -0.2067 -0.1544  0.1173
19360W        W35494   3.533  10.631  15.229  0.2674  0.0794  0.2781
19361W        W35495  10.732  13.985  15.700 -0.1496  0.2097  0.0214
19362W        W35496  11.352   5.620  16.007 -0.1563 -0.1625 -0.0080
19363W        W35497  15.439  14.378  12.546  0.0619 -0.1533  0.1956
19364W        W35498  13.466   3.246   5.253 -0.0367 -0.0998 -0.2628
19365W        W35499   0.718  12.440   5.166  0.0241  0.1568  0.4006
19366W        W35500   5.489   4.557   1.007 -0.0649 -0.0131 -0.0727
19367W        W35501   2.886  16.844  12.837  0.3269  0.0269 -0.2243
19368W        W35502   6.954   1.223  14.861  0.1252 -0.1317 -0.2812
19369W        W35503   4.066   1.943  12.137 -0.2481  0.2736 -0.0005
19370W        W35504  10.674  13.859  14.121 -0.0184  0.1219 -0.0921
19371W        W35505   2.027   1.955   0.877 -0.1449 -0.0177 -0.0778
19372W        W35506  11.568   8.400  14.430 -0.0729  0.0564  0.0504
19373W        W35507   0.151   1.002  12.729  0.2052 -0.2276  0.1623
19374W        W35508   1.106   9.168   5.374 -0.3514  0.0408 -0.2079
19375W        W35509  10.269   1.223   0.301 -0.4057 -0.2052  0.1988
19376W        W35510  16.781   8.251  10.245 -0.0277 -0.3737  0.0368
19377W        W35511  16.073  12.642   5.606  0.1219 -0.1096 -0.1968
19378W        W35512  16.522  16.847   2.142  0.1128  0.4389  0.1184
19379W        W35513   2.744  12.828   5.306 -0.0046  0.0605  0.0168
19380W        W35514  10.946  11.674   1.508 -0.3254 -0.0466 -0.0869
19381W        W35515   4.947  10.783  12.556 -0.0183  0.1535  0.0830
19382W        W35516   3.131   9.088  13.036 -0.0495 -0.1950 -0.1807
19383W        W35517   0.116   4.020  13.246 -0.2247 -0.1142  0.0097
19384W        W35518  14.796   1.214   4.807  0.0625 -0.0236 -0.3980
19385W        W35519   7.565  12.763  12.440 -0.1478  0.0126  0.0540
19386W        W35520  13.939   8.739  16.342  0.0468  0.3292 -0.1878
19387W        W35521  16.805   1.134  12.307  0.0777 -0.2289  0.4396
19388W        W35522  14.913   3.620   3.066 -0.0443 -0.2003  0.0225
19389W        W35523  17.521  17.025   3.788 -0.1148  0.1031  0.1381
19390W        W35524  10.014  15.249  15.848 -0.1264 -0.4015 -0.2157
19391W        W35525   8.822   7.879   1.978 -0.0933 -0.3097  0.2218
19392W        W35526  13.532   9.439  11.352  0.1748  0.2431 -0.2000
19393W        W35527   1.958  12.453   3.356 -0.0370  0.1176  0.0748
19394W        W35528   1.367  16.137  15.516 -0.0107  0.3670 -0.1914
19395W        W35529  11.625   6.951   4.830  0.1564  0.1106 -0.0171
19396W        W35530  14.933   2.595  15.895  0.0856  0.0875  0.1688
19397W        W35531   5.562   6.269   1.525 -0.1209  0.0487  0.0182
19398W        W35532   1.079  15.988   4.467  0.3718  0.1605  0.2200
19399W        W35533   3.079  13.492  16.294  0.2626  0.0307 -0.0823
19400W        W35534   7.540   1.265  13.643  0.2394 -0.0385 -0.0799
19401W        W35535   5.201  16.498   4.146 -0.0796  0.0946 -0.2475
19402W        W35536  15.581  11.220   4.904 -0.0919  0.3459  0.0186
19403W        W35537  16.082  12.830  15.112 -0.2216 -0.1922 -0.0305
19404W        W35538   2.393   2.736  12.979  0.0854 -0.0162 -0.2447
19405W        W35539   8.512   0.059   0.073  0.1749 -0.0962  0.2701
19406W        W35540  16.447  14.616   0.902  0.1594 -0.1790 -0.3040
19407W        W35541  11.714  13.792  13.216 -0.0489 -0.0826 -0.0753
19408W        W35542  11.745  17.643  14.952 -0.1990 -0.3446 -0.0700
19409W        W35543  11.032   4.155  11.267  0.2415 -0.2864  0.0020
19410W        W35544   4.930   6.884  15.979 -0.0268 -0.1588  0.3233
19411W        W35545   1.174   5.986  16.439 -0.0189 -0.0249  0.0615
19412W        W35546  12.495   8.708  11.723  0.0220 -0.4051  0.2069
19413W        W35547   2.516  15.013   2.927 -0.0151 -0.0906 -0.1850
19414W        W35548  17.603  13.627   2.071  0.1425  0.0887 -0.2122
19415W        W35549   3.762   2.601  15.366 -0.0513 -0.1878  0.0501
19416W        W35550  10.839   1.654   5.405  0.0702 -0.0817  0.2653
19417W        W35551   1.727  14.013  14.247 -0.0472  0.1514 -0.3484
19418W        W35552   1.526   7.118   3.617 -0.3349  0.1215 -0.1106
19419W        W35553   9.858  17.425   4.199  0.0083  0.0662 -0.1601
19420W        W35554   8.850  12.266   0.589  0.0539  0.1494  0.1776
19421W        W35555  10.788   1.824   3.302 -0.2756  0.0060  0.0173
19422W        W35556   2.080  10.416   4.683  0.1089 -0.2557  0.1906
19423W        W35557   0.168  17.345   5.662 -0.0268  0.1507 -0.4993
19424W        W35558  13.053   0.645   3.945 -0.2590  0.0491 -0.1863
19425W        W35559  15.583   8.611   5.190 -0.1828 -0.0423 -0.1619
19426W        W35560   0.945  12.042   3.954 -0.0241 -0.1573  0.1998
19427W        W35561   9.265   6.639   1.779 -0.2360 -0.0469  0.1506
19428W        W35562  17.520   6.921  11.524 -0.1560  0.1423 -0.1549
19429W        W35563  13.066  15.110   4.088  0.2646 -0.0333 -0.0723
19430W        W35564   6.395  10.291  14.646 -0.0129 -0.1776 -0.1552
19431W        W35565   6.202   5.328  14.382  0.0403  0.0956 -0.3005
19432W        W35566   0.382  10.053   3.380  0.0962 -0.3990  0.0869
19433W        W35567  10.925   5.207  11.490  0.1354 -0.2077  0.2662
19434W        W35568   9.112  14.787   3.558 -0.1975 -0.3512 -0.2982
19435W        W35569   9.422   8.766  13.488 -0.1587  0.1117 -0.0178
19436W        W35570  15.899   6.091   2.798 -0.1963  0.1379 -0.0218
19437W        W35571  14.593  13.252   0.096  0.3386  0.1639  0.5342
19438W        W35572   6.703   8.227  16.928  0.1766 -0.2399 -0.2880
19439W        W35573   5.144   4.215  12.601  0.0927  0.3618  0.1850
19440W        W35574  10.125   6.811   2.097  0.2543  0.1732 -0.3286
19441W        W35575  13.864   0.568  15.841 -0.2147 -0.1143 -0.0799
19442W        W35576  14.093   5.698   3.942  0.1555  0.0422 -0.1020
19443W        W35577  13.015   5.842  12.456 -0.0201 -0.0232 -0.2402
19444W        W35578  10.948   5.674   4.121  0.0078  0.1065 -0.1272
19445W        W35579   8.300   0.114   3.587 -0.0323  0.1695 -0.0678
19446W        W35580  11.178   0.406  14.468  0.0898 -0.0466 -0.2082
19447W        W35581   4.110   1.808  14.725  0.4868  0.1186  0.1882
19448W        W35582   8.276  15.274   3.683 -0.2799 -0.0295  0.2623
19449W        W35583  10.189  16.741   1.338 -0.0100 -0.0873 -0.2477
19450W        W35584   9.936  14.179  14.147  0.1396 -0.1118  0.0166
19451W        W35585   3.437   2.451   2.619  0.0277 -0.1572 -0.0273
19452W        W35586   4.461  10.545  15.263 -0.1038  0.1841 -0.1307
19453W        W35587   6.875   7.912  16.288  0.2081  0.0673  0.1111
19454W        W35588   0.424   3.974   6.106 -0.2785  0.0661  0.1202
19455W        W35589   7.717   4.202  16.329 -0.2487 -0.0359  0.2829
19456W        W35590   4.538  12.117  13.594  0.1282  0.2761 -0.0855
19457W        W35591  12.984   1.041  11.974 -0.1469  0.1389 -0.1379
19458W        W35592  15.235  11.726  15.295  0.1584 -0.1537 -0.1903
19459W        W35593   5.862   3.531  12.634 -0.1847 -0.0357  0.4234
19460W        W35594   9.127  15.424   1.074 -0.3550 -0.3037  0.0283
19461W        W35595   3.260   9.443   1.499  0.3583 -0.0077 -0.0305
19462W        W35596  14.147  12.962   5.392 -0.2516 -0.0995  0.0285
19463W        W35597  14.265   7.025  13.673 -0.1630  0.0628 -0.0459
19464W        W35598  11.542   5.155  16.247 -0.0915 -0.2701 -0.0833
19465W        W35599   6.980   3.818  13.631  0.0976  0.1464  0.0896
19466W        W35600   6.443   5.032   4.029 -0.1708 -0.2988 -0.0408
19467W        W35601   7.100   2.290   0.567  0.0587  0.1622  0.0474
19468W        W35602  14.647   5.280  10.991 -0.0058 -0.5519  0.0763
19469W        W35603   9.611  13.927   0.401 -0.1150  0.0733  0.0826
19470W        W35604   7.129  16.223   0.921 -0.0528  0.2159 -0.1778
19471W        W35605   5.241   8.093  14.877  0.0262  0.0861 -0.2409
19472W        W35606   1.617   5.209   4.747 -0.1066  0.2510  0.0253
19473W        W35607   1.499  13.705   3.259  0.1318 -0.1883  0.0974
19474W        W35608  12.448  15.552   2.229 -0.1395 -0.1578 -0.2256
19475W        W35609   3.144  11.875   3.768 -0.0157  0.4901 -0.3849
19476W        W35610   4.973  14.099  11.811  0.1161  0.0159 -0.1031
19477W        W35611   6.048   3.978   3.841 -0.0772 -0.1205  0.0600
19478W        W35612  11.036   1.419  16.992  0.1341 -0.1764  0.0375
19479W        W35613  12.024  14.982   5.724 -0.1857  0.1038 -0.2041
19480W        W35614   0.527   0.412  15.506  0.2605  0.0990 -0.1605
19481W        W35615   9.999  15.406   4.866  0.1259  0.0611 -0.0168
19482W        W35616  13.869  13.207  14.575  0.0369 -0.2152  0.1352
19483W        W35617   5.568   8.886  14.422  0.0519  0.2228  0.1442
19484W        W35618  11.754  16.963   2.778 -0.5444 -0.0468  0.0158
19485W        W35619   0.848   0.015   4.106 -0.2922 -0.1269  0.1135
19486W        W35620   2.933   8.480  17.166  0.1543  0.1339 -0.2035
19487W        W35621  15.972  11.565  12.852 -0.1470  0.0947 -0.0050
19488W        W35622  16.711   2.218  14.538  0.1866 -0.1327 -0.0485
19489W        W35623   8.626  11.592   3.285 -0.1287 -0.0113 -0.1003
19490W        W35624  14.606   3.408   6.616 -0.0382 -0.1143 -0.2333
19491W        W35625  10.596   3.957   3.522 -0.1343 -0.1590 -0.1790
19492W        W35626   0.382   5.846  14.162 -0.1743 -0.2427  0.0800
19493W        W35627   5.427   0.384   1.354 -0.1778  0.0440 -0.0905
19494W        W35628  10.885  16.599  14.004 -0.1191 -0.4924 -0.0087
19495W        W35629  17.189   2.922  13.570 -0.0576  0.0291  0.0648
19496W        W35630   3.647   8.379   5.548 -0.1086  0.2088 -0.2506
19497W        W35631   5.869  12.821   2.258 -0.0561  0.2785  0.1302
19498W        W35632  11.521  15.159   3.756  0.2494  0.1564  0.1376
19499W        W35633  11.220   6.858  12.132 -0.1822  0.2241  0.0639
19500W        W35634   1.848   0.289  16.269 -0.1862 -0.0812 -0.0364
19501W        W35635   9.214  13.960   0.704  0.3591 -0.0994  0.0471
19502W        W35636  16.613   1.249  13.438 -0.1342  0.0897 -0.1133
19503W        W35637  14.821   7.812   4.092 -0.1080  0.1744  0.0868
19504W        W35638  11.717   9.706  13.913 -0.0573 -0.2534 -0.1150
19505W        W35639   2.410  14.188   1.145 -0.1574 -0.0276  0.1382
19506W        W35640  17.124  16.250  16.821 -0.0578 -0.0198 -0.1534
19507W        W35641  17.436  15.877  16.602 -0.0429 -0.0972 -0.2227
19508W        W35642   8.383  17.463   1.419  0.0065 -0.1725  0.1263
19509W        W35643   5.506  13.059   2.594 -0.0113 -0.0075 -0.0121
19510W        W35644  11.997   6.527  12.534  0.1918  0.2261  0.1196
19511W        W35645   3.535   2.896   1.237  0.0347 -0.0243  0.2473
19512W        W35646   6.271   0.117  16.973 -0.1411 -0.1586 -0.2280
19513W        W35647   0.936   7.030  14.083  0.0317  0.1104  0.1784
19514W        W35648  11.861   4.397  16.852  0.1213  0.0930  0.0067
19515W        W35649   6.910   9.403   0.568  0.2413  0.0736  0.2943
19516W        W35650  14.675   4.082  16.661 -0.0959  0.0493 -0.1048
19517W        W35651   2.381  14.631  12.260 -0.4045 -0.0909 -0.2027
19518W        W35652  17.191  13.900  12.143  0.0314  0.1042 -0.1278
19519W        W35653  10.388   4.746   0.681  0.0289 -0.0119 -0.2516
19520W        W35654  13.469   3.679   2.704  0.0954  0.0039  0.3376
19521W        W35655   8.471  11.477  16.178  0.2392 -0.1176 -0.2983
19522W        W35656  15.785   1.107   0.286  0.1622 -0.0147  0.0513
19523W        W35657  16.954  16.889  14.999  0.3303  0.0161 -0.2518
19524W        W35658  11.033   8.925   2.302 -0.0351  0.0505 -0.0091
19525W        W35659  10.727  11.831   5.269  0.1933  0.0693  0.0035
19526W        W35660  14.124   5.945   3.123 -0.2386 -0.3962 -0.1775
19527W        W35661   4.426   2.435  14.010  0.0331  0.3544  0.0122
19528W        W35662   2.871  11.909   2.196 -0.0736  0.2591 -0.2354
19529W        W35663  15.286   5.457   5.674 -0.0310 -0.0140 -0.0425
19530W        W35664   8.696  14.011   3.324  0.0954 -0.1852  0.3402
19531W        W35665   3.607   6.004   4.121  0.2358 -0.1886  0.1739
19532W        W35666  12.319   2.233  12.435  0.0737  0.0915  0.1307
19533W        W35667   3.027   6.345  11.469 -0.0092  0.0583 -0.1077
19534W        W35668  16.606   7.252  11.711 -0.0762  0.0128 -0.3108
19535W        W35669   1.931   4.054  14.077 -0.1238  0.0055  0.0596
19536W        W35670   3.300  13.193  15.964 -0.2864  0.2094  0.1844
19537W        W35671  14.194  12.714  16.196  0.2449  0.1397  0.0789
19538W        W35672  16.506  17.621   4.390  0.1655 -0.0227 -0.1907
19539W        W35673  12.122   6.770  14.817  0.0932 -0.0707  0.0940
19540W        W35674  14.528   8.157   4.916 -0.0817 -0.1480 -0.0486
19541W        W35675   9.244  16.434   5.401 -0.3235  0.0201  0.2731
19542W        W35676   6.855  11.690  14.525 -0.1334  0.1519  0.2398
19543W        W35677   7.153   3.373   3.241 -0.0186  0.1021 -0.3458
19544W        W35678  15.331   5.817   3.178 -0.0875  0.1916 -0.0893
19545W        W35679   2.292  12.739   6.296  0.0894 -0.3098  0.2131
19546W        W35680  17.250  15.715   1.206 -0.1003 -0.4110  0.2211
19547W        W35681   6.420  11.312   2.585  0.1005 -0.0945  0.1192
19548W        W35682  14.759   3.820   1.057  0.2417 -0.0214  0.0271
19549W        W35683   0.091   1.710  12.289 -0.1704 -0.1210 -0.0895
19550W        W35684   3.366   0.947  16.525  0.3164 -0.2206 -0.1136
19551W        W35685  10.926  16.620  16.570 -0.0415 -0.0306 -0.0258
19552W        W35686   6.011   9.336  16.705  0.2914  0.1348 -0.1289
19553W        W35687   2.208  14.345   4.544  0.1705 -0.1003  0.0375
19554W        W35688   5.474  16.240   1.993  0.2040 -0.2192  0.1339
19555W        W35689   9.274  12.105   0.386 -0.1236  0.2543 -0.0109
19556W        W35690   8.805   1.659   0.505 -0.2832 -0.2602  0.0585
19557W        W35691   4.436   0.166  14.982 -0.3841 -0.2264  0.3449
19558W        W35692  10.329  10.620  11.573 -0.2204  0.1705  0.0516
19559W        W35693   8.423   1.905  14.932 -0.2168  0.1341 -0.1205
19560W        W35694   2.203   1.621   2.767 -0.0900  0.0479 -0.2128
19561W        W35695   4.756   3.158  14.601 -0.0735  0.3192 -0.0378
19562W        W35696   7.829  14.150  14.308  0.1360 -0.0662 -0.0015
19563W        W35697  13.585   4.568   0.137  0.0371  0.2310 -0.0394
19564W        W35698   6.873  14.048   2.027 -0.1226  0.2815 -0.0200
19565W        W35699   7.011  14.305   5.666  0.1598 -0.1055  0.1458
19566W        W35700   0.768  15.419   0.314 -0.1025 -0.1507  0.0183
19567W        W35701   4.249   4.809  14.322  0.0208  0.1645 -0.0107
19568W        W35702   2.297   4.834  15.333 -0.0943 -0.2526 -0.4854
19569W        W35703  11.365   0.554  12.306 -0.0380 -0.1682 -0.1274
19570W        W35704  14.508   0.157   0.914 -0.0228  0.0392 -0.1579
19571W        W35705   3.752   8.811   5.168 -0.5539 -0.0446  0.0883
19572W        W35706  11.333   6.979   3.938 -0.3233 -0.1997  0.0225
19573W        W35707   1.095  13.254  15.237  0.0405 -0.0314  0.0715
19574W        W35708   6.700   8.803  11.927  0.0281  0.5092  0.2614
19575W        W35709  12.764   8.799   4.718  0.0963 -0.1650  0.1367
19576W        W35710  10.677  13.956  15.173 -0.3180  0.1957  0.0823
19577W        W35711   9.032  10.244  14.148  0.0470 -0.1571 -0.0968
19578W        W35712  11.300   8.432   0.239  0.0251 -0.0849 -0.0089
19579W        W35713  12.778  15.761  14.408  0.2326 -0.0361  0.2693
19580W        W35714   7.239  16.688   5.816  0.1343  0.0643 -0.0776
19581W        W35715  13.874  11.962   4.600 -0.0429  0.1957 -0.2023
19582W        W35716   6.174   0.430  15.006  0.4419  0.1381 -0.0241
19583W        W35717   9.160   1.074   3.903  0.1921  0.0278  0.0111
19584W        W35718  10.140   1.036   3.615  0.1046  0.1215 -0.0273
19585W        W35719   7.265   6.926   0.855 -0.3778  0.2684  0.4017
19586W        W35720  12.495   2.804   3.052  0.0932 -0.0418  0.2268
19587W        W35721   2.482   4.406  13.926 -0.2114 -0.0197 -0.1132
19588W        W35722  15.913  12.499   3.032  0.1047 -0.2530 -0.1564
19589W        W35723  14.237  14.780  13.563  0.1386 -0.1864  0.0919
19590W        W35724   8.081  16.135   2.864  0.0111 -0.1528  0.0361
19591W        W35725   2.186  16.323   2.137 -0.0981 -0.0107 -0.1065
19592W        W35726  14.735   7.298   5.024  0.2950  0.0763  0.1387
19593W        W35727   0.079   2.611   1.651  0.1652 -0.0286 -0.0701
19594W        W35728   2.715   4.538   3.172  0.0133  0.3427  0.0669
19595W        W35729  10.290   1.773  14.928 -0.0734 -0.0583 -0.0457
19596W        W35730   9.582   7.190  14.141  0.0978 -0.1459  0.0366
19597W        W35731   7.005   2.287   4.161 -0.3616 -0.2203  0.3036
19598W        W35732  15.526   5.573  17.090  0.1096  0.3233 -0.2026
19599W        W35733   2.227   8.692  14.071  0.3153 -0.0458  0.0898
19600W        W35734   9.843  15.948  16.226  0.2044 -0.2081 -0.0483
19601W        W35735   8.518  16.203  15.349  0.0415  0.0004  0.0007
19602W        W35736   8.504   9.858   1.956  0.1097  0.0759 -0.3078
19603W        W35737  15.874   6.417  15.151  0.0956  0.2608 -0.1325
19604W        W35738  14.009   7.295   0.528 -0.2260  0.0270 -0.2708
19605W        W35739  15.115   9.112  14.585 -0.3913 -0.1053  0.1325
19606W        W35740   0.168   9.080  14.660  0.2020  0.0473  0.0986
19607W        W35741   8.366   9.474   1.105 -0.2373 -0.3344 -0.0010
19608W        W35742   2.261   2.704   1.551 -0.1743  0.1526  0.1704
19609W        W35743  16.993   2.204   4.745  0.1150 -0.3312 -0.1455
19610W        W35744   7.534  10.066  17.126  0.1157  0.0335 -0.1675
19611W        W35745   7.623   9.516   2.305 -0.1165 -0.2671  0.0095
19612W        W35746   6.843   4.295  14.688 -0.2554  0.2379 -0.0443
19613W        W35747  11.060   3.697  12.557  0.0231  0.2620 -0.2793
19614W        W35748   5.014  16.090  13.790 -0.1264  0.3454 -0.0257
19615W        W35749  13.953  13.069   0.478 -0.1033 -0.0397 -0.1975
19616W        W35750   0.968  12.781   2.418  0.0174  0.1470 -0.0974
19617W        W35751   0.276   8.358   5.400 -0.1454  0.4692  0.0002
19618W        W35752   5.257   6.823  15.182  0.1409  0.1320  0.2095
19619W        W35753   7.000  15.349   3.000  0.2314  0.0911 -0.2047
19620W        W35754  17.447  10.258  13.384  0.2085  0.0550  0.2354
19621W        W35755   2.536  10.552  17.130 -0.0619 -0.2854  0.3298
19622W        W35756   0.985   6.387   2.592 -0.2663  0.0931 -0.2426
19623W        W35757   4.876  14.961   2.419 -0.4356  0.0462  0.0113
19624W        W35758   8.584  16.398  16.524  0.3274 -0.2046 -0.0437
19625W        W35759  14.952   2.767  12.073 -0.0982  0.0226 -0.2835
19626W        W35760  12.353  10.675  15.672  0.1747 -0.1328  0.2240
19627W        W35761   3.673   9.111   6.112  0.0542  0.0687 -0.0374
19628W        W35762   8.275  15.813  12.457 -0.0571  0.0835  0.0395
19629W        W35763   9.001   1.381   1.927 -0.0310 -0.3794  0.0684
19630W        W35764  10.598   3.705  12.715 -0.0191 -0.3999 -0.1327
19631W        W35765   7.159   4.614   5.486  0.1330  0.0211 -0.0386
19632W        W35766  13.480   3.130   1.070  0.2272 -0.0889  0.2974
19633W        W35767   9.150  12.108   1.016  0.0676  0.2636 -0.0325
19634W        W35768  13.871   5.454   2.201 -0.2833 -0.0756  0.3180
19635W        W35769  11.820  14.848  12.641  0.2366  0.2538  0.0417
19636W        W35770   8.194   6.601  12.744 -0.0546  0.0496 -0.0461
19637W        W35771   2.185   6.285  16.679 -0.0066  0.0931 -0.0231
19638W        W35772   5.045   2.158  17.081 -0.0008  0.0519 -0.0461
19639W        W35773  12.488  13.954   2.240 -0.3189  0.1248  0.1089
19640W        W35774   6.653   9.013   4.850  0.3740  0.3340 -0.1680
19641W        W35775   4.575   7.100  15.684 -0.1255 -0.1523 -0.0182
19642W        W35776   6.284   6.651  12.110 -0.0641 -0.2251  0.0689
19643W        W35777   0.305   8.115   2.878 -0.0047  0.3134  0.0949
19644W        W35778   4.813   3.896   1.815 -0.1938  0.1897 -0.2077
19645W        W35779   2.073  16.371  12.100  0.2427 -0.3507  0.2922
19646W        W35780   3.070  16.309  12.586 -0.1863 -0.0519 -0.5617
19647W        W35781   3.071  11.215   1.278  0.0430  0.0221  0.0188
19648W        W35782  10.636   6.723   1.837  0.0802  0.0170  0.0690
19649W        W35783   5.963  13.080   1.124  0.2408  0.0818 -0.2355
19650W        W35784   4.622  12.570  14.654  0.0600 -0.0862 -0.2630
19651W        W35785   2.845  13.509   1.824 -0.0173  0.0754 -0.1594
19652W        W35786   3.139   0.272  16.801 -0.4323  0.1062 -0.0165
19653W        W35787   8.538  10.412  14.196  0.1526  0.0570  0.1273
19654W        W35788  12.336  13.005  13.740  0.1577  0.1635 -0.0817
19655W        W35789   1.888   2.594  16.278  0.0742 -0.1063  0.1112
19656W        W35790  17.065   8.302  15.390 -0.2171 -0.2753  0.0749
19657W        W35791   5.400   9.787   2.108 -0.0656 -0.2715  0.3511
19658W        W35792   8.681   9.110  16.006 -0.1970 -0.1872 -0.2214
19659W        W35793  11.457  11.746   1.407  0.0398 -0.2865  0.0630
19660W        W35794   4.363   0.426   6.222 -0.0646 -0.1469 -0.1634
19661W        W35795   6.866   2.549  15.733  0.1256  0.2144  0.1737
19662W        W35796   7.243  15.812   2.838  0.0104  0.1608  0.0029
19663W        W35797   7.990   9.080   0.979 -0.1646 -0.0643  0.0605
19664W        W35798   5.097   3.569  11.920 -0.0680  0.2739 -0.1789
19665W        W35799   6.949   4.103  12.405  0.0313  0.0197 -0.1818
19666W        W35800  13.432   4.544  12.706 -0.1796 -0.2094 -0.0123
19667W        W35801   8.692  12.075  14.059  0.1131  0.4884  0.1902
19668W        W35802   4.673  11.503   5.343 -0.0869 -0.1566  0.0255
19669W        W35803  11.333   7.057   1.878  0.0662 -0.1324  0.0238
19670W        W35804  12.162   4.289  13.804  0.0004 -0.3193  0.2493
19671W        W35805  15.199   9.846   5.503  0.1599 -0.0217 -0.1209
19672W        W35806  13.304  15.150  13.206  0.0659  0.2474  0.1228
19673W        W35807   7.020  14.220   2.810 -0.0666  0.2470 -0.0108
19674W        W35808  12.499  14.716   1.232 -0.0962 -0.1548 -0.0012
19675W        W35809   0.853  11.343   4.425  0.1154 -0.0045  0.0939
19676W        W35810  16.876  11.519  14.454  0.3060 -0.1642 -0.0996
19677W        W35811  15.685  15.880   1.908  0.2699 -0.3260 -0.1346
19678W        W35812   9.927  15.709   5.250  0.0340 -0.3126  0.0398
19679W        W35813   8.411   1.175  13.398  0.3597  0.1244 -0.0346
19680W        W35814   9.770  14.854  12.207 -0.0100 -0.1620  0.1484
19681W        W35815   8.191   9.371   0.093  0.1107  0.0812  0.0575
19682W        W35816  13.943  11.069  16.384 -0.2696 -0.0598 -0.1693
19683W        W35817   7.138   8.498  14.123  0.2369 -0.0587  0.0256
19684W        W35818   8.107   1.045  15.366 -0.2506 -0.0475 -0.2055
19685W        W35819   9.024   7.689   2.752 -0.1197  0.2929 -0.1021
19686W        W35820   7.568  17.577   3.360  0.0255 -0.1546  0.1890
19687W        W35821   8.761   3.654   3.766  0.0089 -0.4868  0.1853
19688W        W35822  12.426  17.281  14.287 -0.0626 -0.3382 -0.0289
19689W        W35823   0.078   0.489   4.269 -0.2223 -0.1065 -0.0557
19690W        W35824   1.575  10.917   2.616 -0.1010 -0.0519 -0.1773
19691W        W35825   1.768   6.355   2.052 -0.1496  0.5338 -0.3642
19692W        W35826   6.844   3.447  15.576  0.0856  0.0693  0.2347
19693W        W35827  14.426   3.718  16.390  0.0333  0.0638  0.0138
19694W        W35828  12.158   4.472   1.090 -0.0340  0.1714  0.1174
19695W        W35829  16.923  14.775  12.595  0.1865 -0.0045  0.1287
19696W        W35830   3.305   0.254  13.674 -0.1892 -0.1007  0.0854
19697W        W35831  12.177  10.154  12.815  0.2879  0.2747 -0.1146
19698W        W35832  14.746  13.295  14.540  0.0036  0.1520 -0.1789
19699W        W35833   8.472  14.831  15.902 -0.2590  0.1096 -0.1442
19700W        W35834   0.468  17.198   1.680  0.0137 -0.1767  0.1878
19701W        W35835   0.744  12.229  13.026  0.1043 -0.1254 -0.1044
19702W        W35836   3.997  14.485   5.537 -0.0956  0.2196 -0.0079
19703W        W35837  11.362   5.341  11.773 -0.2981  0.0813  0.0248
19704W        W35838  16.570   6.250   4.327  0.0908  0.0765 -0.2832
19705W        W35839   0.987  16.998   4.739  0.2774 -0.0773  0.2651
19706W        W35840   8.842  14.882  12.826 -0.2984  0.2652  0.1997
19707W        W35841   0.148   6.535   3.887  0.3223 -0.3019 -0.0779
19708W        W35842   6.840  14.942   0.821 -0.1122  0.2155 -0.1707
19709W        W35843   1.808   2.421  11.751  0.1664 -0.1011  0.1664
19710W        W35844  10.545   0.075   5.692  0.2307 -0.1056  0.0757
19711W        W35845  14.409   6.457   3.887 -0.0371  0.1384 -0.2171
19712W        W35846   1.448   7.254  12.207 -0.1632 -0.2202  0.0103
19713W        W35847  11.465   9.227  13.906  0.0341 -0.3092  0.0928
19714W        W35848   3.960   3.982  13.462 -0.0107 -0.0694 -0.0303
19715W        W35849  11.689  11.587   1.929 -0.2017  0.2066 -0.1072
19716W        W35850   6.411   9.414  11.239  0.0200 -0.2367 -0.1265
19717W        W35851   7.644  10.940   0.109  0.0516 -0.1032  0.1701
19718W        W35852   4.486   0.363  15.458  0.3880  0.0420 -0.0289
19719W        W35853  12.312  16.791   1.952 -0.0796 -0.4800  0.0944
19720W        W35854   2.197   1.482   5.072  0.0778  0.0071  0.1257
19721W        W35855   0.682  11.608   4.818  0.0732  0.1643  0.3436
19722W        W35856   7.834   1.260   3.091  0.1331  0.2758 -0.1665
19723W        W35857  15.244   7.609  14.942 -0.1002 -0.4819  0.1416
19724W        W35858   5.830   3.573   3.964  0.2150  0.3595  0.0756
19725W        W35859   5.321  11.924   3.136 -0.0085  0.0698 -0.1997
19726W        W35860   1.323   9.408  16.321  0.2495  0.1614 -0.1154
19727W        W35861  11.667   1.156  14.217  0.0692 -0.0758  0.0011
19728W        W35862  16.124   9.937  11.246 -0.1511  0.3920 -0.0960
19729W        W35863  15.176  11.054  13.726 -0.0228  0.3845 -0.3371
19730W        W35864   6.419   2.789  11.026  0.0709 -0.0021  0.0254
19731W        W35865  15.107   3.302  14.270 -0.0536  0.1138 -0.0814
19732W        W35866  12.172   6.658   4.276  0.1648  0.0153  0.0156
19733W        W35867  10.733   8.171  14.237  0.0078  0.0020 -0.2442
19734W        W35868   2.965  14.500   3.622  0.1152 -0.3043  0.1684
19735W        W35869  15.661  16.075   5.452 -0.0263  0.0002 -0.2368
19736W        W35870   9.251  16.004   1.985  0.2078 -0.1617 -0.0379
19737W        W35871   4.177   4.672   1.908 -0.0638 -0.2401  0.2944
19738W        W35872   5.381   3.284   3.945 -0.0108  0.2672 -0.0757
19739W        W35873  14.519   7.067  12.251  0.0524  0.0489 -0.3085
19740W        W35874  10.265   1.197  15.691  0.0098  0.1988 -0.2959
19741W        W35875   0.986  16.755  12.662  0.0687  0.0895 -0.2998
19742W        W35876   4.220   9.171  14.924 -0.4095 -0.3897  0.1861
19743W        W35877   3.876  16.525   0.424  0.1185 -0.0670  0.0093
19744W        W35878  11.005   5.050  16.222  0.2395  0.2635  0.0502
19745W        W35879  17.540  12.658  15.472  0.2107 -0.1585 -0.4920
19746W        W35880  10.706   9.761  14.088  0.2736  0.0960 -0.0361
19747W        W35881  14.742  11.006   5.272  0.0374 -0.0781  0.0417
19748W        W35882   2.022   2.557  14.604 -0.3132  0.0774 -0.2765
19749W        W35883  12.445   3.948  15.675 -0.0959  0.0803 -0.3291
19750W        W35884  11.571  14.051   4.587  0.1963 -0.1885 -0.0490
19751W        W35885   8.799   3.225  14.946 -0.5161  0.1774 -0.0997
19752W        W35886   1.215  14.170   4.824  0.1349  0.2010  0.2945
19753W        W35887  12.051   9.405  17.132 -0.2848  0.1167  0.4691
19754W        W35888   4.442   9.246   0.713 -0.2757  0.2193 -0.1620
19755W        W35889  16.926  12.676  15.572 -0.1440  0.0828 -0.1395
19756W        W35890   3.753  10.162   2.352  0.1233  0.3171  0.0814
19757W        W35891  13.061  17.187   2.383  0.1817 -0.1982  0.1516
19758W        W35892   5.290  17.172  14.399  0.0963 -0.1937  0.0277
19759W        W35893   2.791   2.512   6.133  0.1766  0.3207  0.0845
19760W        W35894  13.095  12.765   6.631  0.2562  0.0601 -0.2047
19761W        W35895   1.373   8.930   4.974 -0.1529 -0.2744  0.1322
19762W        W35896   1.767   4.546  14.668 -0.5206 -0.0308  0.0141
19763W        W35897   4.995   4.908   5.962  0.0016  0.0024 -0.0891
19764W        W35898   6.088   9.894  13.835  0.0499  0.0335  0.0377
19765W        W35899   9.505   6.745  17.098 -0.0643 -0.0356  0.2501
19766W        W35900   4.764  14.880  16.986 -0.1836  0.1512  0.1673
19767W        W35901   2.063   0.637   0.978 -0.1857 -0.4080  0.4829
19768W        W35902   0.956  12.195  14.567 -0.1345  0.0982  0.1811
19769W        W35903   5.168  10.971   1.938 -0.2042  0.1595  0.3006
19770W        W35904  10.819   4.489  15.315 -0.0434 -0.1144  0.2295
19771W        W35905   8.477   4.080   2.465  0.0892 -0.2257 -0.0109
19772W        W35906   0.153   5.071  11.624  0.0781 -0.0701  0.1771
19773W        W35907   5.588  16.728   2.165  0.2711 -0.0211 -0.0709
19774W        W35908  12.526  16.348   2.666  0.2145  0.0227  0.0047
19775W        W35909   7.449  17.354  16.514  0.1278  0.0627  0.0536
19776W        W35910  12.866   9.164   0.396  0.1619 -0.3556  0.2488
19777W        W35911  14.475  10.525  11.701  0.0682 -0.1719  0.0819
19778W        W35912  12.328   2.490  11.519 -0.1150 -0.0394 -0.3171
19779W        W35913  17.110   0.557  16.258 -0.1073 -0.0592 -0.2707
19780W        W35914   9.950  14.540  15.647  0.2954  0.4068 -0.0673
19781W        W35915  13.486  15.107   2.820 -0.2079 -0.1114 -0.0102
19782W        W35916   1.667   3.477  16.088 -0.3535  0.1338  0.1180
19783W        W35917  10.433   9.728   6.169 -0.3784  0.2093 -0.3051
19784W        W35918   5.472  15.862  13.574  0.1230  0.0431  0.1665
19785W        W35919  17.008   1.601   2.540 -0.0746 -0.0019 -0.2744
19786W        W35920   0.742   5.534   0.178  0.0362 -0.2624  0.3385
19787W        W35921   7.480  14.365   1.549  0.0840  0.0841 -0.1480
19788W        W35922   7.292  16.094   4.644 -0.4543 -0.3028 -0.1853
19789W        W35923  17.666   9.552  12.466  0.0591  0.0703  0.0205
19790W        W35924  14.327  11.836  16.508 -0.0186  0.1773  0.2740
19791W        W35925  14.693  14.490   1.649 -0.0535  0.2662  0.1651
19792W        W35926   2.995   2.670   3.323 -0.3663  0.0413  0.2078
19793W        W35927  11.010   4.383   4.416  0.1283 -0.0365 -0.2317
19794W        W35928   1.115   2.977   2.316  0.2018  0.0031  0.0110
19795W        W35929   2.389  14.738  13.313 -0.1624 -0.0243  0.1603
19796W        W35930   0.624   1.368   1.712 -0.0019  0.1008 -0.1003
19797W        W35931  11.202   4.714   0.697 -0.0198 -0.1118  0.1034
19798W        W35932   1.319  13.040  10.989  0.1970 -0.1490 -0.0299
19799W        W35933   5.523  11.450   1.707  0.0200  0.0665 -0.0236
19800W        W35934   0.811   8.730   4.147  0.1954 -0.0335 -0.1366
19801W        W35935   5.225   5.029  13.250 -0.0663  0.0808 -0.1225
19802W        W35936  11.497  14.756   1.448 -0.0744 -0.0616 -0.1335
19803W        W35937   9.584   2.109   2.094 -0.2039  0.1936 -0.0386
19804W        W35938  12.944  10.422  15.819  0.1867  0.1477 -0.2169
19805W        W35939   3.540  13.335   2.805  0.0236 -0.1028  0.1028
19806W        W35940  12.313  12.908   0.941  0.2211 -0.1933  0.1153
19807W        W35941   7.870  10.438   3.086  0.0974 -0.3074 -0.0262
19808W        W35942   9.705  10.153  15.370 -0.1208 -0.4733  0.0357
19809W        W35943  16.401   7.404   5.347 -0.3361 -0.3247  0.2697
19810W        W35944  15.074   2.013  16.863 -0.0624  0.1469 -0.0060
19811W        W35945   3.841  13.509   1.846  0.1977 -0.0997 -0.3456
19812W        W35946   2.817   9.342  15.611 -0.0791  0.0236 -0.3837
19813W        W35947  16.193   8.431   1.673  0.1870  0.0967  0.1300
19814W        W35948  12.736   8.332   0.385  0.1129 -0.0699  0.1280
19815W        W35949  12.621  11.764  13.058  0.1149 -0.0854  0.1757
19816W        W35950  14.167   1.145   0.312  0.1646 -0.1419  0.0689
19817W        W35951  16.725   8.408  16.012 -0.0874 -0.1158  0.2116
19818W        W35952   0.831   8.300   4.590 -0.3579  0.2872 -0.1077
19819W        W35953   1.947   6.612  12.919  0.1996  0.2938 -0.2167
19820W        W35954   8.539   3.412   4.189  0.0135 -0.1349 -0.0674
19821W        W35955  16.698   3.205  15.718  0.1033 -0.3377 -0.2328
19822W        W35956   6.240  13.659   5.705 -0.4196 -0.0171 -0.1556
19823W        W35957   8.777   7.430   3.157 -0.3722 -0.4586  0.2085
19824W        W35958  17.240   6.180  12.495 -0.0798 -0.3782 -0.2281
19825W        W35959  16.407  11.082  16.278 -0.0612 -0.0223  0.0667
19826W        W35960   9.147  10.329   4.983  0.0675  0.0573 -0.5067
19827W        W35961   2.511   0.107   3.233 -0.3938 -0.0347  0.2582
19828W        W35962  11.929   1.130   5.273 -0.1180  0.1880 -0.0904
19829W        W35963  14.356  10.867   1.915  0.0120 -0.2331 -0.0763
19830W        W35964   7.976   5.610  12.849  0.0622 -0.2172  0.5428
19831W        W35965  12.896   8.061  16.587 -0.0045  0.2826  0.1922
19832W        W35966   2.272   0.948   5.081 -0.2444  0.1599 -0.0023
19833W        W35967  15.471  15.148  16.294 -0.0072  0.0313  0.3330
19834W        W35968   7.627   3.705   1.425  0.0859 -0.0551  0.2019
19835W        W35969   8.852  16.130  13.682 -0.2152 -0.3253 -0.1414
19836W        W35970   6.071   3.340   0.902 -0.3069  0.0049  0.0095
19837W        W35971   8.068   6.710   1.671  0.0625 -0.0490 -0.0725
19838W        W35972   2.721   8.242  16.225  0.1081 -0.5083  0.1118
19839W        W35973   0.722   1.221  13.239  0.1753 -0.2095 -0.2314
19840W        W35974  13.399  16.740  15.267 -0.1587  0.0843 -0.1166
19841W        W35975  17.584   7.179   3.276 -0.0339  0.1575  0.0432
19842W        W35976   5.197   8.531  15.774 -0.2528 -0.1692  0.0088
19843W        W35977   4.280   4.653   3.703 -0.3451 -0.0364  0.0843
19844W        W35978   8.576   8.670  16.642 -0.1897  0.0317  0.3218
19845W        W35979  16.122   0.477   4.420  0.1646  0.0670 -0.2361
19846W        W35980   1.046   7.066   4.201 -0.1376 -0.0284 -0.0703
19847W        W35981  13.353  11.848  14.682 -0.0912  0.0984 -0.0009
19848W        W35982   4.080   6.277  13.361 -0.2724 -0.2374  0.0961
19849W        W35983  14.267   9.819  14.325  0.2343  0.1651  0.3805
19850W        W35984  13.733   4.822   3.702 -0.1993  0.2413  0.0533
19851W        W35985  12.811   6.680   0.451  0.3430  0.1354  0.0302
19852W        W35986  12.467   6.264  16.383 -0.0302 -0.1758 -0.0291
19853W        W35987   8.413  10.265   5.475  0.0226 -0.0552 -0.0943
19854W        W35988   3.920   1.705  15.790 -0.1854 -0.1154  0.0475
19855W        W35989  16.605   8.968   4.345 -0.1141  0.0548  0.1896
19856W        W35990  12.931  13.338   6.715 -0.2440 -0.1018  0.0584
19857W        W35991   0.181   4.800   1.371 -0.2379 -0.1425  0.2913
19858W        W35992  13.216  12.710   1.070  0.1664 -0.0807 -0.2606
19859W        W35993  10.490  15.957   5.514  0.1436 -0.1696  0.2580
19860W        W35994   6.538  16.321   2.100 -0.2719 -0.1116  0.1668
19861W        W35995   4.578   0.373   2.457  0.0065  0.0625  0.1569
19862W        W35996   4.930  14.956  12.041  0.0212  0.2722  0.4156
19863W        W35997   9.398   2.300  16.804  0.2795  0.1517  0.6039
19864W        W35998   1.795   0.415  13.211  0.2541  0.0506  0.1030
19865W        W35999   9.166  10.357   1.906 -0.0323 -0.1070  0.1812
19866W        W36000  12.982   9.001  13.061 -0.0850  0.0649  0.2210
19867W        W36001   5.944   5.507   0.796 -0.0075 -0.0813 -0.0073
19868W        W36002   3.309  12.883   5.306  0.3525  0.2205 -0.0876
19869W        W36003   5.949   2.453  16.793 -0.2557 -0.0114 -0.0448
19870W        W36004   6.423   4.248   3.258  0.2202 -0.0672  0.0807
19871W        W36005  12.199  11.783   4.846 -0.0542 -0.1777  0.3699
19872W        W36006   2.124  13.559   5.521  0.1673  0.0684 -0.2313
19873W        W36007   4.024   6.777   4.387 -0.0320  0.0641 -0.2463
19874W        W36008   5.959   0.680  16.976  0.1419 -0.0778 -0.1458
19875W        W36009   5.983   6.882  15.885  0.0161  0.0008 -0.0893
19876W        W36010  13.474  12.815   4.385 -0.0132  0.0258  0.1564
19877W        W36011   0.739   8.000  12.506  0.0459 -0.2664  0.1056
19878W        W36012   4.727   9.796  13.627  0.1578 -0.0631 -0.0742
19879W        W36013   4.362   4.688  16.015 -0.2526 -0.0876  0.0310
19880W        W36014   7.952  11.769   5.825 -0.0249 -0.0065 -0.2769
19881W        W36015  10.682   2.160  17.174 -0.1221  0.1464 -0.2112
19882W        W36016  16.285   1.244  12.200 -0.1869 -0.0279 -0.1753
19883W        W36017   8.958  16.259   3.408  0.2526 -0.2811  0.1980
19884W        W36018  16.301   8.457  13.563  0.1551  0.0360  0.0292
19885W        W36019  17.227  12.147  13.448 -0.0892  0.1329 -0.0190
19886W        W36020  15.376   3.667   6.354  0.2328  0.0391 -0.0524
19887W        W36021   9.792   3.152  14.240  0.3040  0.1085  0.0831
19888W        W36022   9.907   6.048   3.338 -0.3349  0.3893 -0.1351
19889W        W36023  17.173  14.653   4.544 -0.2003 -0.0408 -0.1589
19890W        W36024  10.916  12.494  12.931 -0.1050 -0.0090 -0.2985
19891W        W36025   7.944   8.297  13.770  0.1002 -0.0985  0.4118
19892W        W36026  12.705  13.430   1.141 -0.0678 -0.1532  0.0174
19893W        W36027  10.966   2.937  17.168  0.1941  0.1964  0.1016
19894W        W36028   0.166  14.729   1.269 -0.0387 -0.2579  0.0056
19895W        W36029  15.162  14.533  14.284 -0.2970 -0.0266  0.0699
19896W        W36030   8.466  12.339  16.277  0.3246  0.0727  0.0337
19897W        W36031   8.195  10.731  14.566 -0.1968 -0.1775 -0.1146
19898W        W36032   4.324  14.473  15.022 -0.1128 -0.0764 -0.0065
19899W        W36033   5.030   7.491   4.884  0.2083  0.0308 -0.0283
19900W        W36034  16.459   5.829   1.608  0.0591 -0.1002 -0.0528
19901W        W36035  13.632   8.356  13.844 -0.1628  0.0866  0.0540
19902W        W36036  17.198   2.816  12.706  0.1573  0.0984  0.2197
19903W        W36037  11.561  15.047  13.884  0.1731 -0.2104  0.2633
19904W        W36038   2.752  15.231  14.715  0.1636 -0.1231  0.0222
19905W        W36039  10.885   3.284   2.478  0.4644  0.0559  0.1258
19906W        W36040   9.992  11.622  14.840 -0.4079  0.1339 -0.3077
19907W        W36041  12.835  13.519   2.039  0.2506  0.2069 -0.0848
19908W        W36042  15.180  15.686   0.507 -0.0670 -0.2546  0.2914
19909W        W36043  14.076   3.418   2.851 -0.1119  0.2241 -0.1128
19910W        W36044  11.004   9.625  16.291 -0.1132 -0.0398  0.3374
19911W        W36045   6.619  12.046   6.474 -0.0419  0.0814 -0.1515
19912W        W36046  10.590  15.399  13.117  0.1395 -0.1871  0.2532
19913W        W36047  15.601  14.159   4.110 -0.2151  0.0002 -0.0982
19914W        W36048   0.899  16.321  16.883  0.1652  0.2043 -0.2943
19915W        W36049   9.195  11.411  16.891  0.1693 -0.3669  0.1796
19916W        W36050  15.822  10.970  11.872 -0.1528  0.1953  0.1681
19917W        W36051   7.762   3.757   0.317 -0.0528 -0.0623  0.0522
19918W        W36052   7.885   2.303   4.579 -0.3007 -0.2033 -0.2163
19919W        W36053  10.288  10.332   0.320  0.2705  0.2586 -0.0044
19920W        W36054   9.038  17.071  13.556 -0.2734  0.0621  0.0304
19921W        W36055   6.804   9.756   5.222  0.2137  0.2141 -0.0402
19922W        W36056  11.510   8.875   2.342 -0.0584  0.0922  0.0274
19923W        W36057   4.372   8.980   5.427  0.1849 -0.2078 -0.3603
19924W        W36058   6.203  17.103  12.884  0.1381  0.3041  0.0686
19925W        W36059  13.639  11.612  12.817 -0.0322 -0.0651  0.0653
19926W        W36060  14.131   5.214  13.494  0.2538 -0.0208  0.0936
19927W        W36061  11.731   5.200   0.025 -0.1677 -0.2007 -0.1145
19928W        W36062   9.694   5.010  14.525  0.0874  0.1048  0.1616
19929W        W36063  10.829   8.250  15.593  0.1355  0.0261  0.1631
19930W        W36064   2.549   9.370  14.690  0.0981 -0.1112  0.1110
19931W        W36065   5.736   7.302   5.020  0.0462  0.0788  0.2527
19932W        W36066  13.124   9.535   0.027  0.2290  0.1408 -0.2018
19933W        W36067   6.242   9.599  14.705  0.3242 -0.0465  0.3167
19934W        W36068  16.385   3.722  12.900 -0.0487  0.1029  0.0608
19935W        W36069  11.805   0.618   5.099 -0.0891  0.2807 -0.0661
19936W        W36070  11.172  17.430  17.144  0.1301  0.0289  0.2092
19937W        W36071   5.489  10.182  13.264 -0.1008  0.2262  0.1611
19938W        W36072  15.586  12.731   5.475 -0.1344  0.2246 -0.4272
19939W        W36073   8.469  16.508  13.762 -0.1522 -0.1509  0.1299
19940W        W36074   9.111   3.266   0.722  0.0291 -0.0960  0.0990
19941W        W36075   4.958   6.754  14.062 -0.0987  0.2222 -0.1347
19942W        W36076   1.725   9.572   6.113  0.0786  0.2312 -0.2480
19943W        W36077   5.787  11.057  12.735 -0.0026  0.1974  0.1046
19944W        W36078  17.179   9.666   4.133 -0.0942 -0.1663 -0.0613
19945W        W36079   1.664   7.620   4.412 -0.2520 -0.0080  0.0130
19946W        W36080   9.328  11.822   5.859 -0.3434 -0.2055 -0.0129
19947W        W36081   9.344  14.736   3.047 -0.3740 -0.0720 -0.0248
19948W        W36082  11.205  11.587  13.441  0.2244 -0.1728  0.1596
19949W        W36083   1.756   7.092  14.481  0.0989  0.0737  0.0750
19950W        W36084   6.951  11.366  14.146 -0.0548  0.0643 -0.2381
19951W        W36085   8.837   3.461   1.553  0.2168  0.1077  0.0312
19952W        W36086   7.190  16.780  14.025  0.1196 -0.0627  0.1221
19953W        W36087   2.550  11.949   4.617 -0.3323  0.1073 -0.0937
19954W        W36088   1.517   0.788   5.597  0.2045 -0.0199 -0.1776
19955W        W36089   7.348  14.364   3.373 -0.1776  0.2369  0.1319
19956W        W36090   0.027  14.715   0.570  0.0811  0.1434 -0.0658
19957W        W36091  12.997   2.763   4.764  0.1902  0.0003  0.3395
19958W        W36092   2.708  13.923  16.075 -0.1879  0.1563 -0.1845
19959W        W36093   1.258  14.733   4.540 -0.2312  0.1044  0.0578
19960W        W36094  16.068  11.967  14.826 -0.0401 -0.1739 -0.2720
19961W        W36095   9.283  14.344  13.407  0.3674  0.1705  0.0098
19962W        W36096  14.868   8.613  15.346  0.0287  0.1859  0.2393
19963W        W36097   0.241  14.417  14.977  0.2288  0.0816  0.3471
19964W        W36098  10.142   3.549  11.991  0.2505  0.0283  0.5655
19965W        W36099  14.926   0.812  16.283 -0.0900  0.2192 -0.2137
19966W        W36100  16.012   3.468  13.131 -0.1523  0.2388 -0.0581
19967W        W36101   4.570  16.724  14.331  0.0650  0.3179 -0.2076
19968W        W36102   9.929   5.395   3.755  0.0217 -0.1255  0.0321
19969W        W36103  10.120  10.815  12.821  0.0698  0.0475  0.0709
19970W        W36104   4.851   1.278   3.517  0.0794  0.1995  0.2057
19971W        W36105  11.024  12.001  13.155 -0.1150 -0.2944 -0.1018
19972W        W36106   6.606   9.387   3.559  0.0605  0.1441  0.2823
19973W        W36107   2.394   6.884   4.640 -0.0561 -0.0114  0.1169
19974W        W36108   4.730   9.832   5.180  0.0080 -0.1714 -0.0218
19975W        W36109   3.180   5.545  13.175  0.0288  0.1822  0.0864
19976W        W36110  17.641   8.901   1.238 -0.1896 -0.0118  0.0810
19977W        W36111  15.378   5.294  15.638 -0.0621  0.2182  0.0656
19978W        W36112   4.126  13.924  14.786 -0.2288 -0.1819 -0.0150
19979W        W36113   6.437  14.151   4.063 -0.2034  0.0887  0.0301
19980W        W36114   0.897   5.100  12.998  0.2214  0.0730 -0.1755
19981W        W36115   4.098  11.338   2.492  0.0025  0.0873 -0.0171
19982W        W36116  13.062   3.215   3.774  0.0503  0.1283 -0.0533
19983W        W36117  15.510   8.106  12.087 -0.0879  0.0203 -0.0008
19984W        W36118   4.596  10.955  12.187  0.1783 -0.0112 -0.0123
19985W        W36119  13.683   0.563  14.231 -0.0536  0.1629  0.1212
19986W        W36120   4.635   2.382  15.750  0.1637  0.3296 -0.2350
19987W        W36121   3.890   6.957   5.391 -0.1526  0.3459  0.1335
19988W        W36122  16.286   6.482  13.475 -0.0465 -0.0749  0.0264
19989W        W36123   5.286   1.477   4.837 -0.2719 -0.0795  0.0204
19990W        W36124  13.781  15.287   2.391 -0.0449  0.1473  0.3325
19991W        W36125   2.994   2.565   2.849  0.0351 -0.1310  0.0615
19992W        W36126   8.571   6.356  12.598 -0.1449  0.1143 -0.1429
19993W        W36127   7.488  11.523  13.145  0.1427  0.0245 -0.1895
19994W        W36128  10.208   6.532   4.870  0.2510 -0.1863 -0.0387
19995W        W36129   6.365   4.259   2.732  0.0787 -0.0490  0.0272
19996W        W36130   6.896   4.197   4.179  0.1443  0.1034 -0.0001
19997W        W36131   8.550  16.885   0.582 -0.0168 -0.0001  0.1863
19998W        W36132   3.685   0.245   3.451  0.3464  0.1570 -0.0839
19999W        W36133   8.768  14.383  12.793  0.2508 -0.1291  0.1808
20000W        W36134  12.855  11.408  16.807  0.0745  0.0349  0.0678
20001W        W36135   1.671   2.529   0.727  0.0526  0.0272 -0.1654
20002W        W36136  16.066   8.776   3.172 -0.0500 -0.3589 -0.1815
20003W        W36137  14.059  16.277  13.654  0.0992 -0.1719 -0.3421
20004W        W36138  11.186   1.476  13.163 -0.3026 -0.1450  0.2437
20005W        W36139  12.962  10.671   2.388  0.0680  0.1585 -0.0721
20006W        W36140   6.471  11.494   3.496 -0.0481  0.1059 -0.4278
20007W        W36141   3.202   4.145   2.568 -0.0684 -0.0079  0.1489
20008W        W36142   4.332   3.360  12.511 -0.0181 -0.0221  0.0253
20009W        W36143   9.855   1.454  16.642 -0.0118  0.2226 -0.0686
20010W        W36144   6.295   5.820  16.987  0.1149 -0.2089  0.0611
20011W        W36145   4.819  13.102  16.707 -0.0227 -0.0590  0.1275
20012W        W36146   5.102   5.671  12.443 -0.0758 -0.1923 -0.0358
20013W        W36147  11.258   5.987  14.937 -0.2183 -0.1354  0.1239
20014W        W36148  12.570   6.588   1.702  0.0070 -0.0705  0.0849
20015W        W36149  12.418  15.489  16.269 -0.0867  0.1029  0.1358
20016W        W36150   1.980   8.783   3.731 -0.1281 -0.0473  0.1797
20017W        W36151   6.069  17.481   1.695 -0.2408  0.0418 -0.1289
20018W        W36152  10.409  15.782   4.998  0.2522  0.3427  0.0816
20019W        W36153  10.096   6.243   5.925 -0.2244  0.3542 -0.0706
20020W        W36154  16.928   9.400   0.110  0.0081  0.0198 -0.1880
20021W        W36155  16.718   7.552  12.927 -0.2297  0.0526 -0.1071
20022W        W36156  16.261   7.956   1.039  0.2178  0.0220 -0.1252
20023W        W36157  10.336  11.662   3.250 -0.4476  0.2507 -0.1941
20024W        W36158   5.012   0.016   2.339  0.0026 -0.0823 -0.0301
20025W        W36159  11.038  15.586   1.666 -0.2608 -0.0513  0.0697
20026W        W36160  12.734  16.635   3.031  0.2024  0.0733 -0.0551
20027W        W36161  16.858  10.780   3.485  0.0976  0.0644 -0.0127
20028W        W36162   2.239   8.130   0.541  0.0613  0.0031 -0.0346
20029W        W36163   1.909  13.421   1.636 -0.2026 -0.0536 -0.0195
20030W        W36164  16.664   4.583   3.129  0.1786  0.0776  0.3437
20031W        W36165   5.273   6.811  17.131 -0.0327 -0.2882  0.4330
20032W        W36166   9.543   6.959   3.203  0.0015  0.1654  0.4654
20033W        W36167  12.102   5.863  11.559  0.0071 -0.1471  0.0864
20034W        W36168  13.849  10.324  12.841 -0.1632 -0.0747 -0.0540
20035W        W36169   1.580   8.195  14.518 -0.0583  0.2720  0.3460
20036W        W36170   1.803  15.300   1.867 -0.0729  0.1561 -0.1313
20037W        W36171   3.513  16.705   5.476  0.1410  0.0281 -0.0763
20038W        W36172  11.338   0.480   1.032 -0.0229  0.4413  0.1347
20039W        W36173   8.635  15.188  16.942  0.3155 -0.0868 -0.0401
20040W        W36174  17.246  14.770   5.501 -0.2607 -0.0228  0.0293
20041W        W36175   9.640   6.507   4.032  0.3979 -0.0825  0.1119
20042W        W36176  10.527   3.074  14.963 -0.0856 -0.0304 -0.0587
20043W        W36177   2.541  12.557  13.075 -0.4610  0.0925  0.2514
20044W        W36178  16.461   8.448  11.657 -0.0201 -0.0466  0.1224
20045W        W36179   5.666  11.269   3.868 -0.0629 -0.2797  0.1330
20046W        W36180   5.703  11.467  15.734  0.1254  0.1258  0.0910
20047W        W36181  13.797  13.166  12.634  0.2993  0.1769  0.1911
20048W        W36182   7.393  15.318   1.270  0.0614  0.0703 -0.0958
20049W        W36183   9.440   4.202   1.470  0.0266 -0.2925  0.0299
20050W        W36184   3.323   9.096   4.908  0.0754  0.3995 -0.3446
20051W        W36185   6.747  17.155  11.575  0.1843 -0.1124  0.0875
20052W        W36186  14.705   1.106   3.120  0.0684 -0.2000 -0.2198
20053W        W36187  17.401  17.622   3.202  0.1280 -0.4560 -0.3136
20054W        W36188   5.014  12.872  15.968  0.0743 -0.2862  0.1512
20055W        W36189  17.486   0.876  16.495  0.2785  0.1495  0.1035
20056W        W36190  12.164   0.021   4.365 -0.1705 -0.0051  0.0052
20057W        W36191   0.471  10.990  11.729 -0.2922 -0.0848  0.3005
20058W        W36192  13.686  10.312  15.544 -0.0607  0.3482  0.0453
20059W        W36193  17.653  15.156   4.089  0.1453 -0.2082 -0.0483
20060W        W36194  10.393   8.446  13.310  0.0276 -0.0100 -0.0756
20061W        W36195   6.533  11.010   5.011  0.0448 -0.0771  0.0501
20062W        W36196   9.817  15.663   2.394  0.0949  0.0059 -0.0767
20063W        W36197   6.580   9.306  13.008 -0.1376 -0.0946  0.1589
20064W        W36198   9.946   3.975  11.705 -0.1952  0.2048  0.2091
20065W        W36199   1.330   0.182  12.565 -0.1651  0.4191  0.3633
20066W        W36200  15.379  13.910   3.085 -0.0753  0.0635 -0.2155
20067W        W36201  12.169   3.972   3.046  0.0045 -0.1122  0.0603
20068W        W36202   7.381   3.520  16.674  0.0704 -0.1304  0.2660
20069W        W36203   8.431   3.408  12.375 -0.1277  0.1083  0.1656
20070W        W36204  15.933   9.882  13.941 -0.1478  0.1627  0.1504
20071W        W36205  11.597   9.870  17.076 -0.0223 -0.0791 -0.1432
20072W        W36206  11.550  13.752   5.027 -0.2826 -0.1483 -0.2421
20073W        W36207  10.405   5.998  11.663 -0.0008 -0.0942 -0.3478
20074W        W36208   4.884   6.775  13.532 -0.0502  0.1072 -0.1461
20075W        W36209   8.221  14.194   3.452  0.2311 -0.1368 -0.0707
20076W        W36210   5.985  16.512  15.939  0.2082 -0.1812 -0.1768
20077W        W36211  13.620  12.643  13.883  0.1242  0.1824 -0.2953
20078W        W36212   9.771   7.162   6.032  0.0334  0.1080 -0.2004
20079W        W36213   2.188  12.901  13.042 -0.3603 -0.2464 -0.0539
20080W        W36214  15.767   8.733   3.701  0.2801  0.1049  0.0569
20081W        W36215   4.869   7.544  11.905 -0.1173  0.1334 -0.2363
20082W        W36216   8.181  13.064  12.174 -0.2511 -0.0120 -0.1396
20083W        W36217  14.348   1.195   1.004 -0.0739  0.0794  0.4063
20084W        W36218  11.567   9.343  15.705  0.1030  0.0034 -0.2662
20085W        W36219  16.005  17.316  12.565  0.0226  0.2656 -0.0285
20086W        W36220   4.594   6.879   1.316 -0.3043  0.0358  0.1654
20087W        W36221  16.433  13.996   1.125  0.2609 -0.0097  0.1647
20088W        W36222   3.041  17.315   1.859  0.3645  0.1421  0.0960
20089W        W36223  15.117   6.505   0.584 -0.2800 -0.0144  0.3741
20090W        W36224   4.359   7.065  14.373  0.2256  0.0151  0.0630
20091W        W36225   0.647  10.524  16.607 -0.1516 -0.3315 -0.1268
20092W        W36226   1.986   1.179   4.737  0.0015 -0.0828  0.4091
20093W        W36227   6.802  12.248  16.530  0.1767 -0.0018  0.3160
20094W        W36228   3.654   1.695  12.108  0.3258  0.1957 -0.2384
20095W        W36229   6.732   7.011  16.795 -0.2952 -0.0432  0.2379
20096W        W36230  13.100  11.991  12.990 -0.0847  0.0795  0.2983
20097W        W36231   8.337  10.768   2.331  0.0642  0.0869 -0.4083
20098W        W36232   6.449   1.379   0.301  0.1407 -0.3323 -0.2073
20099W        W36233   0.429   9.289  12.470 -0.1521  0.3416 -0.2934
20100W        W36234  13.520  14.315   5.897 -0.1689 -0.0708  0.0973
20101W        W36235  15.344   2.581   3.697 -0.0097  0.2997  0.0019
20102W        W36236  15.740   5.927   5.540  0.1112  0.0251 -0.1017
20103W        W36237  16.274  13.085  13.483  0.1689 -0.0171  0.1635
20104W        W36238   8.804   5.652   0.911  0.2580 -0.2175 -0.2468
20105W        W36239   5.903  17.664  14.928  0.0258 -0.0347 -0.1283
20106W        W36240   6.083   1.273   2.433  0.0286  0.2898 -0.5644
20107W        W36241   5.172  11.420   2.195  0.0461 -0.0499 -0.0468
20108W        W36242  13.796   0.826  13.065 -0.0197  0.0787  0.1750
20109W        W36243  15.635   4.599   1.248 -0.0983 -0.1295 -0.2802
20110W        W36244  16.170   4.542  15.950 -0.2023 -0.0905  0.1358
20111W        W36245  14.134   3.147  14.260 -0.1008 -0.1563 -0.0494
20112W        W36246   7.992  12.393   1.545  0.2131 -0.2761 -0.1173
20113W        W36247   6.363  11.007  13.659 -0.0867  0.0332 -0.0864
20114W        W36248   2.389   3.761   2.264 -0.1113  0.1705 -0.1343
20115W        W36249   2.479   2.350   5.317  0.0211  0.0714 -0.1153
20116W        W36250   9.596  13.976   4.026 -0.0315 -0.3523 -0.2634
20117W        W36251  10.558  11.194  14.659  0.0106 -0.1019  0.0589
20118W        W36252   2.786   5.557  15.741  0.0271 -0.0975 -0.0946
20119W        W36253  10.583   2.986  14.439  0.0099 -0.1019  0.0765
20120W        W36254   6.185   1.292   5.844 -0.0944 -0.0577  0.1159
20121W        W36255  14.593  16.293  12.148  0.0331 -0.1539  0.3411
20122W        W36256   5.996  11.612  17.142 -0.0291 -0.3715  0.1279
20123W        W36257   5.075  14.107  15.247 -0.0461 -0.2802 -0.0994
20124W        W36258  17.549   2.317   3.972  0.1532 -0.1265 -0.0037
20125W        W36259   2.338   8.568  14.599 -0.0924 -0.1771  0.0404
20126W        W36260  11.584   5.614  15.101  0.0444  0.0356 -0.1787
20127W        W36261   9.540   4.142  14.028 -0.0582 -0.0934 -0.2024
20128W        W36262  11.328  10.526   4.867  0.1502 -0.1390 -0.2652
20129W        W36263  12.563   2.613   1.479 -0.1396  0.1657 -0.2140
20130W        W36264  14.826  14.346   6.541  0.0225  0.2267 -0.0556
20131W        W36265   8.734  16.438   1.220  0.1288 -0.2748  0.0120
20132W        W36266   7.107   3.436   4.168  0.0741 -0.2108 -0.2219
20133W        W36267  10.469   7.193  14.436 -0.1386 -0.2127 -0.1372
20134W        W36268   4.843   1.378   7.184  0.0101  0.1123 -0.1832
20135W        W36269   6.236   6.558  13.320  0.1882 -0.0140  0.1992
20136W        W36270   8.477   3.858  13.292 -0.0838 -0.0043 -0.0021
20137W        W36271   9.247   3.590  12.050  0.0323 -0.2225  0.0687
20138W        W36272  12.204   0.038   1.101  0.1093  0.2264  0.0092
20139W        W36273  17.122   6.453   3.241  0.4353  0.1649  0.1356
20140W        W36274   1.651  12.493   1.162 -0.0635 -0.1590  0.3765
20141W        W36275   0.098  16.811   3.434  0.0832  0.0392  0.0859
20142W        W36276  15.351   4.672  13.292 -0.0690  0.0637  0.1415
20143W        W36277   8.745   2.813   4.832 -0.0023  0.1230 -0.1556
20144W        W36278   5.311   1.245   0.816 -0.3031  0.0305 -0.1489
20145W        W36279  14.239  16.755  15.767 -0.0914  0.2486  0.0185
20146W        W36280  16.134  15.284   2.347 -0.3526  0.1322  0.2168
20147W        W36281   3.770  10.858   0.137  0.2715 -0.3179  0.2205
20148W        W36282  17.610  14.224  16.375  0.4450 -0.3730  0.1034
20149W        W36283  17.240   6.920   5.870  0.2700 -0.1293  0.1161
20150W        W36284   8.099   8.493  12.736  0.0890  0.0637  0.0734
20151W        W36285   5.145   1.188   2.981 -0.1499  0.0929  0.0482
20152W        W36286   2.581   3.686   5.554 -0.0266  0.1307  0.0238
20153W        W36287   0.853  11.093   0.989  0.0187  0.1371  0.0966
20154W        W36288  11.240   9.712   4.322 -0.3170  0.5391  0.1662
20155W        W36289  11.791   8.305  13.956  0.1070  0.0406  0.0851
20156W        W36290  10.184  11.347  15.718  0.2552  0.0426 -0.0834
20157W        W36291   8.086  17.136   5.208 -0.3466 -0.2324  0.0564
20158W        W36292  16.499   6.151   1.011  0.1123  0.3803 -0.1994
20159W        W36293  16.021   5.295  16.266 -0.0641 -0.0629 -0.2185
20160W        W36294   5.879   3.386   1.735 -0.0307  0.2048 -0.2939
20161W        W36295   1.014   4.631  12.795 -0.1501 -0.1117  0.1179
20162W        W36296   2.813   9.543   5.667  0.1859 -0.2770  0.2879
20163W        W36297   9.786   6.607   2.937  0.0771 -0.1643  0.1149
20164W        W36298  11.879  16.422   1.356 -0.2357 -0.0566  0.2382
20165W        W36299   4.215  10.118   4.434 -0.0146 -0.1935  0.0114
20166W        W36300   5.650  12.195  11.441  0.0897 -0.0383 -0.0143
20167W        W36301  13.877   0.028  14.865  0.2834  0.0761  0.1379
20168W        W36302   8.529  13.721   1.821  0.0855  0.0629 -0.2258
20169W        W36303   1.868  12.984  15.438  0.1261 -0.0653 -0.2260
20170W        W36304   0.336  16.109  13.306  0.0021 -0.1647 -0.0750
20171W        W36305   3.164  17.124   3.633  0.1840 -0.0107  0.2440
20172W        W36306   8.826  13.470   3.638 -0.1716  0.1409  0.2957
20173W        W36307   5.611   8.697  11.692  0.0120  0.0012 -0.0137
20174W        W36308  16.648  17.571   0.091  0.0522 -0.1991  0.0744
20175W        W36309   5.804   2.075  11.977  0.3324 -0.0918  0.0703
20176W        W36310   3.414   4.500  16.899 -0.1082  0.1650  0.1493
20177W        W36311   3.471   9.838   3.861  0.1289 -0.0989  0.1554
20178W        W36312  12.901  16.776   1.458 -0.1183 -0.2942  0.1916
20179W        W36313   2.540  10.268   3.764 -0.1663  0.1418  0.2928
20180W        W36314  14.202  10.597  12.714  0.0185 -0.0199  0.0834
20181W        W36315   5.813   6.199   1.044  0.1950 -0.0866 -0.3068
20182W        W36316   9.373   9.879   5.019  0.1806  0.1935  0.1234
20183W        W36317   6.280   1.729   3.922  0.0620 -0.4377  0.2954
20184W        W36318   3.473   1.811  15.926  0.0608 -0.1202 -0.3562
20185W        W36319   1.962   2.303   3.129  0.1420 -0.2811  0.0656
20186W        W36320   1.866  11.520  16.033 -0.0919  0.1139 -0.0980
20187W        W36321  15.585   3.713   1.172  0.1988  0.0103  0.0679
20188W        W36322  12.433   2.469  13.793 -0.4027 -0.1084  0.0583
20189W        W36323   0.407  10.497  17.128  0.1255 -0.0251  0.3046
20190W        W36324   0.758  13.703   0.871  0.0807  0.2292  0.2322
20191W        W36325   3.407  10.956   3.578  0.1983  0.3696  0.1120
20192W        W36326  14.992  10.632   5.515 -0.1092 -0.0006  0.0070
20193W        W36327   2.284   5.066  16.354  0.0016 -0.0258 -0.0529
20194W        W36328   5.048   0.266  13.825  0.4247 -0.1426  0.0429
20195W        W36329   3.446   5.037  11.947  0.1899 -0.4862 -0.1499
20196W        W36330   5.626  16.245   4.041 -0.3229  0.0264 -0.1360
20197W        W36331  12.536   3.211   1.496 -0.1050 -0.2806  0.1574
20198W        W36332   6.346   9.289  12.501  0.0702  0.1799  0.0116
20199W        W36333   2.440  13.925  14.419 -0.1390 -0.3906 -0.1788
20200W        W36334   3.401   2.031   4.851  0.0879 -0.1678 -0.1776
20201W        W36335   2.203  13.830  12.916 -0.0666  0.1257 -0.1151
20202W        W36336   4.104   5.740  13.420  0.0336 -0.1909 -0.0174
20203W        W36337   4.610   7.117   5.667  0.1164  0.1405 -0.1162
20204W        W36338  12.183  13.969  13.006 -0.0762 -0.1194  0.0935
20205W        W36339  13.831   9.370   2.104 -0.0054 -0.1669  0.0234
20206W        W36340   4.758   0.209   1.973  0.0760  0.1216  0.1435
20207W        W36341   5.379   0.590   6.081 -0.0207  0.1382 -0.0946
20208W        W36342   5.208   5.778  12.875  0.0635  0.1155 -0.0206
20209W        W36343   8.049  14.640   6.514  0.4273  0.0523  0.3190
20210W        W36344  13.046  10.415   4.324  0.1857 -0.2216  0.0923
20211W        W36345  15.698   9.868   3.583 -0.1816  0.0399 -0.0929
20212W        W36346   8.148   6.502   0.778 -0.1716 -0.0197 -0.0979
20213W        W36347   3.789  15.311  13.903 -0.1342  0.0746  0.0586
20214W        W36348   7.251  14.564   4.249  0.0665 -0.0252 -0.1810
20215W        W36349  15.838   0.858  13.413 -0.3337 -0.1514  0.1476
20216W        W36350   5.981  11.843  12.951 -0.1211 -0.2171  0.0659
20217W        W36351  17.669   5.247   3.857  0.1634 -0.4295  0.1334
20218W        W36352   0.118   2.824  10.893  0.0445 -0.4459 -0.2196
20219W        W36353  13.641   2.324   4.458  0.1995  0.1849  0.2410
20220W        W36354   0.760   6.106   2.962 -0.1646 -0.0143  0.0861
20221W        W36355  17.409  14.015   5.810  0.2536 -0.1335 -0.2119
20222W        W36356   2.944   8.586   3.567  0.0952 -0.2062  0.0822
20223W        W36357  17.640   0.069  12.258  0.1099 -0.1505 -0.1022
20224W        W36358   5.691  14.108  15.039  0.1094 -0.0532  0.1481
20225W        W36359   5.263   1.304   0.035 -0.2554  0.0081  0.2811
20226W        W36360  13.279  16.548  13.347 -0.0419  0.1976  0.0661
20227W        W36361   5.836  14.331   0.681  0.2456  0.1133 -0.1022
20228W        W36362  17.179   4.825  13.919 -0.0204  0.0558  0.2464
20229W        W36363  10.281   7.226   5.293 -0.3323 -0.0963 -0.0565
20230W        W36364   8.372   0.761  12.618 -0.1472 -0.1019 -0.1812
20231W        W36365  15.670  16.462  14.440  0.1556 -0.0584 -0.1389
20232W        W36366   8.002   3.446   1.192 -0.0978 -0.0151  0.1109
20233W        W36367   0.252   2.142  15.378  0.2174  0.3483  0.2391
20234W        W36368  17.358   8.899   2.965  0.1094  0.1477 -0.0937
20235W        W36369   7.895   4.931  11.736 -0.0086  0.2021  0.1338
20236W        W36370  14.747  15.468  14.064  0.0461  0.1998  0.1312
20237W        W36371  11.234   4.805  14.398 -0.1271 -0.1442 -0.1323
20238W        W36372   5.092   5.888  14.959 -0.2900 -0.3324  0.0146
20239W        W36373   6.769   6.738   3.358 -0.1905  0.2135  0.1585
20240W        W36374  15.723   7.890   4.211  0.0650 -0.2703 -0.0977
20241W        W36375  10.379   3.916   2.324 -0.2201 -0.0077 -0.2570
20242W        W36376   4.585  17.436   1.792 -0.1176  0.1316  0.1234
20243W        W36377  14.376   5.373   2.368 -0.3955  0.2829 -0.0398
20244W        W36378   5.797   6.583  13.039 -0.2709  0.0784 -0.2411
20245W        W36379   5.342  14.682   6.252  0.2570 -0.2126  0.1213
20246W        W36380   0.964  12.919   6.176  0.3038  0.0287 -0.0152
20247W        W36381  13.936  13.859   3.593  0.3535 -0.2888 -0.0441
20248W        W36382   1.746   4.903   2.981 -0.1668 -0.3349 -0.1554
20249W        W36383   7.931   3.050   5.353 -0.1025  0.1375 -0.2415
20250W        W36384  10.376   8.929   2.111 -0.1712 -0.0215 -0.1143
20251W        W36385  14.015   4.189  13.281 -0.1576  0.1218 -0.0870
20252W        W36386   1.518   4.026   1.482 -0.0590  0.0776 -0.3385
20253W        W36387  13.377  11.886   0.855  0.1407 -0.2310 -0.0780
20254W        W36388   0.634  12.885  14.349 -0.0667  0.0102  0.2091
20255W        W36389  11.340   3.244   5.128  0.0411 -0.3299 -0.3055
20256W        W36390  15.026   5.355   1.173 -0.1819  0.2206  0.2330
20257W        W36391   0.872  10.435  13.634 -0.2314  0.3135  0.1786
20258W        W36392   0.716   2.466   3.005  0.0192  0.1174 -0.0804
20259W        W36393   5.280  16.398   3.505  0.1754 -0.1730 -0.2895
20260W        W36394   2.259  12.453   4.717  0.0476  0.3921 -0.1046
20261W        W36395   1.495   4.387   1.139 -0.0479 -0.0440  0.0951
20262W        W36396   6.614   0.516   3.382  0.0783  0.2458 -0.0091
20263W        W36397   9.445   7.583  17.135  0.0438 -0.1061  0.0800
20264W        W36398  17.296  12.543   1.207  0.0805  0.1598  0.0960
20265W        W36399  12.645   3.554  13.829  0.1029 -0.0524  0.1173
20266W        W36400   1.523   3.666   1.889  0.1757 -0.2400 -0.1449
20267W        W36401  13.057  16.928  12.745  0.0982  0.2812  0.0164
20268W        W36402   6.310   1.111  16.040 -0.0989  0.0128  0.0073
20269W        W36403   6.503  15.847   5.938 -0.1105  0.0507 -0.0358
20270W        W36404  17.060   5.449   3.848  0.0215 -0.1747 -0.1286
20271W        W36405  12.667   6.866   3.480 -0.2080  0.1628 -0.0283
20272W        W36406   6.163   8.332  13.035  0.2031  0.0827  0.2443
20273W        W36407   4.361  16.565   3.145 -0.0546  0.0295  0.1695
20274W        W36408  10.537   4.620  13.937  0.0640  0.2475  0.2564
20275W        W36409  10.740  14.013  16.199  0.1941 -0.0239 -0.1147
20276W        W36410  10.669   6.726  13.861 -0.1954 -0.0595 -0.1974
20277W        W36411  14.219   4.972   1.084 -0.0297  0.0439  0.1900
20278W        W36412   1.808   2.265   1.226 -0.1865  0.1157 -0.0768
20279W        W36413   9.956  12.013   3.527  0.1733 -0.0204 -0.0432
20280W        W36414  13.412  14.663   2.174  0.0409  0.3495 -0.0369
20281W        W36415   3.333   2.142   3.050  0.0456  0.0618  0.0800
20282W        W36416   5.395   1.260   1.669  0.0961 -0.2945  0.0351
20283W        W36417  10.032   1.261  16.144 -0.2836  0.0070 -0.2679
20284W        W36418  16.474  16.916  13.226 -0.0156  0.2993 -0.1186
20285W        W36419   8.159   0.933  14.875 -0.1352 -0.0448 -0.2268
20286W        W36420   9.461   7.456   2.833 -0.0100  0.1127 -0.1245
20287W        W36421  16.102  16.268   3.654  0.2998 -0.2419 -0.0181
20288W        W36422   2.821   9.396   1.722  0.1139  0.2487  0.1827
20289W        W36423  14.124   0.490   4.727  0.0085  0.1654  0.0466
20290W        W36424  16.533  15.973  11.416  0.2207  0.1098 -0.1232
20291W        W36425  12.479   8.862   0.359 -0.2696 -0.1366  0.2334
20292W        W36426   2.360   5.468   0.870 -0.1427  0.0265  0.1024
20293W        W36427  17.394   7.035  14.842  0.1322 -0.1267 -0.1714
20294W        W36428  11.804   3.278   1.580 -0.0239 -0.2052 -0.1302
20295W        W36429   3.719  15.093  12.625 -0.0513  0.0574  0.0492
20296W        W36430   2.207   5.793   5.747  0.0038  0.3819  0.2154
20297W        W36431   3.147   6.526  15.457  0.0189 -0.3260  0.0456
20298W        W36432   8.208  12.364  16.697 -0.0089 -0.0738  0.0444
20299W        W36433  16.632  14.089  16.013 -0.0909 -0.3314  0.0404
20300W        W36434  13.609   8.773   0.482 -0.4149  0.0183  0.0915
20301W        W36435   9.699  10.574  12.852  0.0497  0.2654  0.0516
20302W        W36436   0.991  13.862  15.575  0.0866  0.0415 -0.0801
20303W        W36437  13.255  16.106   0.973  0.0905  0.0578 -0.0287
20304W        W36438  14.948  12.804   0.861  0.0089  0.2029 -0.1566
20305W        W36439  15.483  13.810   6.099 -0.0591 -0.0679  0.1792
20306W        W36440   2.977   1.083  16.105 -0.0373 -0.0042  0.1501
20307W        W36441  17.082  11.600  13.634 -0.2848 -0.2473 -0.0212
20308W        W36442  15.069   5.809  11.532  0.0971  0.1413 -0.0718
20309W        W36443   1.287   8.070  14.896 -0.3781 -0.0699 -0.1440
20310W        W36444   0.289   4.646   4.549  0.0377 -0.0100 -0.2469
20311W        W36445   4.409  17.406   4.838  0.0293  0.3027  0.0268
20312W        W36446   4.698  11.368  16.357  0.1314 -0.4236  0.2319
20313W        W36447   0.277  10.728  13.870  0.1089 -0.2616 -0.1131
20314W        W36448  16.098   2.721  11.675 -0.1107  0.0668 -0.1641
20315W        W36449  11.099  13.881   4.757  0.1558  0.0286 -0.0404
20316W        W36450   6.384  17.524   2.619  0.1246 -0.0410 -0.0421
20317W        W36451   5.871   5.844  13.207 -0.2904 -0.1575 -0.0762
20318W        W36452  17.200   6.882   3.452  0.0241 -0.0207  0.2337
20319W        W36453   6.669  13.627   1.852 -0.1319  0.0140  0.1996
20320W        W36454   7.782  12.520   2.592  0.1312  0.2022 -0.3685
20321W        W36455   7.300  11.324   0.324 -0.4591 -0.2325 -0.2540
20322W        W36456  13.964  15.763   4.561 -0.0353 -0.1302  0.0811
20323W        W36457  15.439  14.647   3.762 -0.0327 -0.0944 -0.0513
20324W        W36458  11.306   3.221  15.502  0.3464  0.0253  0.1153
20325W        W36459  15.254  10.484   3.410 -0.1263 -0.0584 -0.1500
20326W        W36460  10.429   7.413  16.390 -0.2869 -0.0724  0.2754
20327W        W36461  17.430  10.680  12.289  0.0954 -0.0792  0.0418
20328W        W36462  17.438   1.681   0.629  0.1559  0.2295 -0.3442
20329W        W36463  16.926   9.377  16.376 -0.2013 -0.0582  0.0336
20330W        W36464  10.431  17.073  12.578  0.0188 -0.2000  0.1112
20331W        W36465   7.543   8.485   2.958 -0.1164 -0.0785 -0.0378
20332W        W36466   6.142   4.024  15.419  0.0289  0.3005 -0.2736
20333W        W36467   1.430  10.345   5.821  0.2283 -0.0464 -0.0706
20334W        W36468  10.692   9.391  12.293 -0.2147 -0.0454  0.1606
20335W        W36469  11.232   2.695   2.033 -0.0879 -0.2923 -0.2154
20336W        W36470   3.281   8.890   2.447 -0.0588 -0.2227 -0.1635
20337W        W36471   3.965   5.209   4.310 -0.0791  0.2098 -0.2346
20338W        W36472   7.162   7.822   5.811  0.3076  0.0507  0.0658
20339W        W36473  14.852   9.405  12.464 -0.4954 -0.1566  0.0357
20340W        W36474  13.207   3.590   1.822 -0.0295  0.1823  0.0358
20341W        W36475  15.092   8.119  15.093  0.0971 -0.2380 -0.1791
20342W        W36476  16.150   6.339  11.907  0.0094 -0.0106  0.2800
20343W        W36477   4.300   1.626   5.980 -0.2696 -0.0593 -0.1743
20344W        W36478  16.725   8.446   2.914 -0.0416  0.0726  0.2324
20345W        W36479  13.231   7.514   4.188  0.1360 -0.0356 -0.1218
20346W        W36480  14.996   8.713  13.832  0.0260  0.0430  0.0749
20347W        W36481   6.941  11.740  15.296  0.2857  0.2554  0.1313
20348W        W36482  16.099   5.634   2.839  0.0866  0.1628  0.1380
20349W        W36483  14.893  12.335   0.733  0.0651  0.0417  0.1506
20350W        W36484   6.792   4.254   4.694  0.0649  0.0911 -0.0180
20351W        W36485   6.875  11.765   3.281  0.1045  0.0531 -0.1462
20352W        W36486   3.969   5.824   2.538  0.0387 -0.2193  0.0918
20353W        W36487   6.856   2.518  13.398 -0.0531 -0.1869 -0.2233
20354W        W36488  10.513   7.079   1.408  0.0559 -0.1394  0.2034
20355W        W36489   2.043   2.850   0.529 -0.2876  0.0117 -0.2884
20356W        W36490   9.742  17.238  14.021  0.1631  0.2373  0.2795
20357W        W36491   0.168  11.405  11.594  0.1521  0.2275  0.2819
20358W        W36492  10.159   1.180   4.071 -0.1245 -0.2985 -0.2296
20359W        W36493  11.415   5.527   4.792 -0.0680 -0.0897 -0.2274
20360W        W36494   9.491   1.170   5.580 -0.0034  0.0208  0.0744
20361W        W36495  14.191  15.818   6.479 -0.0691  0.2815 -0.0356
20362W        W36496  12.419   5.274   2.582 -0.0644 -0.1692  0.0860
20363W        W36497   1.090   1.003   0.939 -0.0992  0.0204 -0.0159
20364W        W36498   6.999  16.213   3.304 -0.1284 -0.1412  0.2916
20365W        W36499   2.915   7.478   3.128 -0.2290 -0.0788  0.0009
20366W        W36500   3.906  14.345  14.741  0.2531  0.1130  0.2562
20367W        W36501   8.310   0.148   0.947  0.2724  0.1810  0.2929
20368W        W36502   0.540   7.186  13.694 -0.0292 -0.2218 -0.0321
20369W        W36503  14.424  15.849   3.564  0.1950 -0.1427 -0.1263
20370W        W36504  17.145   8.839  11.593  0.2687 -0.0395  0.1291
20371W        W36505  13.757   8.557  12.403 -0.0547  0.0587 -0.1070
20372W        W36506  16.268  13.712   2.820  0.2452  0.2999  0.0547
20373W        W36507   1.756   3.282  14.367 -0.0896 -0.0156 -0.2305
20374W        W36508   7.933   9.663  12.042 -0.0078  0.3138  0.0054
20375W        W36509  14.953  16.039   4.943  0.3083  0.0685  0.1714
20376W        W36510  10.379   1.435   1.660 -0.0380  0.1281 -0.0894
20377W        W36511   0.104   0.899   2.262  0.1378  0.1400 -0.0087
20378W        W36512   0.723   2.030  15.655  0.1574  0.2042 -0.1650
20379W        W36513   5.032  11.036   2.880  0.2030  0.0686 -0.1352
20380W        W36514   1.808   8.387   0.042  0.1052  0.0056  0.4566
20381W        W36515   0.370  11.066  17.108  0.0937 -0.2097  0.1034
20382W        W36516  12.449  12.336   3.454  0.2138 -0.0062 -0.0335
20383W        W36517   1.843   6.882  17.056 -0.1895 -0.0442  0.0642
20384W        W36518  14.544  13.605   1.979 -0.2075 -0.0098  0.0468
20385W        W36519  14.206   1.196  12.116  0.1153  0.0319 -0.5805
20386W        W36520   0.386   0.084   4.240  0.2343 -0.1680  0.2974
20387W        W36521  11.228   2.790   4.763  0.0651  0.1505  0.0786
20388W        W36522   9.010  11.721   1.318  0.3402  0.3928  0.0985
20389W        W36523  10.446  12.776   5.284  0.2052  0.0527 -0.1774
20390W        W36524  14.940  14.522  16.102  0.3203  0.0038  0.2844
20391W        W36525  13.713   4.289  15.365 -0.0075 -0.1069 -0.1119
20392W        W36526  14.268   1.480   3.926  0.6672  0.1007 -0.0260
20393W        W36527   0.500   2.377  13.705 -0.0165  0.3420  0.0111
20394W        W36528   2.501   8.018  15.858  0.3133 -0.1424  0.0789
20395W        W36529   2.818  12.205   1.446 -0.0463  0.1076  0.3373
20396W        W36530   7.004   6.444   3.000 -0.1631 -0.1257 -0.3915
20397W        W36531   1.832  15.026  14.593  0.0300 -0.0631 -0.2712
20398W        W36532  15.754   5.171   3.007  0.0068 -0.2318 -0.0302
20399W        W36533   4.030   6.765  10.819  0.1291  0.0865  0.1019
20400W        W36534  14.340   6.760  15.539  0.0825 -0.0540 -0.1052
20401W        W36535  12.696   3.456  14.364  0.1015  0.1378 -0.2306
20402W        W36536  10.892  13.671   5.764 -0.0387  0.0877 -0.2554
20403W        W36537   9.733   4.964   5.186  0.0659  0.2399 -0.3900
20404W        W36538   0.281  17.265  13.564 -0.0280  0.3152 -0.0754
20405W        W36539   3.988   2.161  11.708  0.1479  0.0379  0.0766
20406W        W36540  16.735  10.847   4.881  0.0867 -0.0912 -0.1131
20407W        W36541   8.907  10.656  15.275 -0.2655  0.1718  0.0976
20408W        W36542   9.680   8.103   5.145 -0.0859  0.1415  0.0021
20409W        W36543   8.275  15.492  12.877 -0.2543  0.0080 -0.1361
20410W        W36544  13.378   8.358   1.268 -0.0228 -0.1287  0.0505
20411W        W36545   5.761   0.078  12.195 -0.0452  0.0649 -0.0792
20412W        W36546  15.166   6.564  15.962 -0.3490 -0.1861  0.0591
20413W        W36547   3.941   9.775  14.467  0.0530 -0.1278 -0.0256
20414W        W36548  14.686   7.200  11.704  0.2041 -0.0515  0.1090
20415W        W36549  15.150  10.510   4.076 -0.2241 -0.0447 -0.1054
20416W        W36550   0.041   4.224  16.914  0.3414  0.2156  0.1981
20417W        W36551   9.717  11.435   1.520  0.0436 -0.2537 -0.0430
20418W        W36552   0.794   6.963   5.343  0.2661  0.0366 -0.0582
20419W        W36553   0.530  15.889  15.272  0.0999 -0.1044 -0.0237
20420W        W36554   2.652   2.360  16.114  0.2615  0.0170 -0.0034
20421W        W36555   5.642   5.788   4.848 -0.0479 -0.1895  0.3708
20422W        W36556  14.266  11.398   4.599 -0.2056 -0.2008  0.1520
20423W        W36557  11.333   4.508   1.168  0.1918  0.1457  0.0126
20424W        W36558  10.230   0.477  12.442  0.0917  0.5325  0.3165
20425W        W36559   0.049  16.617  15.455 -0.4275  0.0871  0.5336
20426W        W36560   5.592  14.275  11.898  0.1648  0.1453  0.1803
20427W        W36561  10.923   3.121   4.911  0.2061  0.1497 -0.4887
20428W        W36562  16.842   0.563  14.796  0.1267 -0.0653  0.0158
20429W        W36563  16.313  16.582   4.930  0.2984  0.1631 -0.0166
20430W        W36564  14.420  14.192  15.334 -0.1847 -0.2018 -0.2433
20431W        W36565   5.668   2.178  13.062  0.1590  0.2228  0.0597
20432W        W36566   9.541  10.331   5.815 -0.2079  0.3576 -0.2212
20433W        W36567   7.908  12.615  13.015  0.0341 -0.0408 -0.1092
20434W        W36568   8.380  14.902  13.035  0.0960  0.0443  0.0626
20435W        W36569   4.640   5.168   3.764  0.2368 -0.0005  0.1272
20436W        W36570  17.152   8.247   1.183  0.1197 -0.1576  0.0761
20437W        W36571   3.152   4.571   0.301  0.2034  0.0633 -0.1609
20438W        W36572   9.508  15.355   4.606  0.0963  0.0951 -0.1844
20439W        W36573   8.925  11.791  15.836  0.0951 -0.2305 -0.0672
20440W        W36574   3.460  11.440  15.981  0.1175 -0.0212 -0.3751
20441W        W36575  13.427  14.574   2.949  0.1589  0.2856  0.0630
20442W        W36576   0.856  16.499  13.145  0.0744 -0.0400 -0.1625
20443W        W36577  12.023   3.653   2.710 -0.0883  0.4163  0.1955
20444W        W36578   9.896  15.456  16.735 -0.2407  0.1236 -0.2313
20445W        W36579  11.737   6.611   0.915 -0.1162 -0.4738 -0.0657
20446W        W36580   7.207   8.735   3.170 -0.2423 -0.1013  0.2207
20447W        W36581  17.635  13.626  15.670 -0.0871  0.1887  0.1944
20448W        W36582   3.368   7.546  13.288  0.1932  0.2886  0.0923
20449W        W36583  12.583  14.796   5.725  0.0540  0.2209  0.2359
20450W        W36584   3.408  15.496   4.991  0.0237  0.0710 -0.0967
20451W        W36585  10.891   7.165   1.729  0.2399 -0.0899 -0.0062
20452W        W36586   9.560   4.593  15.464 -0.1712  0.0015 -0.1736
20453W        W36587   1.389  10.213   2.973  0.2984  0.3047  0.0602
20454W        W36588   5.066   4.308   1.959  0.0377 -0.1026 -0.1433
20455W        W36589   1.774  16.800  12.887 -0.1147 -0.0113 -0.0273
20456W        W36590   2.759   6.454  15.035 -0.1841 -0.1103 -0.3456
20457W        W36591   6.548   0.583   4.738 -0.2594  0.1628  0.1927
20458W        W36592  10.399  14.611   0.454  0.2997  0.0046  0.1295
20459W        W36593   0.723  17.348  14.443  0.4376 -0.1705  0.0413
20460W        W36594  15.730  17.344   5.470 -0.0442 -0.0756  0.1398
20461W        W36595   7.722  10.904  15.881  0.0859 -0.1771  0.2928
20462W        W36596   5.663   6.330  15.358 -0.0942 -0.2326  0.0153
20463W        W36597  10.772   7.773   4.486 -0.0114 -0.1335 -0.0040
20464W        W36598   6.147   7.842   2.415 -0.1449 -0.0843 -0.2227
20465W        W36599  11.451   0.397  14.878 -0.2003  0.1073 -0.0405
20466W        W36600  17.014   3.238   4.037 -0.1666  0.1264  0.2320
20467W        W36601  11.766  13.646  16.836 -0.2085 -0.2186 -0.0444
20468W        W36602  13.629  16.330  16.310 -0.0281 -0.3017  0.0081
20469W        W36603  11.706   9.952  16.436  0.3219  0.3064 -0.1124
20470W        W36604   6.823  10.217   1.584  0.1929  0.1337 -0.0487
20471W        W36605   5.388  10.679   2.330  0.2046  0.0439  0.0812
20472W        W36606  17.436  13.530  15.184  0.1722  0.0524  0.5911
20473W        W36607   9.249  14.037   1.241 -0.0018  0.1541 -0.0949
20474W        W36608  13.352  15.325   0.072  0.0629  0.0168  0.0138
20475W        W36609   2.119   4.073  14.643 -0.1563 -0.1909 -0.1567
20476W        W36610   5.363  17.018   1.768  0.0967 -0.1063  0.2560
20477W        W36611   3.725   0.660   6.138 -0.2239  0.0716  0.1145
20478W        W36612  16.168   8.825  14.000  0.0892  0.1665 -0.2921
20479W        W36613  11.931  17.168   1.829  0.0659 -0.0597  0.1991
20480W        W36614   9.704  13.208  12.837 -0.0603 -0.1994  0.0509
20481W        W36615   2.138   6.711  14.284  0.0186  0.2029  0.0396
20482W        W36616   1.068   2.985   1.215 -0.0978  0.2552  0.0028
20483W        W36617  17.510  16.432  13.302 -0.1233 -0.3532 -0.0965
20484W        W36618   3.936  10.848  16.847 -0.2067  0.0784 -0.1052
20485W        W36619  12.988   5.600   1.963 -0.1827  0.0108 -0.1359
20486W        W36620   0.057   9.271   2.847 -0.1386  0.1239  0.0201
20487W        W36621  15.919   3.825   2.231  0.2442 -0.2299  0.0197
20488W        W36622  12.645  12.089  11.987  0.0446 -0.0592  0.1037
20489W        W36623  10.699  17.538   1.943  0.2099 -0.0014 -0.3977
20490W        W36624   4.814   5.802  14.328  0.1738  0.3095  0.4078
20491W        W36625  17.503   6.840   0.024  0.1272 -0.1368 -0.0304
20492W        W36626   2.609  13.410   6.263  0.0262  0.4248 -0.2017
20493W        W36627   1.037   2.601  15.434 -0.1274 -0.2416 -0.3109
20494W        W36628  12.626   6.296   4.995  0.2349  0.0574  0.2589
20495W        W36629  12.782   1.252   2.798 -0.2391  0.2017 -0.1783
20496W        W36630   1.144   7.029  11.833  0.0014 -0.1235 -0.1135
20497W        W36631  16.700  11.227   1.390  0.0634 -0.1750  0.4321
20498W        W36632  16.378   2.103  14.937  0.1665  0.2498 -0.2880
20499W        W36633  17.328  12.898  14.490 -0.0272  0.0708 -0.1024
20500W        W36634  15.345   6.085   2.699 -0.0513 -0.0860 -0.2033
20501W        W36635  14.576   1.812  16.844  0.2348 -0.2650 -0.0858
20502W        W36636   8.088   7.043  13.128  0.2468 -0.0173  0.4205
20503W        W36637  14.742  17.341   4.215 -0.0790 -0.1658 -0.2406
20504W        W36638  12.117  14.919   3.098 -0.1187  0.1124  0.0546
20505W        W36639   5.809  16.341   5.545  0.1166  0.1613 -0.2830
20506W        W36640  12.697  12.294  12.912 -0.0977  0.0188  0.2969
20507W        W36641  10.205   3.448  14.997  0.0549 -0.0109  0.0153
20508W        W36642  10.078  16.074  12.393  0.0739  0.0462  0.0624
20509W        W36643   7.215  11.444  13.678  0.1125 -0.0705 -0.1638
20510W        W36644   4.662  15.559  15.175  0.3353  0.0694  0.1151
20511W        W36645  15.967   5.406   0.946 -0.0730  0.2613 -0.0130
20512W        W36646   4.448   8.429   3.034  0.0245 -0.1615  0.1295
20513W        W36647   7.919   6.295  15.781 -0.0119  0.0040 -0.0175
20514W        W36648   9.768   0.662  14.096  0.1200  0.0200  0.0113
20515W        W36649  16.379   9.811   2.490 -0.1660 -0.0485  0.2532
20516W        W36650  10.513  12.845  14.216 -0.1009  0.0966  0.2382
20517W        W36651   1.035   5.048   5.474 -0.1898 -0.0984  0.0649
20518W        W36652   5.439   4.527  15.832 -0.1417 -0.3438 -0.1126
20519W        W36653  16.089  12.160  15.749  0.1316  0.2000 -0.2944
20520W        W36654   2.529  13.740  13.822 -0.2232 -0.3472  0.1496
20521W        W36655  12.882   1.923   0.168 -0.1991 -0.1213  0.1659
20522W        W36656  11.583  16.065  13.860  0.0779  0.0409 -0.0400
20523W        W36657   4.221  10.339  12.230 -0.2428 -0.0500  0.1008
20524W        W36658  14.178   7.947   3.520  0.2772  0.1140  0.0732
20525W        W36659   1.422   9.597  15.867  0.1641 -0.3921  0.1093
20526W        W36660  16.575  10.331   5.140  0.1580 -0.2874  0.2238
20527W        W36661   8.428  11.771   3.756  0.2559  0.0993  0.1002
20528W        W36662  15.068   2.367   2.710  0.0268  0.0336  0.0840
20529W        W36663  12.884   7.806   3.751  0.3339  0.2842 -0.4584
20530W        W36664  13.182  16.133  14.293  0.3215 -0.0873 -0.0120
20531W        W36665   6.074   0.773  13.048  0.0930  0.1698  0.0841
20532W        W36666   5.601   0.977  15.088 -0.2153 -0.0191 -0.0903
20533W        W36667   4.705  11.742   2.142 -0.0391 -0.0365  0.1744
20534W        W36668   8.456   5.748   3.656 -0.0739  0.0298 -0.3311
20535W        W36669   0.195  15.534  12.210 -0.1129  0.3288  0.1951
20536W        W36670   0.312   9.853  17.142 -0.2524 -0.0120 -0.1041
20537W        W36671  16.692  14.189  14.821 -0.4027 -0.3897 -0.0161
20538W        W36672  10.638   0.615  11.988 -0.0783 -0.1572  0.0643
20539W        W36673  17.031   9.771  16.952 -0.0520 -0.0626 -0.0492
20540W        W36674   3.243   5.894   5.620 -0.1478 -0.1069 -0.6058
20541W        W36675  13.649   9.670   1.514 -0.0987 -0.0333  0.0613
20542W        W36676  10.591   9.902  12.438  0.0839  0.1798  0.3928
20543W        W36677  16.227  17.192   2.288 -0.0010 -0.1625  0.1271
20544W        W36678   5.826   6.700   5.416 -0.2382  0.1326  0.1187
20545W        W36679   0.736   0.267  14.391 -0.1660 -0.0399 -0.1830
20546W        W36680  13.508   3.146   3.510  0.3352 -0.1633  0.0229
20547W        W36681   8.520   0.055   2.739 -0.1057 -0.3266  0.0217
20548W        W36682   3.154  10.491  16.389 -0.2593 -0.0563  0.0567
20549W        W36683   7.575  16.798   4.259 -0.0052 -0.1713 -0.0190
20550W        W36684   7.426  11.623   2.534  0.1460 -0.3176  0.1305
20551W        W36685   3.212   4.918  16.351 -0.0284 -0.0966  0.0827
20552W        W36686   8.135   5.718  15.319 -0.1297 -0.3611  0.0946
20553W        W36687  14.805   5.117   3.940  0.0185 -0.0504  0.2138
20554W        W36688  16.189  16.165  11.706  0.0578  0.2523  0.1369
20555W        W36689  16.150  12.094  11.207 -0.0832  0.0773  0.0882
20556W        W36690   9.959  10.597   3.916  0.0849 -0.2843 -0.0686
20557W        W36691   9.386  17.191  11.455 -0.1877 -0.1691  0.1099
20558W        W36692  17.135   7.759   5.378  0.1158 -0.1756  0.1274
20559W        W36693  11.219   1.426  12.054  0.0230 -0.0634 -0.0975
20560W        W36694   3.178  13.311   4.122  0.3212 -0.0143 -0.1174
20561W        W36695   3.626   9.168   3.155  0.0931 -0.2146 -0.2315
20562W        W36696  13.149   6.972  17.109 -0.1940  0.2603 -0.0787
20563W        W36697   7.208  17.416  12.328  0.0685  0.3677  0.2196
20564W        W36698   6.372   5.230   1.693  0.0858 -0.3836  0.1416
20565W        W36699  14.409  11.030   1.423  0.1037 -0.0096 -0.2326
20566W        W36700   1.268  10.817   5.675 -0.1154  0.0850 -0.1491
20567W        W36701  17.121  15.568   2.122 -0.1951  0.0222 -0.0081
20568W        W36702  11.348   7.510  15.345  0.0633 -0.0618 -0.0923
20569W        W36703  10.815  14.094  16.651 -0.0268  0.0991  0.1377
20570W        W36704   1.744   8.171  16.361  0.0806  0.0318 -0.0224
20571W        W36705  10.016   6.334  11.728 -0.1104  0.1843  0.1227
20572W        W36706   6.359   5.532   6.239  0.0631 -0.1265  0.0122
20573W        W36707   4.079   9.146  10.694 -0.3755 -0.0632 -0.0345
20574W        W36708   6.313   8.273   4.162 -0.2652  0.0323  0.1749
20575W        W36709   7.903   9.673   3.272 -0.2122 -0.0043  0.0327
20576W        W36710   0.697   0.126   3.117  0.1942 -0.0353 -0.0033
20577W        W36711  11.011  12.302  14.977  0.1352  0.1292 -0.2930
20578W        W36712  12.781  15.501   0.898 -0.1484 -0.2422 -0.1671
20579W        W36713   7.546  14.605  15.706  0.1588 -0.1391 -0.0500
20580W        W36714  13.204  14.079   1.247 -0.1528 -0.0010 -0.0894
20581W        W36715   8.765  12.117  12.728  0.2210 -0.0441 -0.2038
20582W        W36716  11.333  17.524   3.907 -0.1556 -0.1559  0.0109
20583W        W36717   9.634   1.326   2.566 -0.0599  0.3242 -0.1313
20584W        W36718   3.546   9.261   4.380 -0.1270  0.0355 -0.0403
20585W        W36719  14.944   2.704  16.724 -0.0150 -0.1578 -0.1381
20586W        W36720   8.679  11.047   1.443  0.1858 -0.2317  0.1052
20587W        W36721  15.124  16.594   3.476  0.0186 -0.0622  0.0593
20588W        W36722  17.255  12.969  15.858 -0.3020 -0.4729 -0.1450
20589W        W36723  14.456  11.968   5.360 -0.0312 -0.0227  0.0945
20590W        W36724   0.880   0.055   2.210  0.2188  0.1407  0.1658
20591W        W36725   4.586   1.309  14.989 -0.3499  0.0497 -0.0720
20592W        W36726   3.700  14.064   0.473 -0.3967  0.2716 -0.1353
20593W        W36727  14.485   8.313  12.535 -0.1123 -0.1426  0.0306
20594W        W36728  16.939  12.833   2.134 -0.2429  0.1707  0.0398
20595W        W36729   1.775   2.443  13.850  0.1703  0.0738  0.1986
20596W        W36730   3.560  14.526   2.389  0.1359  0.0228  0.0653
20597W        W36731   7.698   3.964   1.000 -0.1010 -0.0033  0.1994
20598W        W36732   6.112   9.472   2.609 -0.1096 -0.1555 -0.0521
20599W        W36733  13.714   1.435   5.692  0.0005  0.2973  0.2872
20600W        W36734   2.576   4.175   3.645  0.1837  0.2070 -0.0292
20601W        W36735   9.376   9.393   1.060  0.1937  0.2822  0.4694
20602W        W36736   4.238   9.809  13.553  0.2567 -0.4051  0.2521
20603W        W36737  12.490   4.995   4.699 -0.5819  0.2007  0.1047
20604W        W36738   4.935   6.952  12.163  0.2519  0.0836  0.0803
20605W        W36739   3.958   4.878  16.282  0.2483 -0.1129 -0.0496
20606W        W36740   0.230   8.641  14.934  0.1526 -0.1694 -0.1103
20607W        W36741   5.193  10.735  16.661  0.0406  0.3533 -0.1250
20608W        W36742  14.873  16.823  16.863 -0.0613 -0.2642 -0.2333
20609W        W36743   5.465   6.382   4.155  0.1894 -0.2661  0.2718
20610W        W36744  11.605  11.376   1.088  0.0254 -0.1006 -0.1789
20611W        W36745  15.467  14.631   2.368 -0.0609 -0.5117  0.3043
20612W        W36746  16.558  15.685   0.056 -0.0110  0.0024 -0.1603
20613W        W36747  12.733  13.738   2.850 -0.0777 -0.2567 -0.1458
20614W        W36748   2.043   0.190  13.828  0.2182  0.1393 -0.1219
20615W        W36749   9.999   3.452  12.454 -0.0276 -0.0962 -0.0989
20616W        W36750   3.035   5.136  14.785 -0.0444 -0.2359 -0.0854
20617W        W36751  15.423   3.906  13.035 -0.2061 -0.1371  0.1212
20618W        W36752  14.085  15.503  13.144  0.2348  0.5246  0.0175
20619W        W36753  16.332  11.618   1.668 -0.1793 -0.2531 -0.0712
20620W        W36754   2.270   3.761   3.535 -0.1105 -0.2196  0.0066
20621W        W36755  13.360   5.259   3.574 -0.1821 -0.0129  0.0831
20622W        W36756  11.341  11.198  13.178 -0.0090 -0.2461 -0.1828
20623W        W36757   5.914  16.152  13.808 -0.0274  0.1848  0.0028
20624W        W36758   9.480  15.293   4.071  0.2018  0.3168  0.0568
20625W        W36759  14.716   1.010   1.496  0.2736  0.0628 -0.1044
20626W        W36760   2.494  13.719   3.582  0.2323 -0.1638 -0.2059
20627W        W36761   3.304   3.744  12.768 -0.0331  0.1119  0.3325
20628W        W36762   8.216   7.495  15.670 -0.3017 -0.1019 -0.0892
20629W        W36763   5.317   5.413   2.701 -0.0554  0.0540  0.3259
20630W        W36764   1.519   5.504   2.910  0.0113 -0.2182 -0.0833
20631W        W36765  11.999   2.632  12.448  0.1332  0.0330 -0.2021
20632W        W36766   5.268   9.492  11.882  0.0934 -0.2542  0.0379
20633W        W36767   1.223  15.141   3.321 -0.0310  0.1641 -0.3678
20634W        W36768  10.100  17.117   5.074  0.0196  0.1027  0.0943
20635W        W36769  12.842  13.617   3.402  0.4159 -0.1623  0.5102
20636W        W36770   1.536  10.588   4.790 -0.2145  0.1983 -0.1175
20637W        W36771  10.982   7.816  15.739  0.0745 -0.0905  0.0023
20638W        W36772   9.904  14.937  13.294  0.2098 -0.2280  0.0220
20639W        W36773   0.517  11.844   2.795  0.0605  0.0159  0.2489
20640W        W36774   6.452   3.403  14.781 -0.0880  0.0334  0.1448
20641W        W36775  10.488   9.309   1.586  0.0252  0.0317 -0.0190
20642W        W36776   9.169   0.244  11.675 -0.1840 -0.3760  0.0404
20643W        W36777  11.754   8.407  15.554  0.1213  0.0498  0.1553
20644W        W36778  12.133   4.138  14.295  0.2175 -0.0537 -0.0473
20645W        W36779   3.236   2.569  17.017 -0.2355  0.1723  0.3019
20646W        W36780   2.515   4.992   1.715 -0.0515 -0.1411 -0.0209
20647W        W36781   4.484  15.129   3.110 -0.1429 -0.0622 -0.3168
20648W        W36782   3.698   8.954  16.562  0.1749  0.0609  0.1106
20649W        W36783  14.857   3.376   5.219 -0.0227 -0.3748  0.0181
20650W        W36784   5.415   7.900  12.823 -0.2314 -0.0878  0.1959
20651W        W36785  10.764  14.489   0.000  0.2628  0.1178  0.2108
20652W        W36786   7.775  14.505  12.803 -0.0794  0.0767 -0.0615
20653W        W36787  12.416  13.244   3.550  0.0137  0.2383  0.2800
20654W        W36788   4.249   5.766   0.847  0.1523 -0.1764 -0.0768
20655W        W36789   0.141  12.785   1.225 -0.2339  0.2555 -0.0825
20656W        W36790  10.875  16.931  12.491 -0.0323 -0.0679  0.1456
20657W        W36791  11.140   7.378   5.548  0.5824  0.2182  0.2774
20658W        W36792  16.880   2.488   5.667 -0.1099 -0.0459 -0.0762
20659W        W36793  13.490  14.292  13.136  0.0339 -0.2757 -0.1498
20660W        W36794  16.128   7.785   5.176 -0.0092  0.0161 -0.2890
20661W        W36795   5.368   9.650   4.515  0.0150 -0.3720  0.1010
20662W        W36796   1.584   1.565   0.930 -0.0097 -0.0760 -0.1173
20663W        W36797   1.657   7.653  14.793 -0.2091  0.0704  0.0673
20664W        W36798  14.602   6.750  12.605 -0.0342  0.1004 -0.1456
20665W        W36799   8.455   7.411   1.189 -0.0780 -0.1609  0.3840
20666W        W36800  17.288  13.291   4.015  0.4484 -0.0470  0.0567
20667W        W36801   7.492  16.622  13.643  0.0945  0.3074  0.0155
20668W        W36802  10.130  15.155  12.310  0.3847  0.0964  0.2724
20669W        W36803   0.158   5.650   1.438  0.2867 -0.0735  0.1872
20670W        W36804  14.607   2.983   6.216 -0.0002  0.2476  0.2190
20671W        W36805   6.375   0.101  14.218  0.0337 -0.1874 -0.1474
20672W        W36806   0.616   8.600  16.390  0.1859  0.0688  0.0197
20673W        W36807  11.038   9.993  16.967 -0.2540 -0.0004 -0.0127
20674W        W36808   2.642  13.088  13.057  0.2129 -0.1244  0.4149
20675W        W36809  15.290   4.485  14.809 -0.3568 -0.0768  0.1860
20676W        W36810   5.295   0.587  14.685 -0.0083  0.2229  0.3135
20677W        W36811   0.979   0.740  17.107 -0.1172 -0.1871 -0.1860
20678W        W36812   4.667   5.254   1.328  0.3248 -0.2454 -0.0120
20679W        W36813   9.279  17.333  13.205 -0.1474  0.2862  0.0946
20680W        W36814  15.237   1.626   3.860  0.3051  0.0772 -0.1214
20681W        W36815   2.087  11.535   4.765 -0.0540  0.2406  0.0528
20682W        W36816  13.742  13.618   3.133  0.0229  0.1155  0.0448
20683W        W36817  11.654   9.195   0.648 -0.0196 -0.0017  0.2157
20684W        W36818   6.103  17.549   4.881  0.0494  0.0325  0.1837
20685W        W36819   9.015   5.427  15.069  0.0659 -0.1579 -0.4295
20686W        W36820  12.221   8.824   4.870 -0.2810 -0.1264 -0.1089
20687W        W36821   4.443  15.828  12.215 -0.0629 -0.2646  0.1742
20688W        W36822  13.599   9.091   2.768 -0.1479 -0.2445 -0.0793
20689W        W36823   5.518   2.080   6.739 -0.0965 -0.1183  0.3167
20690W        W36824   1.696   0.681   4.936 -0.0623  0.1241  0.1970
20691W        W36825   5.915   0.297  16.575  0.2248 -0.1032 -0.1847
20692W        W36826  17.122   5.622  14.977 -0.1271 -0.0659 -0.2408
20693W        W36827   2.681   9.391   2.764  0.1478 -0.2917 -0.0647
20694W        W36828   1.492   7.627   1.844  0.1998  0.1642 -0.3065
20695W        W36829  15.743   3.951  16.131  0.1171  0.0529  0.1640
20696W        W36830   0.129  12.762  15.921  0.1075  0.1134  0.1185
20697W        W36831  15.472   3.128  14.668  0.1224  0.1834 -0.1579
20698W        W36832  17.347  11.833   1.736 -0.1799  0.1641  0.0005
20699W        W36833  16.728   6.095  12.674  0.0823  0.1173 -0.0859
20700W        W36834   8.756  10.689   2.865 -0.2620 -0.0029 -0.1522
20701W        W36835   1.969  14.230  11.681  0.2496  0.2007 -0.0369
20702W        W36836   7.873  11.796   3.636  0.1486  0.1808 -0.0567
20703W        W36837  15.968   2.227  12.499  0.2032  0.0230  0.1549
20704W        W36838  13.590  16.615   3.778 -0.1904 -0.1073  0.2659
20705W        W36839   1.901  12.306   3.849 -0.1271 -0.1297 -0.0881
20706W        W36840   0.121   7.664   2.563 -0.0050  0.1265  0.0017
20707W        W36841  14.901   6.823  12.016 -0.0139 -0.0299 -0.1426
20708W        W36842  10.653  16.748  16.973  0.0669  0.1815 -0.1554
20709W        W36843   8.660   6.924  14.995 -0.0261  0.0865 -0.2108
20710W        W36844   8.418   1.282   3.238  0.0383 -0.1356 -0.4144
20711W        W36845   4.045   6.377  16.654  0.1516  0.1775 -0.0528
20712W        W36846  11.315  11.732  12.361 -0.2022 -0.1972 -0.1097
20713W        W36847   2.304   2.277   1.137 -0.2337  0.2562 -0.1790
20714W        W36848   6.517   9.176  14.531  0.2846  0.0331 -0.0986
20715W        W36849  15.164   3.456   1.076 -0.1539 -0.0860  0.0416
20716W        W36850  16.738  15.530  11.555  0.0936  0.2183  0.1797
20717W        W36851  17.215   2.192   1.769 -0.0192 -0.0445  0.3658
20718W        W36852   8.127  11.176  16.001  0.3582 -0.0607  0.1557
20719W        W36853  10.496   3.705  15.424  0.2828 -0.0786 -0.1252
20720W        W36854   3.817   0.193  12.513  0.0282  0.0243  0.1539
20721W        W36855   5.728   9.480   2.257 -0.1697  0.0190 -0.0432
20722W        W36856   0.683   3.781   4.424  0.0668  0.0579  0.1083
20723W        W36857   3.100   3.766   2.947  0.0371  0.1344 -0.4368
20724W        W36858   9.815  12.828  13.617  0.6351 -0.0811 -0.1466
20725W        W36859   7.195   9.503  15.949  0.2704 -0.0122  0.1361
20726W        W36860  11.917   2.866  16.975  0.3214 -0.0800 -0.0904
20727W        W36861   6.240   4.661   3.089 -0.1690  0.2322  0.1173
20728W        W36862   4.629  13.429   5.138 -0.3125  0.2138 -0.0666
20729W        W36863   2.576  11.994   5.837  0.2816  0.1594 -0.1177
20730W        W36864   3.994   5.607   0.137  0.0293  0.0627  0.0778
20731W        W36865   3.113  14.334   0.818 -0.0895  0.0463 -0.2401
20732W        W36866   7.936   1.514  16.826 -0.1050  0.3817  0.0752
20733W        W36867   9.402  17.218   4.305 -0.1325 -0.0324 -0.0552
20734W        W36868  13.918  15.966   5.345 -0.0732 -0.0375 -0.0092
20735W        W36869   4.824   1.049   5.447  0.0504  0.1903  0.1316
20736W        W36870  14.082   9.160  13.589 -0.0676  0.1501  0.0298
20737W        W36871   0.300   7.174  12.045  0.2532 -0.0963 -0.5049
20738W        W36872   6.305   7.471  15.417 -0.1864 -0.0521 -0.5883
20739W        W36873   6.415  14.947  14.222 -0.0744 -0.1189 -0.1296
20740W        W36874   4.278  13.615   4.746 -0.0569 -0.2624  0.1160
20741W        W36875  11.052  14.870  16.622  0.0178  0.2027 -0.1498
20742W        W36876  16.447  17.298   1.788 -0.0683 -0.0225  0.1873
20743W        W36877  15.596  16.774  16.117 -0.0050 -0.1009  0.0191
20744W        W36878  12.816   1.832  16.457  0.5784 -0.2647 -0.0733
20745W        W36879   1.048  14.911   5.349 -0.3492 -0.2128  0.1509
20746W        W36880  11.322  15.739  15.764 -0.2510 -0.3045  0.0208
20747W        W36881  11.163   5.790   0.275  0.0038 -0.0228  0.1400
20748W        W36882  10.078  16.614  12.603  0.0298 -0.2796 -0.2186
20749W        W36883  14.576   4.962  12.973  0.4366 -0.1274 -0.0318
20750W        W36884   8.167   6.053  14.941 -0.0484 -0.1202  0.1136
20751W        W36885   9.784   2.739  12.189 -0.0619  0.1858  0.1935
20752W        W36886   6.333  15.532   4.986 -0.2176  0.2014 -0.3806
20753W        W36887   4.587   0.934  13.401 -0.0233 -0.0205 -0.1901
20754W        W36888  12.188  15.978   2.465 -0.0468 -0.2254  0.1698
20755W        W36889   6.619   5.813  15.893 -0.0161 -0.0791 -0.1419
20756W        W36890   5.290   2.357   7.173  0.0989 -0.0628  0.2357
20757W        W36891  16.044  14.372  14.538 -0.0513 -0.2447  0.0358
20758W        W36892  10.059  10.022  12.192 -0.1818 -0.0923 -0.0006
20759W        W36893   4.954   8.717  11.655  0.1675 -0.2786  0.2115
20760W        W36894  14.116   3.638   3.459 -0.1789 -0.2648  0.0755
20761W        W36895   9.506   3.266   4.720 -0.1014 -0.4014 -0.2199
20762W        W36896   7.593   3.362  12.269  0.0201  0.1675  0.0111
20763W        W36897  17.008  15.319  17.109 -0.2212 -0.0098  0.0733
20764W        W36898   0.007   2.855   5.754  0.0212  0.3954  0.0139
20765W        W36899   5.610   0.895  12.379  0.0777  0.0423 -0.1175
20766W        W36900   8.263   6.668  14.802  0.1153  0.1362  0.0008
20767W        W36901   9.938  17.441   0.232 -0.1104  0.3162  0.3280
20768W        W36902  14.953  10.238  13.576 -0.2511  0.0518  0.2945
20769W        W36903   9.104  15.172   5.102 -0.2535  0.0479  0.0634
20770W        W36904  16.059   1.026   3.614 -0.0490  0.0708  0.1514
20771W        W36905  10.842  10.397  14.313  0.2150  0.0082  0.1380
20772W        W36906  11.594   6.668   5.462  0.0440  0.1379 -0.0995
20773W        W36907   9.802  14.161  16.695 -0.0924 -0.0732 -0.1372
20774W        W36908  12.078   1.829   5.083 -0.0345 -0.3720 -0.1495
20775W        W36909  12.666  12.352  16.529  0.0092 -0.1356  0.0644
20776W        W36910  12.931  13.828  14.910  0.3066 -0.2521  0.3895
20777W        W36911  15.915  10.622   0.893  0.0588 -0.0792 -0.2265
20778W        W36912   1.784  17.224  15.512  0.2508 -0.1465 -0.1786
20779W        W36913  13.666   1.829   1.934  0.0019  0.1941 -0.1686
20780W        W36914  16.455   0.538  12.665  0.2632  0.1182  0.0840
20781W        W36915   7.936  16.830   4.640 -0.0398 -0.3327 -0.1904
20782W        W36916  12.788   3.338  13.209  0.0550 -0.1381 -0.0133
20783W        W36917  10.264   1.974   4.490  0.2406 -0.1194  0.1740
20784W        W36918  15.228   7.923   1.846 -0.0639  0.2264  0.0554
20785W        W36919  16.414  16.452  15.546 -0.0122 -0.4602  0.1361
20786W        W36920  15.977  16.508   2.912  0.0912 -0.0355  0.3607
20787W        W36921  11.264   5.511  17.059 -0.1577  0.1794 -0.2390
20788W        W36922  11.501   4.273   5.091 -0.2057  0.0740 -0.2358
20789W        W36923   3.783   9.803   0.690  0.0406  0.0383  0.1521
20790W        W36924   1.896   0.082   2.227  0.0833 -0.2016 -0.1591
20791W        W36925   1.052  12.032  10.946  0.1763 -0.0357 -0.1241
20792W        W36926  16.606   5.031   5.102  0.0120 -0.0490 -0.1440
20793W        W36927   3.569   7.285  15.372  0.0796 -0.0793  0.0102
20794W        W36928  10.425   3.436   2.676 -0.0822 -0.0298 -0.0706
20795W        W36929  16.275   8.369  16.285 -0.1111 -0.1007  0.0835
20796W        W36930   6.564   8.228  13.268 -0.3025  0.1131 -0.0190
20797W        W36931   1.169  12.009   2.016  0.0000  0.0816 -0.1405
20798W        W36932   5.665   4.301  13.099 -0.0268 -0.0454  0.0013
20799W        W36933  11.350  13.863  16.654  0.2837 -0.2670  0.1654
20800W        W36934  10.492  11.286  13.602  0.2646  0.1523  0.0448
20801W        W36935  15.778   2.879   2.200  0.0076  0.1773 -0.2994
20802W        W36936   5.003  12.536  16.895 -0.2086  0.0622  0.0068
20803W        W36937   0.797   0.335  13.297 -0.0846  0.1527 -0.1285
20804W        W36938   4.737  16.455   2.705 -0.1095 -0.0823  0.2599
20805W        W36939  16.542   4.620   0.999 -0.1141 -0.3606  0.3260
20806W        W36940  17.394   6.509   0.326 -0.3243  0.2534 -0.1421
20807W        W36941  13.541   8.528  11.944 -0.0165  0.0041 -0.1845
20808W        W36942   8.061  16.521   1.903  0.0847 -0.0130 -0.0505
20809W        W36943   2.235   4.876   5.763  0.2938  0.2588 -0.3597
20810W        W36944  12.142   4.974  16.978 -0.0174 -0.1560 -0.0949
20811W        W36945  17.413  12.842   5.759  0.1233 -0.0143 -0.1132
20812W        W36946   8.440   4.932   4.788  0.0446 -0.1553  0.3325
20813W        W36947   4.595   2.411  15.270  0.0286 -0.0703 -0.0316
20814W        W36948   3.092  12.452   5.266  0.1129 -0.0021  0.0961
20815W        W36949   3.470  17.472   0.828 -0.0182 -0.0449  0.2035
20816W        W36950   0.213  14.701   4.105  0.0663  0.0019 -0.0898
20817W        W36951  13.954   4.913   0.097  0.1457 -0.1526  0.0579
20818W        W36952  16.476   7.445   0.848 -0.1071 -0.2051  0.0210
20819W        W36953  11.689  13.677  16.278  0.2245 -0.1390  0.0323
20820W        W36954   3.776   5.356  13.664 -0.2228 -0.2995 -0.0456
20821W        W36955  15.988   9.784   2.029 -0.2791  0.0233  0.1456
20822W        W36956  10.118  17.451  12.290 -0.0578 -0.1173 -0.0377
20823W        W36957   2.303  13.199   3.670 -0.0414  0.1216 -0.0774
20824W        W36958   0.562   2.699  11.910 -0.2201  0.1443 -0.3517
20825W        W36959  16.625   4.346  14.514  0.2363  0.3335 -0.1153
20826W        W36960   3.732  10.177  15.658  0.1257  0.0170 -0.2713
20827W        W36961  12.844  16.204  15.229  0.2080 -0.1447 -0.4291
20828W        W36962   7.799   8.315  16.006  0.1815  0.0960  0.1189
20829W        W36963  17.346  15.884   4.509  0.1554 -0.1872  0.1726
20830W        W36964   3.046  14.750   4.644  0.1552 -0.1370  0.1239
20831W        W36965   2.020  10.100  12.787 -0.0593 -0.1234 -0.0254
20832W        W36966  11.925  17.336   4.788 -0.0798 -0.2516 -0.2068
20833W        W36967   0.636  12.433  15.252 -0.0410  0.0987 -0.3338
20834W        W36968   0.890   2.944   2.769 -0.0673 -0.0423 -0.1133
20835W        W36969   2.061  11.691  13.952  0.3206 -0.1224  0.0176
20836W        W36970  17.663   5.289  12.746  0.1849  0.3582  0.0369
20837W        W36971   2.610   4.953   4.515 -0.0275  0.3310  0.2850
20838W        W36972  14.136  12.814  12.458  0.3937  0.0799 -0.0319
20839W        W36973   8.047   6.517  16.637 -0.2604  0.1988  0.2832
20840W        W36974   8.318   7.015  15.840 -0.0027 -0.1768 -0.2698
20841W        W36975   2.080  16.948   6.186  0.0431  0.1001 -0.0476
20842W        W36976   9.814   5.370   0.918 -0.0993  0.3622 -0.2459
20843W        W36977   2.488   6.370  13.736  0.2703  0.3425  0.2321
20844W        W36978  17.154   6.245  14.297 -0.1843  0.0472 -0.1236
20845W        W36979   3.644  13.893  12.180 -0.0317  0.0587 -0.0247
20846W        W36980  13.158   6.531   2.941  0.0204  0.3763 -0.1408
20847W        W36981   0.804  13.176   3.884  0.1041 -0.1849  0.1354
20848W        W36982   4.441  13.533  14.967 -0.0751  0.0568 -0.1576
20849W        W36983   5.193  13.190  15.510  0.1527 -0.3160 -0.2767
20850W        W36984  15.150  13.092  14.246 -0.3234 -0.1423 -0.1548
20851W        W36985  15.763   8.189   5.022  0.4079  0.2410  0.1003
20852W        W36986  11.216   8.385  15.922  0.1211 -0.3189 -0.1531
20853W        W36987   2.641   7.066   5.026  0.1205 -0.0830 -0.2560
20854W        W36988  13.397  13.911  15.029 -0.4130  0.1942  0.0734
20855W        W36989  16.170   6.985  17.138 -0.0422 -0.2577 -0.3021
20856W        W36990   7.050  13.650  15.340 -0.0110 -0.0246 -0.2044
20857W        W36991   1.856   7.992   3.671  0.3537 -0.2141  0.2847
20858W        W36992  11.564   6.059   0.448  0.1176  0.1230 -0.1496
20859W        W36993   8.891  13.559  16.950  0.2188 -0.1410 -0.0682
20860W        W36994   9.955   1.255   0.927  0.0784 -0.0225 -0.0978
20861W        W36995  11.583   9.100  16.506  0.1005 -0.0118  0.2892
20862W        W36996  16.643   4.113   1.775  0.1988  0.0954  0.1686
20863W        W36997   0.673  16.207   5.380  0.0076 -0.1241  0.2475
20864W        W36998   2.628  15.615   6.330  0.2566 -0.0311  0.1024
20865W        W36999   9.142   4.882   1.622  0.1273 -0.1069  0.0078
20866W        W37000   6.776  10.245  12.524 -0.1121  0.1987  0.2473
20867W        W37001   3.370  10.493  14.366  0.0947  0.1790  0.0433
20868W        W37002   2.912   4.434   1.793  0.3718  0.0161  0.1344
20869W        W37003  13.497  11.884   0.339  0.0392 -0.0541  0.0628
20870W        W37004   2.232   8.219  16.319 -0.1625  0.1333  0.1652
20871W        W37005   1.761   7.591  11.919  0.0652  0.1924  0.1735
20872W        W37006  10.229   0.632   5.656 -0.0612  0.0220 -0.1703
20873W        W37007   2.671   5.675  17.034  0.1932  0.1059  0.0024
20874W        W37008  12.076   5.704   2.518  0.2911  0.2803  0.4505
20875W        W37009   6.803   2.023  17.116  0.3488  0.3952  0.3122
20876W        W37010   8.313   2.410   4.301 -0.1306  0.1071 -0.4075
20877W        W37011   6.832   5.022  12.564  0.0973  0.2977 -0.1261
20878W        W37012   3.411  15.436  13.573 -0.2725  0.0151 -0.0323
20879W        W37013  12.565  15.634   1.778  0.2227  0.0573  0.0290
20880W        W37014   3.974   2.261   5.441  0.1378 -0.0287  0.0582
20881W        W37015  17.032   2.339  12.826  0.1887  0.3963  0.0252
20882W        W37016   8.952   6.184   2.746  0.0933 -0.1764 -0.1554
20883W        W37017  16.418  15.656   1.459 -0.1882 -0.0993  0.1572
20884W        W37018   7.248   7.354  11.490 -0.0453 -0.0586  0.0927
20885W        W37019   9.359   1.681  15.076 -0.0374  0.0640 -0.0949
20886W        W37020   0.918  16.312  15.263 -0.0855  0.1277 -0.0562
20887W        W37021  13.041  10.793  11.937  0.3283 -0.0518 -0.1505
20888W        W37022  17.218   6.632  11.932 -0.0488  0.3258 -0.2388
20889W        W37023  15.467   8.494   4.757 -0.2601 -0.2213  0.1276
20890W        W37024   4.431  15.361   0.782 -0.3299 -0.0356 -0.1385
20891W        W37025  12.422  10.394  13.227 -0.1222  0.0738 -0.3491
20892W        W37026   2.533  16.902  12.463  0.0465 -0.1356 -0.2693
20893W        W37027   2.371   0.388  15.654  0.0860 -0.1321  0.2868
20894W        W37028   5.500  14.996   2.143  0.0551  0.0868  0.0711
20895W        W37029  13.052   3.830   2.303  0.1603  0.1486  0.1747
20896W        W37030   0.046  11.112   0.590  0.0555 -0.1459  0.2210
20897W        W37031  12.059  16.715   5.563 -0.2855 -0.1345 -0.1529
20898W        W37032   2.743   0.889   5.287  0.0705  0.1841 -0.0785
20899W        W37033  13.562   2.851   4.751  0.1472  0.0619 -0.1997
20900W        W37034   6.569   1.060  13.283  0.0405  0.1093 -0.2112
20901W        W37035   9.548  12.835  12.560  0.1841 -0.2575 -0.0919
20902W        W37036  12.402  16.939  16.472  0.1447  0.2384  0.1279
20903W        W37037  12.674   4.884  13.482 -0.3903 -0.0108  0.0531
20904W        W37038  11.354   6.370   0.764 -0.0156  0.1391 -0.0478
20905W        W37039  10.332   5.976  16.912  0.1496 -0.0981  0.3539
20906W        W37040   6.273  13.308  15.326  0.1998  0.2127 -0.1548
20907W        W37041   8.968   4.953   5.541 -0.0562  0.0400 -0.0529
20908W        W37042  16.095  15.030   3.828  0.1360  0.1675 -0.0303
20909W        W37043  14.544  13.988   2.454 -0.1205 -0.1888 -0.1832
20910W        W37044   2.947  10.558  13.078 -0.2685 -0.0094 -0.1662
20911W        W37045  11.642   3.161   2.732  0.0669 -0.1745 -0.3782
20912W        W37046  12.517   4.707  12.226  0.1009 -0.0801 -0.0747
20913W        W37047  16.206  14.624   5.536 -0.1606  0.1423 -0.0216
20914W        W37048   4.056  12.944  13.379  0.0286 -0.1603 -0.0143
20915W        W37049   2.105  11.160  15.232  0.0698  0.0807  0.3748
20916W        W37050  12.046  15.304  15.829 -0.1253 -0.1190 -0.1305
20917W        W37051   6.252   5.459   3.611 -0.0707  0.0899  0.0246
20918W        W37052   5.882   1.929   1.139  0.1169  0.0705 -0.0922
20919W        W37053  15.089   5.735   4.101  0.4282  0.1105 -0.0520
20920W        W37054   8.680   3.982   0.966  0.1059  0.0978 -0.0642
20921W        W37055  10.632  13.263  16.832  0.1099 -0.2841  0.0770
20922W        W37056   8.090  11.910   0.955  0.0111 -0.0010  0.0013
20923W        W37057   8.790   2.598  16.582  0.1248 -0.0378 -0.1784
20924W        W37058  13.115  11.931   1.698 -0.3167  0.0449  0.1641
20925W        W37059  10.053   7.309   3.816 -0.3027  0.1189 -0.2595
20926W        W37060  14.504  12.956   0.523 -0.0749 -0.0928 -0.2059
20927W        W37061   3.663  14.961   5.016  0.0623 -0.2163  0.0723
20928W        W37062   6.550  11.394  11.855  0.1014  0.0951  0.2979
20929W        W37063  16.550   5.208  15.480 -0.1531  0.0650  0.1591
20930W        W37064  13.273  13.163   4.080 -0.0659  0.0853 -0.5557
20931W        W37065   5.762  17.322  15.415 -0.0336 -0.0244 -0.0920
20932W        W37066   4.573   0.177  13.086 -0.1310  0.1603  0.0042
20933W        W37067   1.355  14.235   3.099 -0.0449 -0.0083 -0.0364
20934W        W37068  13.136   2.681  15.634  0.1418  0.0913 -0.0673
20935W        W37069   1.451  17.254   1.582  0.1603 -0.1489 -0.1235
20936W        W37070  14.278  11.191  15.357 -0.0300 -0.2350  0.1655
20937W        W37071  15.735   9.025  16.311 -0.2741  0.2376 -0.2763
20938W        W37072  14.429   5.529   4.870  0.0268  0.1092 -0.0058
20939W        W37073  15.127  11.199  15.508 -0.0013  0.0076 -0.0199
20940W        W37074  14.538   6.439  11.724 -0.0628  0.1996  0.0887
20941W        W37075   2.230   5.722   0.034 -0.1579 -0.1726  0.0985
20942W        W37076   7.970   9.142  15.414  0.1663  0.0850  0.0506
20943W        W37077  11.459  16.411  12.198 -0.0671  0.3605  0.1654
20944W        W37078   8.691   5.793   2.644  0.2232  0.1982 -0.0797
20945W        W37079   9.269   1.526   1.476  0.0784  0.0327  0.2624
20946W        W37080   6.214  16.556  13.423  0.1268  0.0043 -0.3680
20947W        W37081  10.178   1.858   5.528  0.1603  0.0022 -0.2574
20948W        W37082  11.429   2.145  15.931 -0.2475 -0.1660  0.0510
20949W        W37083   7.003   9.261   3.897  0.1490  0.0655 -0.3177
20950W        W37084   3.257   9.022   3.478  0.1410  0.1611 -0.0560
20951W        W37085   2.892   5.818   4.794 -0.0417  0.2353 -0.2684
20952W        W37086   1.500  10.197  13.017  0.2983  0.2622 -0.0384
20953W        W37087   9.106   6.279   0.438 -0.0345 -0.1004 -0.1078
20954W        W37088   6.566  17.162  14.827  0.2770 -0.1076  0.2839
20955W        W37089  13.366   6.047  12.214  0.0434  0.2152  0.0245
20956W        W37090   4.695  10.459   5.281  0.1275 -0.0071  0.3258
20957W        W37091  12.831   5.111  12.173  0.0685 -0.3832 -0.0913
20958W        W37092   6.726  12.523  11.271 -0.4841  0.1818 -0.3990
20959W        W37093  15.185  13.383  15.242 -0.2339  0.1214 -0.0279
20960W        W37094   2.439   9.772   2.400  0.1348 -0.0392 -0.1430
20961W        W37095  10.762   2.329   2.013  0.4420  0.2565 -0.0228
20962W        W37096   6.270   5.026   2.679  0.1183 -0.0334  0.0288
20963W        W37097   1.654   6.855   5.050 -0.0024 -0.2104 -0.2542
20964W        W37098   2.508  10.784   3.081  0.0501  0.0547 -0.1915
20965W        W37099  14.167   7.941   1.809  0.0446 -0.2293 -0.3014
20966W        W37100   9.338  16.706  14.321  0.3921 -0.1154  0.1464
20967W        W37101  13.911   6.338   3.372 -0.2226  0.2433 -0.3328
20968W        W37102   9.768   8.602   5.374  0.2226  0.1224 -0.0638
20969W        W37103   0.261   1.810   2.545  0.2106 -0.0109 -0.1871
20970W        W37104   7.809   3.482   4.944 -0.0549 -0.0535 -0.0236
20971W        W37105   1.579  11.989  15.204  0.2575  0.1854  0.2843
20972W        W37106   5.370   5.997   5.186 -0.2923  0.1717  0.0349
20973W        W37107  16.617  13.351  16.441  0.1247 -0.0024 -0.0173
20974W        W37108   8.861   0.420   1.920 -0.3089 -0.1201  0.1074
20975W        W37109   0.796  17.377   0.158  0.0630 -0.0636  0.2030
20976W        W37110  13.549  14.070  12.274  0.1151  0.3646 -0.3107
20977W        W37111  12.093  15.240  12.646 -0.0659  0.0998  0.1325
20978W        W37112   5.762  10.297  14.434  0.0285 -0.2122  0.0043
20979W        W37113  16.595   8.139  13.193  0.0427 -0.1928  0.4032
20980W        W37114   3.832   2.186   3.927  0.0451 -0.0092  0.2073
20981W        W37115   5.937   8.056   0.430  0.3296 -0.1073 -0.1278
20982W        W37116   8.974   8.817  11.004  0.2128 -0.2239 -0.1572
20983W        W37117   3.391  14.870   1.841  0.2665  0.2030 -0.0154
20984W        W37118  15.302  16.297   2.328 -0.0960  0.0424 -0.1821
20985W        W37119  15.210  16.350  13.243  0.1518  0.0173  0.1241
20986W        W37120   8.269  10.033   3.857  0.3107  0.0337  0.0822
20987W        W37121   0.612   3.192   2.266  0.1232 -0.1398 -0.1117
20988W        W37122   0.738  13.453   5.248 -0.2624 -0.0977 -0.0404
20989W        W37123  10.326  13.313   3.555 -0.0561 -0.1925  0.4556
20990W        W37124   6.625   6.460   4.158 -0.1734  0.0680  0.0407
20991W        W37125   4.048  10.650  16.057  0.3798  0.0044  0.0049
20992W        W37126   3.828   7.886  15.007  0.0781 -0.0461  0.1097
20993W        W37127  15.424   5.924  15.226  0.4118  0.1205 -0.1358
20994W        W37128   6.714   3.728   4.015  0.1856  0.3398  0.0949
20995W        W37129   5.764  12.389   5.733 -0.1142 -0.3681 -0.0894
20996W        W37130   0.151   2.570   4.836  0.0980 -0.1370  0.1290
20997W        W37131   3.217   5.321  16.652 -0.0402  0.4470  0.0512
20998W        W37132  17.418  17.630  15.579 -0.0081 -0.0570 -0.0792
20999W        W37133  12.670   7.913   0.697 -0.0947 -0.1569 -0.0937
21000W        W37134  16.324   7.291   1.804 -0.3514 -0.3036  0.2074
21001W        W37135   3.100   2.868  12.494 -0.0156 -0.1524  0.1353
21002W        W37136  13.015   3.560   0.963 -0.4183 -0.0506  0.0889
21003W        W37137   5.229  10.774  16.063  0.2203 -0.3600 -0.1648
21004W        W37138   6.029   8.558   5.607 -0.0064 -0.3456  0.1386
21005W        W37139   1.404  16.364  16.809  0.3070  0.3057 -0.0300
21006W        W37140  12.254   0.702   0.721 -0.1277  0.1071  0.4107
21007W        W37141   8.537  17.419  14.080 -0.1513 -0.0950 -0.3222
21008W        W37142   3.494   0.563   1.044  0.1785  0.1730  0.0593
21009W        W37143  12.028  12.966   3.032 -0.0717  0.1223  0.1303
21010W        W37144   3.824   5.772   4.507 -0.0557 -0.3285 -0.0603
21011W        W37145   1.748   6.734   0.790 -0.1251  0.0651  0.2378
21012W        W37146   7.219   4.674   2.673  0.3790  0.0445 -0.0472
21013W        W37147   0.865   7.462   2.219 -0.1743  0.0281 -0.2615
21014W        W37148   2.873   0.464  14.397  0.2251 -0.2801  0.1513
21015W        W37149   2.394   2.678   0.864 -0.0233  0.0869  0.1293
21016W        W37150  15.847  16.908  12.267 -0.1754 -0.3122 -0.2312
21017W        W37151  13.605  16.707  15.872  0.1450  0.3729 -0.1752
21018W        W37152  10.322   3.835  16.314 -0.0533  0.1061  0.1685
21019W        W37153  15.728   5.074  13.229  0.1351  0.1221  0.1984
21020W        W37154   9.959  12.923   1.755 -0.0267 -0.2948  0.1613
21021W        W37155  10.198  11.234   4.552  0.1491 -0.1605 -0.2473
21022W        W37156   8.313  14.932   5.568  0.0561 -0.1718 -0.0627
21023W        W37157  13.469   8.728  13.143 -0.3872 -0.1697  0.2700
21024W        W37158   7.799  15.843  13.739 -0.0005 -0.0767  0.1012
21025W        W37159  12.424  11.678  16.793 -0.0735 -0.2301  0.1598
21026W        W37160   5.704   7.807  15.243 -0.0051  0.0321 -0.2113
21027W        W37161  14.565   5.572  16.639 -0.3114 -0.0117 -0.0290
21028W        W37162   2.408   2.572   4.404  0.1725  0.0240 -0.1277
21029W        W37163   3.567   4.540  15.584  0.1836 -0.0233 -0.2426
21030W        W37164  16.665  17.295   1.057  0.0832  0.0159  0.1905
21031W        W37165  10.423   8.865   1.352 -0.0238 -0.0774  0.0545
21032W        W37166   7.585   9.309   3.169 -0.0741 -0.0853 -0.0947
21033W        W37167   1.272  17.236   6.268 -0.1595 -0.0808  0.3248
21034W        W37168   9.491  16.875   2.388  0.3536 -0.4119  0.2631
21035W        W37169   9.938   6.425  12.718  0.0152 -0.0852 -0.0220
21036W        W37170   9.188   0.444   0.811  0.2034 -0.2314  0.0439
21037W        W37171  10.866  17.004   0.682  0.0448 -0.1383  0.2902
21038W        W37172  16.564   4.583   1.517  0.1780 -0.0815 -0.0777
21039W        W37173  14.186   7.248   3.696 -0.0607  0.0518  0.0877
21040W        W37174   0.577   0.925   0.770 -0.0231 -0.3787 -0.1269
21041W        W37175   7.075  15.654   4.684  0.0112  0.0375  0.0831
21042W        W37176   4.341  15.446  13.938  0.0321  0.1974 -0.0552
21043W        W37177   1.221  16.355  13.547 -0.1261  0.1753 -0.3768
21044W        W37178   1.951   0.487  14.263 -0.1728  0.1332  0.2025
21045W        W37179  13.123   4.044  14.648 -0.0401 -0.1635  0.2873
21046W        W37180   4.113   0.571  14.972  0.0202 -0.2563 -0.0477
21047W        W37181  11.347   1.892   2.312 -0.0533 -0.0279  0.1474
21048W        W37182   9.357   0.739  13.469 -0.1276 -0.1122 -0.4809
21049W        W37183  13.681   2.976  15.329 -0.3162 -0.0603  0.1909
21050W        W37184  11.145  13.299  14.818  0.2747  0.0652 -0.0221
21051W        W37185  12.125   6.147  12.089  0.2167  0.0666 -0.2375
21052W        W37186   4.325   2.428  12.223  0.0710 -0.2007 -0.0776
21053W        W37187   8.050   4.358   2.603 -0.0288  0.0490  0.1323
21054W        W37188   1.604  13.421  17.001 -0.0025  0.0002 -0.4718
21055W        W37189   9.008  16.802   3.452  0.1066  0.2600  0.1357
21056W        W37190   1.722   7.608  14.291 -0.0856 -0.2430  0.0176
21057W        W37191  14.876   2.872   3.677 -0.1693  0.0560 -0.0910
21058W        W37192  12.235   4.389   2.233  0.0079  0.1598 -0.0637
21059W        W37193   3.257  10.239   5.758  0.2861 -0.1278  0.0510
21060W        W37194  11.525  11.258  13.718 -0.0932 -0.0268 -0.3274
21061W        W37195   3.405   3.077  16.103  0.2012  0.0640  0.1631
21062W        W37196  15.987  15.218  17.037 -0.1830 -0.0519 -0.0189
21063W        W37197   2.319  16.515   3.562 -0.4081  0.1700  0.0920
21064W        W37198  16.489   7.065  15.058  0.1832 -0.0980 -0.1198
21065W        W37199  11.809  10.329  12.564  0.0978  0.1030 -0.0619
21066W        W37200  17.119   8.737   4.353  0.0407 -0.0156 -0.0486
21067W        W37201   0.583  14.583   3.767 -0.0730 -0.1121 -0.2155
21068W        W37202  14.930   3.888  14.208  0.1436 -0.0851 -0.0175
21069W        W37203   5.976   2.532   1.409 -0.0659 -0.1832 -0.0894
21070W        W37204   8.391   1.521  11.584 -0.2145 -0.1302 -0.0291
21071W        W37205   6.097  15.454  14.237 -0.0821  0.0955 -0.0446
21072W        W37206  14.641  11.001   3.340  0.0511 -0.0052 -0.4430
21073W        W37207  10.533  13.506   1.238  0.0904 -0.3043 -0.0579
21074W        W37208  11.490   7.705  11.613  0.0897 -0.0021 -0.0847
21075W        W37209   5.403   0.032  13.310  0.2465 -0.0872  0.2430
21076W        W37210   0.247   4.367   4.988 -0.0618 -0.0142  0.2315
21077W        W37211   0.165  12.984  14.341 -0.0575  0.0458  0.2625
21078W        W37212  15.012  17.174   3.240 -0.5160  0.4076  0.0796
21079W        W37213   3.336   5.860   4.611  0.1093 -0.0403  0.1419
21080W        W37214   8.671   5.261   1.880 -0.1625  0.0268  0.4237
21081W        W37215  17.224  11.688  14.137 -0.1304  0.1046  0.1571
21082W        W37216  17.245  12.467   0.071 -0.1226  0.2687 -0.4366
21083W        W37217   6.722  12.129   5.500 -0.0502  0.1027  0.0274
21084W        W37218  13.203   9.799   2.819  0.1076 -0.0511  0.1340
21085W        W37219  14.989   7.346  16.621  0.3246 -0.2353 -0.0333
21086W        W37220   5.697  14.015   0.222 -0.1241  0.1994  0.0392
21087W        W37221   7.863   6.614   3.148 -0.5674  0.0846 -0.1046
21088W        W37222  10.704  15.649  15.592 -0.1978  0.0983  0.0073
21089W        W37223   4.004   0.414  13.710 -0.0128  0.2099 -0.0292
21090W        W37224  16.511  17.441   2.626 -0.1453  0.0246 -0.0238
21091W        W37225   7.306   0.146   2.295 -0.0226  0.2999  0.0728
21092W        W37226  13.564   4.092   4.834  0.0814  0.0206  0.1308
21093W        W37227  16.583  10.852   0.083 -0.1709 -0.1602 -0.3512
21094W        W37228   7.964   7.122   3.076 -0.1022 -0.2779 -0.1839
21095W        W37229  11.644  11.918   3.573  0.2197  0.2787  0.1402
21096W        W37230   6.598   6.665  15.379  0.0542  0.0923 -0.3307
21097W        W37231  13.671  14.379  15.571 -0.0633 -0.0393 -0.0769
21098W        W37232  13.980   7.691   5.348 -0.2287 -0.0079 -0.0632
21099W        W37233  10.650   9.265  12.793  0.2743  0.0501 -0.1160
21100W        W37234   6.859  15.739   5.582 -0.3388 -0.0844  0.3057
21101W        W37235  13.210  11.446   1.442  0.1275  0.0701 -0.1615
21102W        W37236   4.474   0.798   0.281 -0.1832  0.0187  0.1169
21103W        W37237   3.226   3.994   5.337  0.0401 -0.0342  0.2358
21104W        W37238   0.988  17.318   0.647 -0.0548  0.0962 -0.0514
21105W        W37239   7.467  16.202   1.419  0.1301  0.0682 -0.0593
21106W        W37240  13.646   8.029  15.520 -0.0129  0.0176 -0.0433
21107W        W37241   8.567   5.489   1.406  0.0583 -0.1260  0.0225
21108W        W37242  15.563   4.608   1.754  0.1872  0.1352  0.2393
21109W        W37243   1.746   9.916  16.111  0.1956  0.0847 -0.2707
21110W        W37244   0.293   4.032   1.707 -0.0642 -0.0472 -0.1809
21111W        W37245   9.141  15.084   2.749  0.2252 -0.1684 -0.1394
21112W        W37246   2.675   7.947  17.147  0.3256  0.0477 -0.0396
21113W        W37247   3.842   0.700  14.567 -0.0923  0.0466  0.2701
21114W        W37248   9.192   5.532  16.331  0.0740 -0.0170 -0.2812
21115W        W37249   6.367   3.218  16.909  0.2101  0.1129  0.0752
21116W        W37250  13.382  13.457  12.931 -0.1810  0.1663  0.0711
21117W        W37251   1.463   4.011  13.836 -0.0022 -0.1942 -0.1120
21118W        W37252  14.509   1.475   1.411 -0.0396 -0.0692  0.0018
21119W        W37253  13.077  15.623  13.375  0.1333 -0.2894 -0.0078
21120W        W37254  11.946  15.205  16.291 -0.1045  0.2846 -0.3191
21121W        W37255  12.769  15.184   2.437  0.1073  0.0543  0.0576
21122W        W37256   9.524   4.473   5.039  0.1594 -0.1168 -0.0751
21123W        W37257   7.322   6.334   6.108  0.3036  0.1121 -0.0585
21124W        W37258   6.583  13.971   2.765 -0.1989 -0.1381  0.1473
21125W        W37259   8.437  17.066   4.848  0.1326  0.0719  0.0911
21126W        W37260   6.074  17.289   3.441 -0.1964 -0.0169  0.0065
21127W        W37261   4.533  13.531  13.687  0.1893 -0.2166 -0.1387
21128W        W37262   2.284   0.364  13.435  0.1038 -0.2051 -0.1311
21129W        W37263  12.616   1.594  15.656 -0.1177  0.0748  0.1077
21130W        W37264  12.295  17.358   6.308 -0.0492  0.1273  0.0986
21131W        W37265   4.906   7.204   4.527 -0.3835 -0.0488  0.1296
21132W        W37266   0.702   9.998   1.318 -0.1323  0.0538 -0.1265
21133W        W37267  10.575   2.454  14.339 -0.2803 -0.2305 -0.2297
21134W        W37268   6.487   5.913   3.306 -0.1965 -0.0629  0.3114
21135W        W37269   0.110  17.383   4.061  0.1335 -0.1376 -0.0500
21136W        W37270  16.179   8.469  17.105 -0.2370 -0.1245  0.1262
21137W        W37271  16.787   8.719  11.961 -0.1015 -0.1189  0.3659
21138W        W37272  14.038  13.863   4.908 -0.0875 -0.3981  0.1479
21139W        W37273   0.419  15.819  15.844  0.1716  0.1121  0.1135
21140W        W37274   4.505   4.798   0.610  0.2929 -0.2613 -0.1962
21141W        W37275  16.442   1.517   1.782 -0.0539  0.4813 -0.0503
21142W        W37276   4.376  13.070  13.760  0.0956 -0.0417 -0.1658
21143W        W37277  15.445  11.910   1.657 -0.2460  0.2992  0.0810
21144W        W37278  16.693  11.355  13.301  0.1665  0.2214  0.1374
21145W        W37279   3.951   3.604  13.051  0.0679 -0.0224  0.4524
21146W        W37280  12.552  14.320   4.349  0.1187  0.0974  0.1082
21147W        W37281   0.277   7.809   4.124  0.2134 -0.1864  0.2523
21148W        W37282   0.103   7.448   1.399 -0.0051 -0.0630  0.0208
21149W        W37283   4.891   9.001  13.585  0.2313 -0.2272 -0.0564
21150W        W37284   3.640   2.009  16.829  0.0614 -0.4290  0.0712
21151W        W37285   6.463   6.751   1.387  0.3501  0.1098 -0.0773
21152W        W37286   3.604   0.644  14.083  0.1734 -0.0614  0.0527
21153W        W37287  16.838  11.403   4.974  0.1692  0.3095 -0.1978
21154W        W37288   7.332  15.702   4.239  0.3845  0.0270 -0.2320
21155W        W37289  12.598  14.765  14.985 -0.0182  0.1213  0.0336
21156W        W37290  10.118   5.295   4.233 -0.3085 -0.0938  0.1546
21157W        W37291  16.135   9.130  13.057  0.0547 -0.0361 -0.1857
21158W        W37292  17.245   8.566  13.099 -0.0754  0.1458 -0.1934
21159W        W37293   0.507  12.469   3.984  0.1104 -0.2621 -0.0133
21160W        W37294  12.961   7.939  15.154  0.2301  0.4425 -0.2450
21161W        W37295   4.613   5.624  16.215  0.2307  0.1898  0.0108
21162W        W37296  16.515   4.132   1.233 -0.0063 -0.0088 -0.0576
21163W        W37297  12.092   2.691   4.766 -0.2163 -0.2807 -0.0785
21164W        W37298   7.562  13.071  16.529  0.2261 -0.1599 -0.0202
21165W        W37299  13.805   3.853  12.293 -0.1669  0.1142  0.3621
21166W        W37300   2.643   8.528   5.330 -0.1316 -0.3234  0.2780
21167W        W37301   7.980   6.928  14.463 -0.1734 -0.3226 -0.0687
21168W        W37302  13.883  10.437   4.304 -0.0631  0.1148 -0.0174
21169W        W37303   5.439  14.584   0.808 -0.0208 -0.0111  0.0096
21170W        W37304   5.892   7.868  12.712 -0.0820 -0.2658  0.2556
21171W        W37305  13.802   9.872   4.902  0.1355  0.1716 -0.2607
21172W        W37306   5.648   6.111  11.993 -0.0104 -0.0812  0.2869
21173W        W37307   8.603   7.381  13.840  0.1756 -0.2120  0.1750
21174W        W37308   8.783  14.876   0.824  0.0779 -0.1999 -0.1785
21175W        W37309   3.525  16.930  16.212 -0.0514  0.2328 -0.0074
21176W        W37310   4.346   2.031  13.112 -0.2692  0.1744  0.2088
21177W        W37311  13.859  15.607   5.751 -0.0258  0.1595 -0.0409
21178W        W37312  16.690   9.752  16.030  0.0972 -0.2823  0.1854
21179W        W37313  17.064  12.775   1.662  0.1819  0.1867 -0.0642
21180W        W37314   7.010   0.418   0.516 -0.0469  0.1789  0.1946
21181W        W37315   2.342   9.208   1.505 -0.4000  0.0452 -0.0528
21182W        W37316   8.936  13.087  10.763  0.1527  0.0097 -0.1019
21183W        W37317  12.584   6.129  11.853 -0.0159  0.0099  0.2645
21184W        W37318  15.487  11.420  12.877 -0.0679 -0.0853 -0.2536
21185W        W37319  11.326  11.677   5.830  0.0857  0.2201 -0.2665
21186W        W37320   6.352  14.735   0.728  0.1563 -0.1477 -0.0162
21187W        W37321   7.999   9.114   4.789 -0.2396 -0.2326  0.2023
21188W        W37322   4.545   9.616  12.647 -0.2362 -0.1427 -0.0475
21189W        W37323  14.131  12.778  13.013 -0.1878  0.2050  0.1700
21190W        W37324   1.783   3.342   5.814 -0.1088  0.0653  0.1600
21191W        W37325   4.097   7.609  16.857 -0.0065 -0.1119 -0.0497
21192W        W37326  14.603  17.324  13.926 -0.0740  0.1607  0.0405
21193W        W37327   8.469  11.938  15.957  0.2361 -0.2207  0.2053
21194W        W37328   9.642  10.916   3.176 -0.3078 -0.0955 -0.2001
21195W        W37329   2.813   0.534  15.384  0.1167 -0.1086 -0.0702
21196W        W37330  11.986   0.358  15.190 -0.0855  0.0612 -0.1673
21197W        W37331  14.954   8.665  16.346  0.2051  0.2307 -0.0942
21198W        W37332  15.210   4.089  12.258 -0.0478  0.0499 -0.1365
21199W        W37333  14.531  11.550   6.294  0.1988 -0.0855  0.1845
21200W        W37334  13.124   8.054  13.918  0.0444  0.0285  0.1443
21201W        W37335   3.102   7.154  13.378 -0.0700  0.0192  0.1772
21202W        W37336   9.012   6.077  16.425  0.2422 -0.1283 -0.1153
21203W        W37337   2.833   6.890   3.310 -0.1549 -0.3114 -0.0705
21204W        W37338  17.024   4.482  14.240 -0.0089  0.0626 -0.1436
21205W        W37339   3.431  13.559   2.285 -0.1778  0.3076 -0.0703
21206W        W37340  12.344   1.803   2.495 -0.2126 -0.2018  0.0380
21207W        W37341  11.981  10.411  13.567 -0.1237  0.0109  0.0096
21208W        W37342  16.097  15.792   2.394  0.3119 -0.2002  0.0829
21209W        W37343  13.586  12.444   4.756 -0.1408  0.0403  0.1821
21210W        W37344   7.823   7.257  15.900  0.0062 -0.1849 -0.1977
21211W        W37345  11.977  12.807   4.777  0.0631 -0.0063  0.1140
21212W        W37346  14.747   4.420  17.030  0.0926 -0.3186  0.3607
21213W        W37347  17.052  16.081  12.396 -0.2747  0.0308 -0.2235
21214W        W37348  12.618  10.413  16.291  0.0073  0.2175  0.0129
21215W        W37349  13.301   8.469  12.618 -0.0157 -0.1312 -0.1332
21216W        W37350   8.450   2.743   2.100 -0.2213 -0.0587 -0.1302
21217W        W37351  13.327   6.929   4.614  0.2961  0.0303 -0.2262
21218W        W37352   2.245   5.325   4.762  0.1336 -0.2058  0.1648
21219W        W37353  10.514   4.455  11.509 -0.0324  0.1355 -0.1338
21220W        W37354  16.202   7.452  15.706  0.1230  0.1118 -0.0102
21221W        W37355  13.611  13.298  12.027  0.0389 -0.1967 -0.3157
21222W        W37356  17.407  12.223   5.573  0.0088  0.3902 -0.1132
21223W        W37357   4.541   7.258  12.119  0.0361  0.0618  0.2285
21224W        W37358  16.880   1.312   6.559  0.2859  0.3662  0.1674
21225W        W37359   1.075  14.418  15.538 -0.1241  0.2585  0.0892
21226W        W37360  16.749  17.354  16.761  0.1888 -0.0063  0.1637
21227W        W37361   1.858  16.279   0.781 -0.2201 -0.0602  0.0904
21228W        W37362   9.223   8.967   4.813 -0.0965  0.2420 -0.3525
21229W        W37363   8.235   1.476  14.666  0.0821  0.1165 -0.3169
21230W        W37364   4.983   2.173  16.059  0.1956  0.2135  0.2943
21231W        W37365   9.320   0.294   4.956 -0.0469  0.1359  0.1288
21232W        W37366  16.873   3.889  14.583  0.0991 -0.0156 -0.2119
21233W        W37367   0.364  14.787   2.052  0.1207 -0.0897  0.2103
21234W        W37368  16.760   2.508   6.143  0.0111  0.1235  0.1733
21235W        W37369   1.781  14.775  13.278 -0.0462  0.0508 -0.2493
21236W        W37370  14.906   6.807  13.037 -0.0775  0.3145 -0.2667
21237W        W37371  13.577   3.882  13.604  0.2012 -0.0866 -0.1255
21238W        W37372   8.669  11.575   2.288  0.3222 -0.1109  0.0556
21239W        W37373   3.808   7.292  11.475 -0.3110 -0.0070  0.2632
21240W        W37374   6.782   8.057  11.723 -0.2275  0.0167  0.2596
21241W        W37375   0.963   2.335  12.653  0.0153  0.2086 -0.3004
21242W        W37376   5.828   6.260  13.473 -0.0656  0.1966  0.1758
21243W        W37377   6.994  12.568  11.832  0.1125 -0.1117 -0.0608
21244W        W37378  14.804  14.381   2.676 -0.1668  0.0874  0.3256
21245W        W37379   4.641   6.974   3.040 -0.3272  0.0807 -0.0782
21246W        W37380  14.215   7.889  16.382 -0.2473 -0.0583 -0.0085
21247W        W37381  14.928  10.148  13.046  0.3028 -0.0243 -0.0023
21248W        W37382  13.032  12.770  14.764 -0.4693 -0.1686 -0.4281
21249W        W37383  13.891  16.336  12.667 -0.0001 -0.4034 -0.1647
21250W        W37384   6.949  11.980  16.905  0.0024 -0.0632 -0.0758
21251W        W37385   9.651   7.679  11.724 -0.0077  0.0035  0.0866
21252W        W37386   2.250   5.525  14.854  0.2924 -0.1606  0.1683
21253W        W37387   4.688  17.599   0.472 -0.0443  0.0153  0.3241
21254W        W37388   8.615   6.035   0.654  0.1851 -0.3016  0.3889
21255W        W37389   5.344  17.401   4.479  0.0723  0.3554  0.1963
21256W        W37390  16.735   1.914  12.881  0.0099 -0.0170 -0.0955
21257W        W37391   8.616   6.261   3.998  0.1421  0.0382  0.0173
21258W        W37392  10.550  14.468   4.753 -0.2467 -0.0190  0.0946
21259W        W37393   5.410   5.669   3.908  0.0235  0.1035 -0.0462
21260W        W37394  12.874   2.080  13.576 -0.2784 -0.0277 -0.0004
21261W        W37395  14.393   5.259  14.350 -0.2888  0.1890 -0.0513
21262W        W37396   7.987   9.917   2.856  0.0267  0.1215 -0.0478
21263W        W37397   6.480  10.545   1.846  0.0002 -0.3216  0.0552
21264W        W37398   1.377  12.928   2.129 -0.0260  0.2692  0.1305
21265W        W37399   6.763   8.484   5.732  0.0160  0.0223 -0.2340
21266W        W37400   2.617   4.148  13.269 -0.0533 -0.0119  0.0217
21267W        W37401   3.041   4.722  15.961  0.1689  0.3687  0.2040
21268W        W37402   4.404   1.561  17.123  0.2037  0.1376 -0.0585
21269W        W37403  17.627  17.534   0.055 -0.1351  0.1819  0.1265
21270W        W37404   1.037   0.558   3.858 -0.3557  0.0329  0.3000
21271W        W37405   8.015   0.256  14.557 -0.0745  0.0722  0.1159
21272W        W37406  16.960   1.636   6.099  0.0490 -0.0380 -0.2451
21273W        W37407   4.786  15.941  16.463  0.1804  0.0674  0.0548
21274W        W37408   4.364   7.094   2.506 -0.0395  0.0632 -0.1234
21275W        W37409   1.276  15.594  16.332 -0.0908  0.0028 -0.0670
21276W        W37410  14.032   8.864   3.727  0.0111  0.0428 -0.1141
21277W        W37411   1.264   3.458  12.842  0.3642  0.2342  0.0589
21278W        W37412   9.913  10.531  12.411 -0.0210 -0.1116 -0.1036
21279W        W37413  17.192  12.310  16.706  0.3269 -0.1063  0.0485
21280W        W37414   3.483  16.160   5.497  0.4474  0.0400  0.1433
21281W        W37415   0.144  16.246  12.867  0.1108  0.0422  0.3512
21282W        W37416  15.199   5.981  16.758 -0.0766  0.0048 -0.2300
21283W        W37417   1.243  17.051  15.702  0.0337 -0.1923  0.0699
21284W        W37418   9.503  11.888   6.426  0.3181  0.2933  0.0363
21285W        W37419   0.739   8.396  14.189 -0.2002 -0.1601 -0.1262
21286W        W37420  10.964   1.204   4.552 -0.2236 -0.2830  0.1980
21287W        W37421   2.231  14.191  12.579  0.2955 -0.1387  0.2024
21288W        W37422   9.956   7.897   4.558  0.0394  0.1073 -0.0200
21289W        W37423  16.112   2.541   2.351 -0.0914  0.0324  0.2341
21290W        W37424   9.175   6.911  14.339  0.1499 -0.2928 -0.1202
21291W        W37425  11.044  10.501  15.258  0.1310  0.0056  0.2461
21292W        W37426   6.242   7.205   1.021  0.0239 -0.2106  0.3971
21293W        W37427  10.905   9.052   1.313  0.1175  0.0464  0.1054
21294W        W37428   0.018   7.956   4.871  0.2595 -0.2524 -0.1373
21295W        W37429   1.965  17.220   4.367  0.1911 -0.1143 -0.0638
21296W        W37430  10.816  14.366   0.508  0.0084  0.3830  0.1204
21297W        W37431  11.119   2.495  13.347 -0.0037  0.0835  0.2736
21298W        W37432   1.671  17.587  15.974  0.2739  0.0026 -0.0182
21299W        W37433  13.461  14.596  16.867 -0.2480 -0.1232 -0.0911
21300W        W37434   2.497   7.460  11.685 -0.0438  0.0428  0.0933
21301W        W37435   6.441   9.302   0.584  0.0308 -0.0061  0.0277
21302W        W37436  16.271  11.080  15.697 -0.0719 -0.1214 -0.1350
21303W        W37437   9.838   1.725   2.304  0.0142 -0.2426  0.0863
21304W        W37438  10.750  12.322   5.153  0.1012 -0.2514 -0.0431
21305W        W37439   5.884   4.212  11.893 -0.3021  0.0272  0.0614
21306W        W37440  15.351  12.306   4.132  0.0023 -0.2880 -0.1553
21307W        W37441   1.439   0.674   6.743  0.0757  0.2078  0.0265
21308W        W37442  11.812   8.462   4.239  0.0498  0.1911  0.1694
21309W        W37443   3.430  15.782   3.680  0.1216  0.1061 -0.3472
21310W        W37444  17.103   8.036   1.971 -0.0963  0.2066 -0.0259
21311W        W37445   0.774   3.420   1.248 -0.1137 -0.0879  0.1114
21312W        W37446   9.376   0.985   0.255  0.0100  0.0080 -0.1099
21313W        W37447   2.690  14.607   0.203  0.1704 -0.4971  0.0672
21314W        W37448  11.821   2.217   0.399 -0.3523  0.2816  0.2369
21315W        W37449   2.371   0.537   1.351 -0.1285  0.2804  0.0014
21316W        W37450   3.641  12.347  13.998  0.1218 -0.0418 -0.0019
21317W        W37451   1.786   3.796  16.710  0.1948 -0.0885 -0.1553
21318W        W37452  16.527   9.241   0.407  0.3211  0.0719 -0.0422
21319W        W37453   8.505   1.226   2.164 -0.2176 -0.1135 -0.3024
21320W        W37454  14.504   3.987  11.210 -0.0395 -0.0590 -0.0716
21321W        W37455  12.214  13.897  14.418  0.2458  0.0604  0.0379
21322W        W37456   6.954  14.542  15.485  0.1531 -0.0163 -0.0139
21323W        W37457   2.909   8.853  11.626  0.3494 -0.0850  0.2362
21324W        W37458   2.158  17.373   1.964  0.1973  0.1525 -0.3288
21325W        W37459  15.310  12.201  12.107  0.2105  0.0008  0.1457
21326W        W37460   5.595  11.248  15.256 -0.0145  0.0216  0.0667
21327W        W37461  15.121   2.567   3.175  0.0256  0.2348  0.1659
21328W        W37462  10.768  15.659  17.112 -0.2794 -0.1154 -0.1233
21329W        W37463  15.594   1.498   0.474  0.1249 -0.1501  0.0801
21330W        W37464  10.847   8.541   3.077  0.1341  0.3016  0.1317
21331W        W37465   2.179  12.486   5.271 -0.0428  0.1430  0.0609
21332W        W37466  12.457   9.605  12.796  0.5470  0.1840 -0.0167
21333W        W37467  17.613  11.686   1.300 -0.0669 -0.0173 -0.0871
21334W        W37468  14.942   0.110  14.966 -0.1567 -0.0674 -0.3404
21335W        W37469  15.113  12.747   5.121 -0.2542  0.1467  0.1824
21336W        W37470   6.888  12.590  15.936 -0.0919  0.2504 -0.0223
21337W        W37471  17.490   0.918  15.495 -0.1380  0.0589  0.0061
21338W        W37472   3.239   0.159  15.282  0.2468 -0.3307  0.1260
21339W        W37473  17.528  13.411   4.485  0.2773  0.0117  0.0566
21340W        W37474   3.226  15.628  14.070 -0.2743 -0.2219 -0.1889
21341W        W37475   8.895   1.078  15.417 -0.2928  0.1340 -0.0867
21342W        W37476   7.818  11.133  16.769  0.0108  0.0282  0.2515
21343W        W37477   9.738   1.177  15.740 -0.2803 -0.0658 -0.1732
21344W        W37478  10.465   2.696   5.302 -0.0875 -0.2815 -0.2133
21345W        W37479   8.610  15.407   0.934  0.1933 -0.0290  0.2132
21346W        W37480   0.242   4.454   3.210  0.0168  0.0606  0.0411
21347W        W37481  15.587  13.332  16.462  0.1555 -0.2395  0.1234
21348W        W37482   5.323  15.539  12.759 -0.1228  0.0148  0.0016
21349W        W37483   0.622   4.461   1.401  0.1444 -0.1527 -0.1803
21350W        W37484   7.863  17.485   2.843 -0.1056  0.2172  0.1517
21351W        W37485  10.070   7.016  14.112 -0.0446  0.4414 -0.0288
21352W        W37486  15.526   8.252  16.750  0.1104 -0.0103  0.0216
21353W        W37487  10.554   2.077   1.581 -0.0390  0.1443 -0.2566
21354W        W37488   6.208   7.290  16.059 -0.1547  0.3678  0.2032
21355W        W37489  15.720   3.772  12.320  0.0957 -0.1371 -0.3018
21356W        W37490  17.029   8.654   3.795 -0.1261  0.0722  0.0820
21357W        W37491  11.288  13.302  15.849 -0.0882 -0.0095 -0.0302
21358W        W37492   0.956  10.826  11.677  0.0996 -0.0525 -0.2275
21359W        W37493  12.781  15.753  15.518  0.3788 -0.0009 -0.0379
21360W        W37494   8.032  17.030  12.449  0.0109 -0.2311  0.2157
21361W        W37495   0.777  15.849  16.211 -0.2254  0.1825 -0.0048
21362W        W37496   4.889  13.800   1.608  0.2359  0.0598 -0.0327
21363W        W37497  10.811   9.661  13.087  0.0656  0.0724 -0.0837
21364W        W37498   8.557   1.446   5.072 -0.5032 -0.2105 -0.1755
21365W        W37499  13.891   0.966  12.481 -0.1817 -0.2100  0.0574
21366W        W37500  11.364   3.396   1.846 -0.1871 -0.1375  0.0803
21367W        W37501   8.132  16.263   2.341 -0.0463 -0.0459 -0.2719
21368W        W37502   8.824  10.251   1.092 -0.2346 -0.2212  0.1284
21369W        W37503   7.941   4.631  14.243  0.1870 -0.1915 -0.0784
21370W        W37504   9.756   6.069   3.801  0.1037 -0.0646  0.0568
21371W        W37505   2.790  12.169  15.607 -0.1109  0.1805  0.1884
21372W        W37506  16.752   4.108   3.237  0.0001 -0.0949 -0.2142
21373W        W37507   1.558   1.846  12.087 -0.1308 -0.0075 -0.0874
21374W        W37508   7.125  14.540   6.138 -0.3736  0.0225  0.1991
21375W        W37509  14.019  13.492  12.945  0.0556  0.1821 -0.3267
21376W        W37510  11.071   1.871  14.088 -0.0145  0.0068 -0.3773
21377W        W37511   1.157   3.014   3.241  0.0632  0.1596 -0.1383
21378W        W37512   2.044  11.075  12.781 -0.0922  0.1903  0.0094
21379W        W37513   2.380  12.329   0.467 -0.1958  0.1343  0.1152
21380W        W37514  17.617   4.041  14.983  0.0153  0.1011  0.0440
21381W        W37515   2.257   9.676  12.953  0.1453 -0.2898  0.0236
21382W        W37516  16.595  10.781   3.023 -0.2386  0.0332  0.2903
21383W        W37517   6.631   9.856   4.278  0.0203 -0.1181 -0.2774
21384W        W37518  13.792   3.138  13.894 -0.0668 -0.0839 -0.2839
21385W        W37519   0.549  14.641  12.088  0.0327  0.0114  0.2160
21386W        W37520   1.086   1.697   4.470  0.0822 -0.0942  0.0844
21387W        W37521   1.335   5.368  14.648  0.1548  0.1011  0.1995
21388W        W37522   2.398   2.527  15.426 -0.0907 -0.0741  0.0093
21389W        W37523  14.617   5.099  11.901  0.1625  0.1481 -0.1759
21390W        W37524  14.048   4.735   2.747 -0.0448  0.0781 -0.5855
21391W        W37525   3.009   2.531   1.621 -0.0077  0.2509  0.0436
21392W        W37526  14.169   7.937   1.151 -0.1699  0.0720 -0.0559
21393W        W37527   2.240  12.252  13.683  0.0052 -0.2599 -0.0943
21394W        W37528  12.020  11.991   3.220 -0.3581  0.0212  0.0862
21395W        W37529   7.311   0.847   3.017 -0.1560  0.0053 -0.1654
21396W        W37530  17.390  16.405   2.227  0.2347 -0.0579  0.3065
21397W        W37531  16.885  16.898   0.804 -0.1072  0.4594 -0.0054
21398W        W37532  11.474  12.354   3.749 -0.1318  0.2800 -0.1715
21399W        W37533  11.529  12.653   4.995 -0.2307 -0.0217 -0.0247
21400W        W37534  10.674  12.854   2.526 -0.3826  0.2409 -0.0370
21401W        W37535  15.659  13.629  15.210 -0.0202  0.2624  0.1549
21402W        W37536   8.239  14.233   1.018  0.2434  0.1610 -0.2060
21403W        W37537   4.718  16.848   1.018  0.0917 -0.1924 -0.2145
21404W        W37538  10.493   2.499   0.839 -0.1204  0.0821 -0.1433
21405W        W37539   9.669   1.763  13.612 -0.0407  0.0184  0.2606
21406W        W37540  13.831  15.765  12.224  0.2325  0.0572  0.3168
21407W        W37541   4.513  16.104   3.012 -0.0027  0.0237 -0.0183
21408W        W37542  17.502   2.597   0.140 -0.0626  0.1063  0.0266
21409W        W37543   3.833   6.400   2.909  0.1815  0.1736  0.2411
21410W        W37544  15.911   4.921   1.580  0.3551  0.2435  0.0195
21411W        W37545  13.313   1.220  16.317  0.3279 -0.0076 -0.0220
21412W        W37546   9.020   3.608   4.278  0.1566 -0.2724  0.0347
21413W        W37547  12.398  12.881  16.388 -0.0419 -0.2141 -0.1845
21414W        W37548  15.252   5.948  10.730 -0.1586  0.0052 -0.2574
21415W        W37549   2.574   3.757  16.051  0.0235  0.0602  0.0988
21416W        W37550  16.117   1.290  16.570  0.1539 -0.1487  0.3213
21417W        W37551   4.391  12.405   0.759  0.0169 -0.1831 -0.3055
21418W        W37552   0.424   6.090  13.136  0.2142 -0.0435 -0.1517
21419W        W37553  10.446  12.289   1.984  0.0214 -0.2723  0.0274
21420W        W37554  11.424   8.990  15.229  0.1995 -0.1606  0.0021
21421W        W37555  14.988   4.214  15.826 -0.0877  0.2089  0.2960
21422W        W37556  14.435   2.053   1.330  0.0000 -0.0515 -0.1480
21423W        W37557   7.578   2.964   0.002  0.1564  0.3288  0.0759
21424W        W37558   1.715   0.375  16.808  0.0792 -0.1528 -0.1225
21425W        W37559  15.503  11.914  12.807 -0.1790 -0.0082  0.0063
21426W        W37560   1.600   1.455  15.727 -0.1682 -0.0352  0.3974
21427W        W37561   6.469   8.574   6.550 -0.0439  0.1614  0.4932
21428W        W37562   8.701   7.810  16.358 -0.1457  0.2163  0.1369
21429W        W37563  10.669  16.174   0.646  0.1750 -0.1142  0.1712
21430W        W37564   3.212  12.046  15.843 -0.0231 -0.4243  0.5259
21431W        W37565   7.655   2.503  17.055 -0.1176  0.1842  0.0546
21432W        W37566   6.279   9.326  16.242  0.3237 -0.2352 -0.0865
21433W        W37567   5.974  12.214  13.891  0.2999  0.1339 -0.0231
21434W        W37568   8.853   8.589   5.108 -0.1757  0.2923 -0.0396
21435W        W37569   7.741  17.440   0.477  0.0885  0.0636  0.0495
21436W        W37570   1.346  10.390   3.738  0.0642 -0.0447  0.1331
21437W        W37571  10.671  17.134  13.914  0.2498  0.1544  0.1652
21438W        W37572   0.733   0.827   4.662  0.1157 -0.2247 -0.0862
21439W        W37573   1.646   2.671  11.081 -0.0600 -0.1842 -0.0077
21440W        W37574  14.261  13.600  15.328  0.2059  0.1038  0.1139
21441W        W37575   3.102   3.345   2.726  0.1894  0.0031 -0.1895
21442W        W37576  14.115   8.873   2.850  0.1693 -0.1535 -0.1742
21443W        W37577   1.264  10.506   2.457  0.0443 -0.1931  0.0974
21444W        W37578  16.767  10.375   0.219 -0.2380 -0.3921 -0.0572
21445W        W37579   7.176   5.064   0.115  0.0157 -0.0901 -0.0100
21446W        W37580  12.001  10.817  15.092  0.2583  0.0333  0.1223
21447W        W37581  10.976  12.839   5.063 -0.0785  0.2648  0.0543
21448W        W37582   4.821  10.879  16.399 -0.0040  0.0595  0.3805
21449W        W37583   6.369  10.101   3.862 -0.0159  0.1489  0.1420
21450W        W37584   4.119   0.245   5.408  0.2729 -0.2977  0.1982
21451W        W37585   4.113   4.598   4.244  0.1227  0.0434  0.0676
21452W        W37586   6.722  14.896  15.217  0.1665  0.0525  0.1359
21453W        W37587   9.551  15.995   6.623 -0.0489  0.1958 -0.1284
21454W        W37588  13.759   9.021   3.272  0.1290 -0.3628 -0.2961
21455W        W37589   1.279   5.346   3.924 -0.1306 -0.3830  0.1196
21456W        W37590  10.081   2.616   4.991 -0.0452  0.0158  0.0592
21457W        W37591   7.170  14.731   4.871  0.0271 -0.0413  0.1053
21458W        W37592  13.843  15.006  16.813  0.0438  0.0233 -0.3375
21459W        W37593  17.500   5.635   3.579  0.1638 -0.1262 -0.3267
21460W        W37594  13.686   3.418  13.462  0.1217  0.0222  0.1636
21461W        W37595  13.204   1.185  13.743  0.0289 -0.1318  0.3973
21462W        W37596  11.957   6.055   4.418  0.3346  0.2718 -0.2131
21463W        W37597   3.464   7.678  11.354  0.0384 -0.0710  0.0992
21464W        W37598  11.147  17.333  13.759  0.0788  0.0027  0.1017
21465W        W37599  10.851  13.549  15.942  0.0605  0.0989 -0.1425
21466W        W37600  15.159   1.700  14.411  0.1274 -0.4393 -0.5123
21467W        W37601   2.356  17.033  13.815 -0.1537 -0.2720  0.0244
21468W        W37602   1.538   2.511   5.852  0.0489 -0.3518  0.1915
21469W        W37603  10.011   2.161  14.938  0.0734 -0.2208  0.3360
21470W        W37604   9.740   9.919  11.762 -0.1950  0.1789  0.2193
21471W        W37605  14.136   0.397  15.085  0.2054 -0.1392 -0.0459
21472W        W37606  15.363  12.626   0.579 -0.1254  0.1320  0.0933
21473W        W37607   6.631  13.980   0.520  0.2211 -0.0985 -0.2244
21474W        W37608  12.661   3.773  14.790 -0.3022 -0.0948 -0.2060
21475W        W37609  16.261   5.742  13.618  0.0651 -0.0385 -0.0155
21476W        W37610   0.182   7.518   3.626  0.0682  0.2335 -0.0770
21477W        W37611   1.982  11.542  12.606  0.1725  0.0999  0.2540
21478W        W37612  10.868   7.943   4.962  0.0571 -0.3167 -0.0511
21479W        W37613  11.482   2.668   0.020  0.3844  0.2824 -0.0466
21480W        W37614   1.203  17.003   6.715  0.1649 -0.0306 -0.1735
21481W        W37615  17.654   6.327  11.060  0.3226  0.0192  0.1409
21482W        W37616  16.423   9.941  14.948  0.2224 -0.1011  0.0211
21483W        W37617   6.224   8.935  12.161  0.1732 -0.2659  0.0861
21484W        W37618  12.024  16.453  12.957 -0.1548 -0.1390  0.3680
21485W        W37619   9.957  13.609   5.719  0.1363 -0.1213  0.0974
21486W        W37620   2.055  11.335   5.737 -0.0064  0.0456  0.0036
21487W        W37621  10.329   3.067   3.167 -0.1308  0.2904 -0.0736
21488W        W37622  11.344  16.204   1.143 -0.2588 -0.1976  0.1556
21489W        W37623  14.226  15.607  14.139 -0.0225 -0.1777  0.0240
21490W        W37624  12.488  16.071   4.869  0.1013  0.2613 -0.0304
21491W        W37625  13.145  13.916   3.088 -0.1861  0.2627 -0.0558
21492W        W37626  17.512  13.308   0.462 -0.3360 -0.0018 -0.2666
21493W        W37627  12.712  16.922   5.691 -0.0093 -0.1031 -0.5362
21494W        W37628  15.728  10.491  11.771 -0.0265 -0.3130  0.2232
21495W        W37629  17.367   1.198   1.726 -0.0808 -0.2839 -0.0042
21496W        W37630  12.599  14.260  13.927 -0.0284 -0.3273  0.1958
21497W        W37631   6.006  11.321  14.461 -0.1403 -0.0774  0.1775
21498W        W37632   7.001  11.472  15.694 -0.1102  0.1375  0.2600
21499W        W37633  13.048  16.090   4.285  0.0609 -0.3726 -0.2137
21500W        W37634   6.660   3.819   2.710  0.0379 -0.0149  0.0920
21501W        W37635   9.356  10.676  12.206 -0.1697 -0.1241  0.3815
21502W        W37636   1.992   5.926   1.194  0.1751 -0.1798  0.3560
21503W        W37637   6.195  17.463  15.358 -0.1004  0.1313  0.2628
21504W        W37638  12.751  12.047  13.922 -0.0028 -0.0758 -0.0503
21505W        W37639   2.504  10.676   4.473  0.2029  0.0637  0.0923
21506W        W37640  13.613   4.153   0.533 -0.1766 -0.2340 -0.0977
21507W        W37641  14.494  11.000  12.852  0.3908 -0.4052  0.2004
21508W        W37642  11.219   8.537  15.416  0.0632  0.0762  0.1177
21509W        W37643  14.873  16.608  16.404  0.2865 -0.1129  0.2288
21510W        W37644  10.350   2.969   0.701  0.3975 -0.2983  0.0364
21511W        W37645   3.032   9.743  14.444 -0.4122 -0.2268  0.2922
21512W        W37646   8.317  13.566  14.803  0.0242 -0.1891 -0.0374
21513W        W37647   3.460   1.338   5.868  0.2153  0.1089 -0.2125
21514W        W37648   0.894  13.364   1.633 -0.0643 -0.2786  0.1921
21515W        W37649   3.272  13.358   5.250 -0.2687 -0.2601  0.1710
21516W        W37650  10.225   0.866  12.790  0.1161 -0.0783 -0.1994
21517W        W37651  16.372   2.290  15.499  0.3620 -0.1247  0.3412
21518W        W37652   8.061  17.119   1.190 -0.0052  0.3598 -0.1619
21519W        W37653   0.346  11.663  16.941 -0.2643 -0.1653 -0.0804
21520W        W37654   9.457  13.668  15.775  0.0161 -0.2471 -0.1714
21521W        W37655  12.320   1.795   4.105 -0.1117  0.1431  0.1941
21522W        W37656  10.856   8.721   4.209  0.0824 -0.0731 -0.2932
21523W        W37657   0.870   7.922  13.802 -0.0200  0.0439  0.2204
21524W        W37658   3.711   6.366   2.373 -0.1079 -0.1497 -0.0513
21525W        W37659  11.582  13.863   2.635 -0.1008 -0.1409  0.0018
21526W        W37660  11.193   0.563   2.449 -0.0629 -0.0566  0.1865
21527W        W37661   0.036   1.231  12.244  0.1203  0.0188  0.0507
21528W        W37662   3.593   4.946  12.509  0.0893 -0.3043 -0.3979
21529W        W37663   6.028  15.026  10.859  0.1105 -0.1164  0.0006
21530W        W37664  12.231   7.987  12.078 -0.0105 -0.2801 -0.0811
21531W        W37665   3.845   9.462  14.989 -0.2162  0.1826 -0.0627
21532W        W37666  13.811   8.290   2.208  0.0008  0.0295 -0.0706
21533W        W37667  17.104   2.316  14.855 -0.2045 -0.0315 -0.3160
21534W        W37668   4.389  15.787  14.544 -0.0643 -0.1087 -0.0625
21535W        W37669  17.510   5.477  11.787  0.1568 -0.0922 -0.1385
21536W        W37670   9.997   3.149  13.692 -0.3613 -0.0258  0.0127
21537W        W37671  17.644   1.792  16.436  0.2221 -0.1657  0.2702
21538W        W37672  11.513   1.097   5.658  0.1054  0.0938  0.3190
21539W        W37673  12.132  13.852  16.465 -0.1799 -0.0205  0.0567
21540W        W37674   5.046   6.030  13.330  0.1912 -0.1273 -0.0127
21541W        W37675   1.404   4.872  14.259 -0.0630 -0.1284  0.0983
21542W        W37676  12.881   7.307  11.933  0.2737 -0.0159 -0.4931
21543W        W37677   6.812   5.792   3.713 -0.1661 -0.0425 -0.0311
21544W        W37678   8.947   7.061   4.480 -0.0344 -0.0833 -0.0363
21545W        W37679   1.572  15.062   1.051  0.1215 -0.0527  0.2623
21546W        W37680  15.896  13.479  13.649  0.1654 -0.2215  0.1640
21547W        W37681   5.598   2.339   4.917  0.0096  0.2034 -0.4732
21548W        W37682   0.704  14.053  16.888 -0.1810 -0.1812 -0.1244
21549W        W37683   7.831  14.035  15.789  0.0109 -0.1951 -0.1213
21550W        W37684  16.772   7.969  14.870 -0.1000 -0.2918  0.0153
21551W        W37685   2.817   7.313   1.458  0.1080 -0.0836 -0.1343
21552W        W37686  17.275   1.830  12.914  0.0803 -0.3222 -0.3289
21553W        W37687   8.099   5.164   1.367  0.0873  0.0302  0.1534
21554W        W37688   3.612   1.211  14.770 -0.2171 -0.1573  0.0328
21555W        W37689   4.635   0.855  12.366 -0.0025 -0.0935  0.1612
21556W        W37690  10.873   6.152  11.659  0.1352 -0.1262 -0.1913
21557W        W37691   6.919  16.080   4.234 -0.3186  0.1611 -0.0952
21558W        W37692   0.063   8.473   0.045 -0.0722  0.1420  0.3440
21559W        W37693  11.431   8.800  16.148 -0.1132  0.2208 -0.1706
21560W        W37694   5.627  13.506  12.401  0.1547  0.0360 -0.1722
21561W        W37695  13.051   5.237  16.837  0.1455 -0.0657 -0.4108
21562W        W37696   6.931  13.589   5.166  0.0951 -0.0278  0.0820
21563W        W37697   2.813   5.088  13.262 -0.2444  0.3941 -0.2291
21564W        W37698   8.827   3.263   2.538 -0.1214  0.1322  0.1646
21565W        W37699  11.513   4.179   3.281  0.1369 -0.0868 -0.0916
21566W        W37700  10.176   5.364  14.542  0.2869 -0.1147 -0.1052
21567W        W37701   5.216  11.151  15.642 -0.0147 -0.0807  0.0901
21568W        W37702   6.706  13.464   6.013 -0.0366 -0.0379  0.1780
21569W        W37703   5.711   9.674  12.077 -0.0147  0.0616  0.1082
21570W        W37704   5.638   8.603   3.713 -0.2999  0.0323  0.0555
21571W        W37705   1.057  15.778  15.309  0.1283  0.1168 -0.0694
21572W        W37706  10.479   3.778   5.340  0.1276  0.0862  0.1452
21573W        W37707   2.719  14.938   5.028  0.1789  0.1105  0.1870
21574W        W37708   8.601   6.384  15.083  0.1058 -0.1239  0.3038
21575W        W37709  14.126   4.795  14.376  0.1009 -0.2786  0.1702
21576W        W37710  10.686   4.696  16.845  0.1739  0.1424 -0.2783
21577W        W37711   8.622   7.638   5.242 -0.1522  0.0583  0.0538
21578W        W37712   4.153   2.994   1.343 -0.4061 -0.0213  0.2364
21579W        W37713   5.932  11.137  16.875  0.2604 -0.0985 -0.0320
21580W        W37714  14.192  12.258   4.418  0.2980  0.0295  0.2168
21581W        W37715   8.408  13.951  13.405 -0.0212 -0.4567  0.1280
21582W        W37716   5.818   6.826  11.992  0.3475 -0.1332 -0.3072
21583W        W37717   5.738   7.831  14.267 -0.0195 -0.0633  0.0626
21584W        W37718   6.019  16.654   4.685 -0.3599 -0.0730 -0.0554
21585W        W37719   6.293   2.368  16.344  0.1966 -0.0238 -0.3241
21586W        W37720   9.731  12.015   5.581  0.3307  0.1162  0.0043
21587W        W37721  16.614   2.064   0.463 -0.1666  0.1895  0.2071
21588W        W37722   8.551   0.774  15.356  0.2389  0.0327  0.0066
21589W        W37723   3.462  16.910  13.277 -0.1257 -0.0463 -0.0288
21590W        W37724  14.765   6.791  11.484 -0.3547 -0.1324  0.1400
21591W        W37725   8.584  15.744  13.309  0.0169 -0.1232  0.0419
21592W        W37726  10.429   4.231   1.403  0.1285  0.1070 -0.0835
21593W        W37727   9.749   2.771   0.551 -0.2626  0.3277 -0.1785
21594W        W37728  15.182   8.971  12.746 -0.3826  0.1203 -0.1589
21595W        W37729   7.510  13.586   4.519 -0.0603  0.1769  0.2717
21596W        W37730  11.170   9.039  14.338  0.1257 -0.1002 -0.2103
21597W        W37731   1.523   1.797   1.375 -0.0293 -0.1391  0.1632
21598W        W37732   4.181   4.987  13.254 -0.2381 -0.1592 -0.1450
21599W        W37733  16.092  12.221  11.638  0.0079 -0.1383  0.1322
21600W        W37734   7.182  12.214   3.182 -0.1936  0.2610 -0.1357
21601W        W37735   1.034   9.171   1.085 -0.0847  0.3496 -0.0635
21602W        W37736   8.258  13.862   3.091  0.0260  0.1247 -0.1024
21603W        W37737  16.961  14.187  12.584 -0.1398 -0.0614  0.0359
21604W        W37738   4.707  14.516   2.645 -0.1390  0.1972 -0.0698
21605W        W37739  10.707   8.365  16.078 -0.0621 -0.2177  0.2495
21606W        W37740   6.891  11.314   1.686 -0.2247  0.1719  0.1718
21607W        W37741  13.676   5.312  15.493  0.1357  0.1238 -0.0820
21608W        W37742   2.485  17.656   3.749  0.2799  0.0791 -0.0417
21609W        W37743   7.359   1.088  12.684 -0.2798  0.0153  0.3125
21610W        W37744  10.250  10.775   4.245 -0.2705 -0.0428  0.0220
21611W        W37745  16.950   4.108   3.703 -0.0411 -0.1999  0.1975
21612W        W37746  13.950   3.185   0.757 -0.0892  0.1938  0.1574
21613W        W37747   2.956  11.444  15.101  0.1634  0.1013 -0.0471
21614W        W37748  10.532   0.982  14.206 -0.1742 -0.1271 -0.1419
21615W        W37749   2.436   2.866   3.463  0.1540  0.0668 -0.3790
21616W        W37750   6.237   8.417   2.416 -0.1355 -0.0027 -0.0636
21617W        W37751   9.289  14.350  14.954 -0.1024 -0.0175  0.0545
21618W        W37752  14.706   7.053  14.245  0.1230  0.1396  0.0811
21619W        W37753   0.199   0.449   5.281 -0.3100 -0.0940  0.1805
21620W        W37754   9.840   2.674  13.033 -0.2635  0.1741 -0.0968
21621W        W37755  13.955  13.436   5.104  0.0140  0.0772  0.2094
21622W        W37756  17.304   5.657   1.405 -0.0890  0.1294 -0.1300
21623W        W37757   7.048  10.881   5.153  0.0154 -0.0353 -0.0349
21624W        W37758   1.149   9.539  15.406  0.2716  0.0354  0.1007
21625W        W37759   2.360   5.742   1.615 -0.2959 -0.0406 -0.0447
21626W        W37760   4.972   7.573  16.409  0.0870 -0.2736  0.1851
21627W        W37761   2.598  14.740   0.984 -0.0439 -0.1911 -0.0065
21628W        W37762   3.594   8.650   2.171 -0.0573 -0.0616  0.0556
21629W        W37763   3.339  11.018   0.369 -0.0943 -0.0278  0.0092
21630W        W37764   3.367   3.078  14.260 -0.0170  0.0034  0.1920
21631W        W37765   4.106   2.897  16.215 -0.0120  0.1539 -0.1785
21632W        W37766   5.999  11.520   5.743  0.3321  0.2871  0.2323
21633W        W37767   9.435   1.334   1.055 -0.0806 -0.1962  0.0158
21634W        W37768  16.044   9.028  15.516  0.0986 -0.1795  0.0410
21635W        W37769   9.995  17.281  15.054  0.0998  0.0317 -0.1499
21636W        W37770   6.978   2.906  13.654 -0.0330 -0.0392 -0.1251
21637W        W37771  15.646  12.198   0.653  0.0001  0.0818  0.0077
21638W        W37772   4.789   4.885   1.025 -0.3509  0.0723 -0.2828
21639W        W37773   3.715   3.827  16.140  0.1048 -0.0149 -0.1815
21640W        W37774   4.622  14.110   1.944  0.2750  0.0792  0.1051
21641W        W37775  13.995   0.850   2.183 -0.1495 -0.1313 -0.1678
21642W        W37776   5.615   1.626   0.686 -0.0331  0.2683  0.2084
21643W        W37777   4.212  11.922   3.736  0.3256 -0.0438  0.0423
21644W        W37778  14.502  16.379   2.103 -0.4906 -0.4885 -0.3166
21645W        W37779  14.878   8.405   4.114 -0.0116 -0.2706 -0.0903
21646W        W37780   3.677   4.170   0.593 -0.2400 -0.1566  0.5596
21647W        W37781   9.362   3.844  13.623  0.0185  0.2479  0.0444
21648W        W37782   9.139   9.511  15.767  0.0129  0.1318  0.2278
21649W        W37783  11.942  12.210  14.140 -0.2589 -0.1975 -0.2956
21650W        W37784   5.903  14.752   2.821  0.2681 -0.0760  0.0281
21651W        W37785   1.358  15.525   5.253  0.1678  0.3219  0.3216
21652W        W37786   3.919   9.426  12.253 -0.2532 -0.3430  0.0182
21653W        W37787   5.669   0.205   0.413 -0.0155 -0.0064 -0.0827
21654W        W37788  16.902   5.803  12.295  0.1500  0.2282  0.1729
21655W        W37789   7.334   4.853  12.695  0.0745 -0.1151  0.1331
21656W        W37790  14.494  10.585  15.968 -0.0214  0.0818 -0.0428
21657W        W37791   2.957  16.464  14.207  0.0758  0.2506  0.1934
21658W        W37792   4.783  15.968   4.291  0.0246  0.1436 -0.0300
21659W        W37793  16.968  16.098   2.011 -0.0632  0.1682 -0.0611
21660W        W37794   7.548  13.862   1.645  0.0781 -0.0180  0.0427
21661W        W37795  11.883   0.842  16.117 -0.1040 -0.1490  0.0647
21662W        W37796  11.375   3.176   2.306  0.1459 -0.1890  0.0639
21663W        W37797   7.826   2.584  13.702  0.0570 -0.0923  0.1246
21664W        W37798   0.830   5.118   2.674 -0.0310 -0.0985 -0.1398
21665W        W37799  10.381   9.339   2.948 -0.1674  0.2085  0.1568
21666W        W37800   6.142   9.960  14.335  0.0854  0.1795  0.1025
21667W        W37801   1.914  14.516  12.054  0.0950 -0.2129 -0.1449
21668W        W37802  16.134  15.736   3.498  0.0891 -0.1515 -0.1037
21669W        W37803  15.663  16.703   2.465  0.1455  0.0500 -0.1461
21670W        W37804   7.285  11.119  16.045 -0.1701  0.1850  0.1003
21671W        W37805   9.970  16.169   2.295  0.0353 -0.2046 -0.1653
21672W        W37806  11.561  10.021  13.510  0.1942  0.0178 -0.1353
21673W        W37807   7.762   6.006  13.033 -0.2747  0.1088  0.0127
21674W        W37808  14.200   5.703  14.227 -0.3636  0.3387  0.0501
21675W        W37809   2.091   4.003   4.490 -0.0490 -0.1517  0.1546
21676W        W37810   0.457   2.894   1.318  0.1188  0.1216  0.4228
21677W        W37811  16.448   0.750   0.501  0.0945 -0.0132 -0.1615
21678W        W37812  14.105  11.365  12.881 -0.1486 -0.0122 -0.3721
21679W        W37813  12.250   3.798  11.519  0.0267  0.0124 -0.0250
21680W        W37814   1.435  15.685   3.468  0.2654  0.2590 -0.3771
21681W        W37815   7.657   7.642  11.402  0.0769 -0.4244 -0.1346
21682W        W37816   5.813   8.597   6.192 -0.0518 -0.1295 -0.2067
21683W        W37817   1.670   0.415   4.435  0.3806 -0.1297  0.0635
21684W        W37818  14.266   7.049   2.972  0.1667  0.3604 -0.2669
21685W        W37819  14.948  17.406  15.729 -0.0198  0.1743 -0.0135
21686W        W37820   3.055   1.593   0.193  0.1350 -0.1646  0.1268
21687W        W37821   8.489   8.039  14.922 -0.3486  0.1617  0.1220
21688W        W37822  16.191  16.786   1.674  0.1165 -0.1371 -0.1295
21689W        W37823   3.928  12.006   1.539 -0.0624 -0.0466 -0.1842
21690W        W37824   7.337   7.432  15.577 -0.1212 -0.3116  0.0914
21691W        W37825  15.349   1.903   5.832 -0.2073  0.0679 -0.4595
21692W        W37826   9.651   7.433   3.350 -0.0180 -0.0960 -0.1369
21693W        W37827  16.553   0.748   4.781  0.0976 -0.0582 -0.1787
21694W        W37828   1.490   6.011   1.182 -0.0801 -0.2052 -0.0630
21695W        W37829   7.225   7.847  17.073 -0.1218  0.0998 -0.3489
21696W        W37830  11.690   0.395   4.332  0.3540  0.0305  0.0939
21697W        W37831  17.281  12.819   2.604 -0.3100  0.1761  0.0602
21698W        W37832  13.253  13.261   5.159 -0.1077 -0.1333 -0.0497
21699W        W37833  12.471   8.451  17.117  0.0416  0.1051  0.1234
21700W        W37834  10.748   0.021   4.616 -0.0234 -0.0373  0.1710
21701W        W37835  10.443  11.769  16.587  0.2037  0.1213  0.0515
21702W        W37836  12.601  14.112  16.508  0.1875  0.0902 -0.2642
21703W        W37837   9.017   2.755   3.247  0.2766 -0.0070  0.1009
21704W        W37838  13.124   5.908   3.476  0.2839  0.2407 -0.1331
21705W        W37839   5.261   3.124   1.379 -0.1508 -0.2090 -0.3523
21706W        W37840  13.471  10.413  14.595  0.0417 -0.0228  0.1038
21707W        W37841  12.986   5.270  13.400  0.1234 -0.0895 -0.0601
21708W        W37842  11.247  10.180   0.625 -0.0527  0.1234 -0.1085
21709W        W37843   8.215  14.771   2.961  0.0852  0.1691 -0.0284
21710W        W37844   9.776   1.725  14.918 -0.0831 -0.3021 -0.0296
21711W        W37845   5.234  17.105   2.253 -0.0209 -0.0664 -0.0510
21712W        W37846   2.352   4.635  15.964  0.0090 -0.0000 -0.1908
21713W        W37847   9.581  14.517  12.523 -0.3040  0.0089 -0.4969
21714W        W37848   2.494  11.064   4.789 -0.1397 -0.2131 -0.1741
21715W        W37849   6.493  11.181  13.240  0.1345  0.4467  0.4272
21716W        W37850   3.655  10.955  10.725  0.3098 -0.0805 -0.1215
21717W        W37851   0.029   3.337   1.139 -0.1739 -0.0231  0.0682
21718W        W37852  16.044  16.018   0.221 -0.0158 -0.1749  0.0623
21719W        W37853   9.970  11.438  12.443  0.1355  0.2027  0.3048
21720W        W37854  13.650  12.950   5.828  0.1064 -0.0163  0.3034
21721W        W37855   4.223   7.584  13.158 -0.0271 -0.0200  0.0801
21722W        W37856   0.155   0.905   0.562 -0.1557 -0.0637 -0.1770
21723W        W37857   0.249  13.406  15.140 -0.0330 -0.0352 -0.2883
21724W        W37858   5.531  16.852   0.080  0.0758 -0.0471  0.0256
21725W        W37859   0.463   3.673  13.161 -0.0601 -0.3779 -0.0530
21726W        W37860   0.998  17.147   1.788 -0.1929  0.0972 -0.1243
21727W        W37861   7.147   4.403   3.132  0.0449 -0.3652 -0.0147
21728W        W37862  12.842  14.832  12.497  0.0587 -0.1956 -0.2009
21729W        W37863   8.424  12.242  14.546  0.0673 -0.0994 -0.0272
21730W        W37864   0.988   9.530  12.217  0.0854 -0.2211 -0.0729
21731W        W37865   2.119   3.697   4.026  0.0354 -0.1170 -0.1101
21732W        W37866   9.863  13.844  16.065  0.0778  0.0472  0.1653
21733W        W37867   2.923   9.844  16.925  0.2108 -0.1865 -0.0975
21734W        W37868  15.904   0.076   5.728  0.0203 -0.0272 -0.0885
21735W        W37869  14.353  12.799   3.192  0.0731 -0.0749  0.1421
21736W        W37870   8.399   1.723   5.873  0.2750 -0.0608  0.0790
21737W        W37871   6.312   6.832   4.387 -0.2258  0.2462  0.1225
21738W        W37872  14.845  12.329   5.228  0.2943 -0.0212 -0.1772
21739W        W37873  11.952   3.796  13.099  0.1706 -0.0050 -0.0670
21740W        W37874   0.509  14.658   1.602  0.0685  0.1704 -0.3179
21741W        W37875   2.124   7.583   0.411  0.1168 -0.0501  0.0642
21742W        W37876   8.543   5.455   0.458 -0.1374 -0.2081 -0.1760
21743W        W37877  16.208   3.044  14.928  0.0389  0.0142 -0.1130
21744W        W37878  11.950  14.678   4.642  0.1291  0.1474 -0.1753
21745W        W37879  10.611   7.201  13.929 -0.0410  0.0075 -0.2986
21746W        W37880   3.193  13.507  15.567  0.1727  0.2643  0.0906
21747W        W37881   3.982  13.004  15.089  0.0603  0.3290  0.0583
21748W        W37882  12.933   7.401   0.136  0.0436  0.1366 -0.2629
21749W        W37883  13.840   3.502   1.172 -0.0102  0.1392  0.2197
21750W        W37884  16.033  11.454  11.974  0.3446  0.1781 -0.1842
21751W        W37885  11.843   0.586   2.027 -0.2061 -0.0192 -0.0495
21752W        W37886   4.384   9.443   3.811  0.0632 -0.1484 -0.1802
21753W        W37887  14.327   6.075   4.200 -0.1932  0.0195  0.0364
21754W        W37888   0.566   9.715  15.463 -0.1111  0.1179  0.0685
21755W        W37889  12.714   1.160  13.883  0.1140  0.0149 -0.2440
21756W        W37890   7.300   3.452  13.776  0.1532  0.0714 -0.1913
21757W        W37891  11.346   7.500   3.519  0.0394  0.1980 -0.3585
21758W        W37892   2.710  11.405   1.528 -0.0797  0.2081  0.0304
21759W        W37893   7.500  11.816   3.213  0.3546 -0.2518  0.2966
21760W        W37894  13.871  13.025  14.086  0.1394  0.1895 -0.2160
21761W        W37895  11.884   4.759  12.211  0.1330  0.1954  0.0634
21762W        W37896   1.268   7.192   0.565  0.3929  0.0350 -0.3257
21763W        W37897   4.589  10.677  14.698 -0.0088  0.1936  0.3680
21764W        W37898   9.174  12.307   4.525  0.1901 -0.0495 -0.1224
21765W        W37899  13.855   8.652   4.190 -0.0618 -0.0073  0.2791
21766W        W37900   6.146  13.550   3.601 -0.1728 -0.2845  0.1060
21767W        W37901  12.623   0.269   2.868 -0.2117 -0.2783  0.2229
21768W        W37902   5.112   7.393  14.328  0.0718 -0.0600 -0.1067
21769W        W37903   0.591   1.084   2.176 -0.0402 -0.2255  0.1145
21770W        W37904   8.624   9.187  11.897  0.0939  0.0596  0.2349
21771W        W37905   6.193   8.265   5.170 -0.2112 -0.1869  0.2446
21772W        W37906   1.364  12.937   1.304 -0.1246  0.1827  0.1236
21773W        W37907  17.074  12.147   1.492  0.1278  0.3005  0.2396
21774W        W37908  10.398   3.626  10.272 -0.0409  0.3707  0.0251
21775W        W37909   1.196   6.843  12.327  0.0460  0.0678 -0.0011
21776W        W37910   4.492  10.242   2.229 -0.2632 -0.1773 -0.0895
21777W        W37911  15.900   7.254  12.215  0.2025  0.0146 -0.1309
21778W        W37912  11.340   9.626  16.727 -0.2780 -0.0613  0.3018
21779W        W37913   6.356  10.932  12.771 -0.3474 -0.0823  0.2050
21780W        W37914  13.318  14.282  13.617  0.0946 -0.5966  0.2198
21781W        W37915   6.785  15.453  13.474  0.2678  0.0200 -0.2872
21782W        W37916   9.679   8.420  11.979 -0.0807  0.1600 -0.1367
21783W        W37917  16.685  16.695  13.690  0.0568 -0.1172  0.0066
21784W        W37918  14.784  12.660  15.121 -0.0803  0.3118 -0.2242
21785W        W37919   3.890   3.165  13.960  0.1461 -0.0492  0.0452
21786W        W37920   9.105   6.488  13.860  0.2050 -0.2376 -0.2599
21787W        W37921  16.124   8.351  13.096 -0.1620  0.0731 -0.1956
21788W        W37922  16.913   1.682  16.945  0.1397 -0.1215 -0.2487
21789W        W37923   0.234  11.180   2.192 -0.1370 -0.1167 -0.3003
21790W        W37924   5.740   4.584  11.090 -0.0844  0.0604 -0.0925
21791W        W37925  17.639  14.658  12.075 -0.4107 -0.4280  0.1376
21792W        W37926   5.950   3.522   0.408  0.0318 -0.2502 -0.1606
21793W        W37927   4.618   0.216   4.418 -0.0106  0.0257  0.2316
21794W        W37928  15.377   4.965   0.329 -0.2530 -0.3657  0.0423
21795W        W37929   6.049  17.542   0.200  0.2255 -0.0614  0.0240
21796W        W37930   5.157   2.635  14.027  0.0218 -0.4176 -0.3331
21797W        W37931   9.387   5.517   6.053  0.1630 -0.2077  0.1626
21798W        W37932  12.397  16.939   5.262 -0.0781  0.1444  0.1172
21799W        W37933   9.152  11.420   1.921 -0.0853  0.0809 -0.2548
21800W        W37934   2.415   3.709  11.782  0.1848 -0.0414  0.0646
21801W        W37935  13.379   5.992   2.640 -0.2229 -0.1725  0.1423
21802W        W37936   5.987  15.938  13.308 -0.1022 -0.0166  0.2731
21803W        W37937   0.519  14.276  14.414 -0.1335 -0.0356 -0.0283
21804W        W37938  13.798   8.920   4.601 -0.0785  0.2290 -0.0115
21805W        W37939  10.505   3.673   0.736  0.0084  0.3562 -0.2022
21806W        W37940   3.905   0.100   6.202 -0.0366  0.1313  0.1105
21807W        W37941   3.208   3.504  11.698  0.0662  0.0146 -0.0484
21808W        W37942  11.280   5.951  12.868 -0.0224  0.2063  0.2549
21809W        W37943   7.532  13.481   2.895  0.0661 -0.0694  0.0980
21810W        W37944  15.962  13.783   6.021 -0.1952 -0.2697  0.0598
21811W        W37945  14.608  11.992   3.665 -0.2295  0.0534  0.0723
21812W        W37946  10.171  13.159  12.555  0.0570  0.1415  0.2108
21813W        W37947   6.102   4.966  14.812  0.0392  0.0134 -0.2125
21814W        W37948  13.522  17.408  16.421 -0.1337  0.0376 -0.0820
21815W        W37949   5.479  16.279  14.588  0.0056  0.0339  0.1504
21816W        W37950  15.201  15.147   3.707  0.0636  0.0564 -0.0975
21817W        W37951  13.639  14.901   0.142 -0.4486 -0.0581  0.1314
21818W        W37952   2.442  15.335   5.311  0.1358 -0.1554 -0.1231
21819W        W37953  14.965  10.707  15.801  0.2414  0.2691 -0.1977
21820W        W37954  10.379   3.902  14.307  0.3192 -0.2042 -0.0975
21821W        W37955  16.146  16.625  14.571 -0.1139  0.1405 -0.0682
21822W        W37956   5.099  13.098  14.265 -0.0936  0.1727 -0.0804
21823W        W37957   3.474   8.870  11.593 -0.1845  0.1651 -0.0050
21824W        W37958  17.174   8.128   0.686 -0.3272 -0.1135  0.0111
21825W        W37959   4.007   0.745   5.206 -0.0885 -0.0500  0.0520
21826W        W37960   1.369   4.489  16.970  0.0059  0.4084  0.1207
21827W        W37961  12.900  17.274   1.486  0.0496  0.2155  0.0155
21828W        W37962   9.791  10.433  14.952 -0.1065 -0.0967  0.1687
21829W        W37963  12.121   8.842   1.546 -0.2252 -0.2454 -0.2254
21830W        W37964  12.972  17.009   5.284  0.1293 -0.2601 -0.3777
21831W        W37965   8.275  16.520  14.925  0.0627  0.1118  0.1134
21832W        W37966   9.436  17.212  14.452  0.1941  0.0737  0.3305
21833W        W37967  17.023   0.963  14.365 -0.1709  0.3365  0.0457
21834W        W37968   4.144   6.600  12.974 -0.2307 -0.1297 -0.0941
21835W        W37969   4.897   4.075  15.635  0.2034  0.1367 -0.0326
21836W        W37970  17.123  15.410  11.819 -0.1852 -0.1024 -0.2062
21837W        W37971  16.053   5.718  14.874  0.0219  0.0163 -0.0224
21838W        W37972  10.858  12.774   5.550  0.1337  0.0234  0.4657
21839W        W37973   5.926   5.796  16.104 -0.2793 -0.1165  0.1173
21840W        W37974  17.402   8.825  14.869 -0.0162  0.0225  0.0458
21841W        W37975   9.453  10.035  12.993 -0.1875 -0.2521 -0.0769
21842W        W37976   2.052   6.865   4.076 -0.0349 -0.1259 -0.2241
21843W        W37977   9.802  10.619   0.872  0.1861  0.1375 -0.0657
21844W        W37978   9.150  14.760   4.859  0.1168  0.1565  0.0899
21845W        W37979  11.325  14.964   2.358 -0.1247  0.2099 -0.1703
21846W        W37980   0.535   3.691   3.646  0.0055  0.1509 -0.0016
21847W        W37981  17.474   0.377   3.478 -0.0206  0.3560  0.3438
21848W        W37982   8.824   1.988  14.554 -0.0767  0.1542  0.0489
21849W        W37983   2.204  11.628   5.355  0.0232  0.2155  0.1429
21850W        W37984  14.685   3.976  12.143 -0.1202 -0.0361  0.0509
21851W        W37985   7.799  17.020   2.557  0.2188 -0.0472 -0.2947
21852W        W37986   4.140   0.966  11.916  0.0814  0.0804 -0.0141
21853W        W37987  16.545  15.513  13.834 -0.0045  0.1014  0.0878
21854W        W37988   8.603  14.575  16.861  0.0038 -0.2205 -0.0390
21855W        W37989   3.750  13.227  12.862  0.2474 -0.0750 -0.0867
21856W        W37990   0.897  16.890  14.575 -0.1387  0.0214  0.2426
21857W        W37991   2.338  12.941   1.093  0.2853  0.1711  0.0464
21858W        W37992   5.288  16.130  16.585  0.2902 -0.5082 -0.0281
21859W        W37993  14.832   3.750  15.667  0.0542  0.0835 -0.0636
21860W        W37994   4.007  15.220   0.401  0.2765 -0.0523 -0.3524
21861W        W37995  15.148   0.582   5.368  0.2348  0.1514 -0.0414
21862W        W37996  15.999   7.535   1.052 -0.0340  0.0768  0.1031
21863W        W37997   8.512   4.203   1.443  0.1845 -0.0089  0.0636
21864W        W37998   9.204   6.235  13.360  0.0819  0.0168  0.0457
21865W        W37999   0.299  17.577   2.473 -0.1888 -0.0982 -0.0233
21866W        W38000  14.767   9.924   2.843  0.3158 -0.0422  0.2861
21867W        W38001   1.059  15.033  14.697  0.2618  0.3231 -0.1464
21868W        W38002  10.312  12.825   2.124  0.1790 -0.1446 -0.1189
21869W        W38003   7.879  17.166  13.469 -0.1151  0.2159  0.0334
21870W        W38004   5.122  10.343  15.891 -0.0289 -0.0228  0.0569
21871W        W38005  17.369   5.741   2.670 -0.0224  0.1729 -0.0335
21872W        W38006   2.981  11.804  17.173 -0.1514 -0.1896 -0.0272
21873W        W38007   3.922  12.003   2.865  0.0067  0.0872 -0.0016
21874W        W38008  11.410  16.393  14.615 -0.0208 -0.0522 -0.0476
21875W        W38009   0.142  11.127  13.422  0.1375 -0.2036  0.0152
21876W        W38010  15.908   6.215  14.679 -0.1700  0.5438 -0.1605
21877W        W38011  17.231  15.256   1.068 -0.1060  0.3867 -0.0570
21878W        W38012   3.867  13.935  15.663 -0.2599 -0.2798 -0.3795
21879W        W38013  15.482  14.191   4.583  0.2359  0.0756  0.0234
21880W        W38014  10.754  13.130  15.746 -0.2107 -0.0519  0.2198
21881W        W38015   3.457   3.563  14.014  0.0054 -0.2137 -0.0764
21882W        W38016   0.910  17.373   3.257  0.1387  0.4557 -0.0255
21883W        W38017   6.529   1.907  12.291  0.0221 -0.1434  0.0827
21884W        W38018   4.861   5.146   0.595 -0.1982  0.1039  0.1258
21885W        W38019  16.388  12.689   1.032 -0.0557 -0.0625  0.2773
21886W        W38020   3.153  12.650   3.532 -0.1252 -0.2152  0.1002
21887W        W38021  14.018   5.052   0.569 -0.1006 -0.0205 -0.0539
21888W        W38022  15.966   8.440  12.381  0.0355 -0.0115 -0.1012
21889W        W38023   9.563   1.550  16.094  0.1141 -0.1010 -0.2153
21890W        W38024   1.036   2.232   5.235  0.3060  0.2281 -0.2744
21891W        W38025   7.511   3.639  11.432  0.0889 -0.0158  0.3223
21892W        W38026   0.224   6.212  14.868  0.0495 -0.1397 -0.1692
21893W        W38027   8.900   9.241   1.072 -0.1126 -0.1351 -0.4125
21894W        W38028   0.564  11.279  16.609 -0.1309  0.2346  0.2957
21895W        W38029   7.750   9.632   0.322  0.0178  0.0713 -0.0576
21896W        W38030  17.237  13.368  14.706  0.2452  0.3866 -0.0894
21897W        W38031   0.532   3.373   4.716  0.1800  0.2371  0.2344
21898W        W38032  14.029  14.700  14.461  0.0247  0.0235 -0.3491
21899W        W38033   6.418  10.189   0.118 -0.0866  0.1505  0.2694
21900W        W38034  15.248  14.848   3.237  0.2085 -0.1248 -0.0076
21901W        W38035  13.270  13.138   1.995 -0.0500 -0.2494  0.0411
21902W        W38036   5.125  13.757  15.612 -0.0297 -0.1555 -0.0615
21903W        W38037  10.230   1.747  13.880 -0.4426  0.0679 -0.0105
21904W        W38038   9.406   1.496   6.506 -0.3050  0.0211  0.0596
21905W        W38039  16.282   1.497  17.057 -0.1092 -0.0311  0.0599
21906W        W38040  13.961  14.296  13.176  0.3637  0.0071  0.0860
21907W        W38041  11.271   9.228   5.881  0.2614 -0.2657 -0.0485
21908W        W38042   8.661   7.624   1.565 -0.2087  0.1353 -0.3606
21909W        W38043   7.153  12.269   4.914 -0.3034 -0.2064 -0.0222
21910W        W38044  13.253   1.210  16.949 -0.0471  0.0350  0.2060
21911W        W38045   3.060  16.024  14.557  0.0614 -0.0128  0.1477
21912W        W38046  10.144   9.237  15.260 -0.0567 -0.0237  0.3152
21913W        W38047   8.775  16.540   5.286 -0.1166 -0.0296 -0.2503
21914W        W38048   9.624   6.566  11.573  0.0566  0.0820  0.1368
21915W        W38049  15.507   1.622   3.364  0.0215  0.0626  0.0745
21916W        W38050  16.724  11.790   4.618  0.0346  0.0376  0.0414
21917W        W38051   6.611   7.386   5.210  0.1545 -0.1484  0.2953
21918W        W38052  13.587  12.858  15.500 -0.3022  0.1186  0.1172
21919W        W38053   8.670  13.211  15.029 -0.3155  0.0771 -0.1356
21920W        W38054   0.784  14.699  14.283 -0.0249  0.0741 -0.1430
21921W        W38055  14.637   7.893  12.249 -0.1876 -0.1937 -0.0022
21922W        W38056  10.997  12.163   2.286  0.1618 -0.0063 -0.1540
21923W        W38057  10.745   7.445   4.852 -0.2167 -0.0619  0.1446
21924W        W38058  15.759  13.516   0.564  0.1012  0.0067 -0.1130
21925W        W38059   3.846   2.948  14.406  0.0075 -0.0707 -0.3507
21926W        W38060   4.411  14.468   5.233  0.1978 -0.0628 -0.2616
21927W        W38061  10.497  14.944   3.257 -0.0699  0.0378 -0.0797
21928W        W38062   9.356   6.448   5.459  0.0442 -0.1617 -0.1123
21929W        W38063   8.516   1.617   3.652  0.1309  0.2350 -0.0267
21930W        W38064   0.017   5.867  16.698 -0.0991 -0.2960  0.2952
21931W        W38065  13.744  12.245   2.289  0.0474 -0.0925  0.0976
21932W        W38066  10.353  16.900   2.111 -0.1048  0.0986  0.1452
21933W        W38067   1.588  10.224   1.998 -0.0364 -0.0061 -0.1975
21934W        W38068   7.699   3.917   5.905  0.1187 -0.1475  0.2089
21935W        W38069   4.013  14.296  15.370  0.0722 -0.0474  0.1132
21936W        W38070   3.344  13.781  14.213  0.1144  0.1831 -0.1501
21937W        W38071   4.396  17.167   3.922  0.0811 -0.1261 -0.0017
21938W        W38072   5.287   5.774  14.150  0.0487  0.1530  0.1341
21939W        W38073   6.177   7.658  12.361 -0.0299  0.1451  0.0637
21940W        W38074  11.307  12.718   6.490 -0.0520  0.2564 -0.0071
21941W        W38075   0.195  16.931  14.940  0.0007  0.1578 -0.0712
21942W        W38076   8.732   7.037  16.123 -0.0092 -0.0566 -0.0086
21943W        W38077   7.703  13.490  16.757  0.3221 -0.0600  0.0040
21944W        W38078   5.424  13.851  14.166 -0.0098 -0.1972  0.1488
21945W        W38079   2.634   0.005   1.832 -0.1011  0.1005 -0.2306
21946W        W38080   1.481  15.763  16.788 -0.1349 -0.0834 -0.2766
21947W        W38081   9.579   1.485  12.807 -0.2799 -0.3105  0.0116
21948W        W38082  16.882  17.619  14.743 -0.0583 -0.0302  0.1422
21949W        W38083  10.444   0.427   4.802 -0.3771 -0.0062 -0.1889
21950W        W38084   2.623  15.429   1.831  0.0970  0.0478 -0.0921
21951W        W38085  15.876  11.289  15.400  0.2012  0.0905 -0.0369
21952W        W38086   1.699   2.915   4.115  0.3835 -0.1801  0.2358
21953W        W38087   0.175   4.858  12.535  0.1514  0.1212 -0.3352
21954W        W38088   2.194  11.746   6.067 -0.1429 -0.3681  0.0048
21955W        W38089  14.178  16.558   1.307  0.1413  0.0246  0.0356
21956W        W38090   5.892   1.349  14.013  0.1455 -0.2556  0.0919
21957W        W38091  11.492  17.002   4.114  0.0533  0.0602  0.1211
21958W        W38092   5.708   5.547  14.059 -0.2800  0.2118  0.1785
21959W        W38093  10.941  12.344   3.816 -0.3613 -0.2091  0.0688
21960W        W38094   6.290   8.691   3.236  0.1612 -0.1422 -0.0006
21961W        W38095   3.343   2.929   2.810 -0.0151  0.2339 -0.0455
21962W        W38096  12.063  16.629   0.934 -0.2167 -0.3610 -0.2825
21963W        W38097  14.961   8.171  13.882  0.2088 -0.0641  0.1227
21964W        W38098  10.475  14.676   3.667 -0.3614 -0.0749  0.1125
21965W        W38099   5.282   8.839   3.466 -0.0731 -0.1377 -0.4669
21966W        W38100   5.771  14.876   3.298 -0.0067  0.2204  0.3613
21967W        W38101   2.752   2.676   5.594 -0.0621  0.0858 -0.0891
21968W        W38102  13.908  11.667   0.009 -0.3509  0.0772 -0.0011
21969W        W38103   1.627   2.765   4.916  0.0136  0.1283  0.1265
21970W        W38104  11.569   5.661  12.585  0.2050 -0.3016  0.0066
21971W        W38105   4.907  14.532  15.427 -0.1387 -0.0136 -0.3202
21972W        W38106  13.824   2.940   2.778  0.0876  0.0397 -0.1974
21973W        W38107   7.272   3.348  15.827  0.1222 -0.1790 -0.3281
21974W        W38108  11.867  16.669   1.799 -0.0740 -0.0535  0.0497
21975W        W38109   8.902  13.961  14.098  0.0595  0.0133  0.1044
21976W        W38110   3.529   0.981   0.757 -0.2071  0.1741 -0.3334
21977W        W38111   1.075   5.943   3.740 -0.1806  0.1097  0.0157
21978W        W38112   4.331  14.771   3.529  0.1918  0.1060 -0.1136
21979W        W38113   0.433  10.001  15.034 -0.2397  0.1001 -0.2963
21980W        W38114   9.241  15.615   5.875 -0.0935  0.1170 -0.2234
21981W        W38115   4.927  17.494   3.161 -0.2921  0.1350 -0.0277
21982W        W38116  13.141  10.996   0.351  0.1552 -0.3196 -0.1426
21983W        W38117   1.732  14.215   4.856 -0.1547 -0.0025  0.4834
21984W        W38118   4.089   1.448  12.070 -0.0463 -0.2670  0.1778
21985W        W38119  11.999  15.127  15.050 -0.0941 -0.1204  0.0630
21986W        W38120  15.976  12.620  13.211  0.0754  0.3121 -0.0690
21987W        W38121  12.408   3.222   3.420 -0.1269 -0.3772 -0.0575
21988W        W38122   2.609   5.088  12.706  0.3767  0.0064 -0.1187
21989W        W38123   0.700  17.366   4.538 -0.2514  0.0046  0.2050
21990W        W38124   5.206   2.159   1.257 -0.0081  0.1925 -0.0027
21991W        W38125   2.232   4.228   2.313 -0.0985 -0.0100 -0.0662
21992W        W38126   3.470  14.975  15.163  0.3203  0.2617  0.0632
21993W        W38127   5.646  10.280  13.824  0.0279  0.2391  0.2232
21994W        W38128   7.202  11.448   6.127 -0.3870  0.1901  0.4756
21995W        W38129   1.581  14.410   3.920 -0.0581 -0.0098  0.0180
21996W        W38130   1.645   9.962   1.535 -0.0637 -0.0850  0.1595
21997W        W38131   1.583  16.670  13.464  0.1895  0.3255  0.0552
21998W        W38132   5.014   1.469  12.906  0.1533  0.3375  0.0082
21999W        W38133   8.690   5.042  16.829 -0.3887 -0.0599 -0.0557
22000W        W38134   6.470   5.372  12.574  0.0525 -0.1195  0.0335
22001W        W38135   2.675   4.576  15.578  0.0359 -0.2085 -0.3215
22002W        W38136  13.666   1.037  16.728 -0.4941  0.0619 -0.0626
22003W        W38137   4.136   5.493  13.995  0.1887  0.0513 -0.0682
22004W        W38138  14.845   1.210  14.282 -0.1453  0.0519  0.1008
22005W        W38139  12.994   4.345  14.103 -0.2484  0.1780  0.0491
22006W        W38140  10.931   4.260   1.463 -0.2394  0.1025 -0.2240
22007W        W38141   1.352  14.058  15.921 -0.2090  0.2025 -0.0605
22008W        W38142  10.166   8.507  15.395  0.1462  0.0762  0.0440
22009W        W38143   1.162  13.774   1.873 -0.2577 -0.4261 -0.1798
22010W        W38144   6.161   1.976  15.976 -0.2740  0.1852 -0.0571
22011W        W38145  17.618   9.024  12.409  0.3658 -0.0509 -0.1551
22012W        W38146   7.510  12.519   1.387 -0.1539 -0.0863 -0.0396
22013W        W38147   4.128   2.521  16.608  0.1303 -0.0112  0.2006
22014W        W38148   5.718   0.259  17.119 -0.2004  0.0463  0.1243
22015W        W38149  12.375  15.920  16.766 -0.1034 -0.0409 -0.2431
22016W        W38150  14.576  10.830  15.530 -0.0706 -0.0243  0.1332
22017W        W38151  11.617  17.532  15.507 -0.1065  0.1684 -0.1481
22018W        W38152   6.187   3.070   5.497 -0.0146  0.0706  0.0203
22019W        W38153   1.645   2.144  12.991 -0.1746  0.0387 -0.0414
22020W        W38154   2.947  17.656   2.857  0.0111  0.0779 -0.2389
22021W        W38155  15.234   3.542  12.354  0.0267 -0.1549 -0.1483
22022W        W38156  16.645   7.834   5.316 -0.0558  0.0978 -0.0886
22023W        W38157   0.597   6.870   1.208  0.0925 -0.1585  0.0338
22024W        W38158   1.707   7.976   0.307  0.2246  0.2951  0.2178
22025W        W38159  17.130   0.732  13.432  0.4784 -0.2199  0.0020
22026W        W38160   2.479   2.361  13.388  0.2087  0.0579  0.0053
22027W        W38161   2.159  16.028  14.612  0.2486 -0.1025  0.1092
22028W        W38162   5.910  11.120   1.628  0.1225  0.2553  0.0469
22029W        W38163  14.453   3.260   5.030 -0.2583 -0.3829  0.1805
22030W        W38164   1.645   1.665   2.282  0.1268 -0.0870 -0.1341
22031W        W38165  16.576   0.411   3.598 -0.0158 -0.3082  0.3575
22032W        W38166   1.654  11.188   1.347  0.2638  0.0756  0.0048
22033W        W38167   3.037   5.316  16.148 -0.2231 -0.2511  0.3020
22034W        W38168  17.067  16.688  13.188  0.3085 -0.0219 -0.2409
22035W        W38169  12.845   8.294   4.651  0.1535  0.0988  0.2894
22036W        W38170   5.037  12.090  12.893 -0.0063  0.0357 -0.0997
22037W        W38171  11.668   2.685  12.055  0.2984 -0.1487  0.0948
22038W        W38172   8.554   2.941  13.538 -0.0085  0.1763  0.1263
22039W        W38173   4.988  17.182   0.115 -0.1605  0.0752 -0.0080
22040W        W38174   7.168   1.189   6.397  0.1473 -0.1823 -0.1718
22041W        W38175   9.332   7.804  16.026  0.1932  0.1020  0.0259
22042W        W38176   7.489   3.218  14.364  0.1694 -0.1028 -0.0123
22043W        W38177  13.869   1.124   2.580 -0.0851  0.2939  0.1726
22044W        W38178   5.787  14.630   2.357 -0.3896  0.1192 -0.0584
22045W        W38179  15.523  16.496   3.121  0.1078 -0.1178 -0.2668
22046W        W38180   4.201  15.643   2.454 -0.0786 -0.0612  0.1896
22047W        W38181  15.224   0.194   2.051  0.3070  0.0341  0.1964
22048W        W38182   3.653   9.687   1.926  0.0775  0.1091 -0.2725
22049W        W38183   9.805  14.547   2.954 -0.1310 -0.0338  0.0708
22050W        W38184  10.323  15.883  16.992 -0.0909  0.1018  0.0404
22051W        W38185   3.733   4.314  11.752  0.1415  0.0103  0.3027
22052W        W38186  17.478   8.521   0.903 -0.2775 -0.0913 -0.2328
22053W        W38187  12.633  15.019   5.035 -0.1317  0.0956 -0.0262
22054W        W38188   5.089  11.440  14.557 -0.2165 -0.0802 -0.0666
22055W        W38189   3.642  15.714   0.163  0.0231 -0.2661 -0.2801
22056W        W38190   6.078   9.312   4.050  0.1016  0.0556  0.1575
22057W        W38191  13.295  13.568  16.077 -0.4697  0.2930 -0.0042
22058W        W38192   7.839  10.982   2.191 -0.0492 -0.2973  0.0103
22059W        W38193   7.603   1.662  13.430 -0.0675 -0.0548  0.1110
22060W        W38194   3.713   5.623   1.040  0.0262  0.2438  0.1248
22061W        W38195  11.321  10.444   3.398  0.0228  0.2241 -0.0718
22062W        W38196  13.852   7.586   3.643  0.1347 -0.0912 -0.0796
22063W        W38197   5.414   3.446  12.297  0.3196  0.1616  0.1098
22064W        W38198  12.620   2.171  14.806 -0.0106  0.0945  0.0971
22065W        W38199  12.038   4.799  15.471  0.0670 -0.2189 -0.0189
22066W        W38200  15.257   5.845  13.610  0.2815 -0.0910 -0.1155
22067W        W38201   4.110  12.757   5.282  0.0239  0.0051 -0.1078
22068W        W38202   0.464   0.030  16.118  0.0877 -0.1317 -0.0229
22069W        W38203   7.184   5.044  13.130  0.1929  0.1337 -0.0322
22070W        W38204  15.964   5.995   3.830 -0.1467  0.2102  0.0302
22071W        W38205  16.909  10.558   2.585  0.1302  0.0410 -0.2068
22072W        W38206  16.906   9.460   3.139 -0.0473  0.2742  0.2365
22073W        W38207   9.198   1.305  14.512  0.0110  0.4660  0.1455
22074W        W38208  13.062  16.035   0.391  0.0013 -0.1868  0.0042
22075W        W38209   1.219   1.249   5.286  0.1655  0.0485  0.2820
22076W        W38210  12.308   8.553  15.090 -0.0593  0.1696  0.1460
22077W        W38211  11.575  13.504  13.904 -0.3387  0.1718  0.1625
22078W        W38212  11.690  14.845  15.880  0.0042  0.1249 -0.1819
22079W        W38213  11.229   1.587   5.846 -0.0482  0.1357 -0.0685
22080W        W38214   4.951   3.196  12.330 -0.1716  0.1249  0.0773
22081W        W38215   1.496  15.926  12.720  0.1199 -0.2583 -0.2153
22082W        W38216  12.471  10.147  13.664 -0.1646 -0.1045  0.0533
22083W        W38217  12.270  12.979  15.367  0.0322 -0.1206 -0.1682
22084W        W38218  17.451  10.371   1.810  0.0591  0.0165 -0.1036
22085W        W38219   9.910   4.771   3.225  0.0421  0.2061  0.0020
22086W        W38220  13.944   1.806  12.817  0.0663  0.0852  0.1914
22087W        W38221  10.684   6.285   3.533  0.0719  0.1034 -0.0997
22088W        W38222   7.924   2.535   1.217  0.2217  0.2243 -0.1666
22089W        W38223  15.550   0.803   3.697 -0.0176  0.1286 -0.0876
22090W        W38224   6.301  14.257   0.976  0.0263 -0.2091 -0.3432
22091W        W38225   7.298   1.044  15.915  0.0152 -0.0922  0.0244
22092W        W38226   0.563  12.361  13.486  0.0217  0.4360 -0.0994
22093W        W38227  10.143  12.811   3.556 -0.1416 -0.1133 -0.1076
22094W        W38228   7.154  11.502  12.235  0.0304  0.2373 -0.1930
22095W        W38229   0.223   7.211  15.250 -0.1214 -0.2400 -0.0029
22096W        W38230   7.929  17.362  16.597  0.0580 -0.1174 -0.1063
22097W        W38231   7.590  10.202  14.153 -0.1163 -0.0662 -0.3903
22098W        W38232   6.851  10.795  16.221  0.0399  0.0514 -0.1106
22099W        W38233   2.609   4.548  12.419  0.1126  0.0999 -0.1788
22100W        W38234   3.521   4.952   5.077  0.0595 -0.0183 -0.0599
22101W        W38235   8.118   5.617  13.872 -0.2916  0.0653  0.2017
22102W        W38236  17.610   2.653  15.356  0.1270  0.0966  0.0221
22103W        W38237   1.126  11.580  10.722 -0.1597 -0.1517 -0.2314
22104W        W38238   9.295   2.390  12.954 -0.3244  0.1587 -0.2713
22105W        W38239  16.781  13.040   4.089 -0.3593 -0.1160 -0.2718
22106W        W38240   6.697   1.551  17.008 -0.0694  0.3401 -0.2216
22107W        W38241  16.972  11.587   5.390 -0.1522  0.0582 -0.1067
22108W        W38242   8.536  15.179   0.381 -0.0795 -0.0150 -0.0566
22109W        W38243   9.812   0.578   4.932 -0.0575 -0.0384  0.2384
22110W        W38244   4.961   4.000   2.353 -0.2151 -0.0493 -0.1734
22111W        W38245  12.141   7.048   2.550 -0.0902 -0.1206  0.0364
22112W        W38246  12.618   4.707   1.967  0.2563  0.0516 -0.0795
22113W        W38247   7.194   9.540   5.092  0.0972 -0.1619 -0.0477
22114W        W38248   5.103   0.770  14.283  0.1766  0.1641 -0.0431
22115W        W38249  17.065  17.227   3.540  0.0492 -0.2658  0.1202
22116W        W38250  14.649   0.429   1.317 -0.0366  0.1744 -0.0651
22117W        W38251  16.939  13.489  14.183  0.1399  0.2135 -0.1176
22118W        W38252   3.524   3.864  14.998 -0.2835  0.2367 -0.1046
22119W        W38253  13.872   0.899  11.921 -0.2870  0.0748 -0.0588
22120W        W38254   1.515   9.669  17.048  0.1252 -0.2799 -0.1351
22121W        W38255  11.300  14.876  17.164 -0.1003 -0.2465 -0.1711
22122W        W38256   4.389  17.634   2.233 -0.0735  0.1077  0.0552
22123W        W38257   6.133   8.264  16.296 -0.1747  0.3246  0.0290
22124W        W38258   3.862   7.548  13.997  0.1913 -0.2023 -0.3171
22125W        W38259   0.480  14.016  13.797  0.0397 -0.0945  0.0253
22126W        W38260  13.806   6.101   2.325  0.2642  0.2761 -0.1876
22127W        W38261  15.744  11.676  16.706  0.1229  0.1490  0.1237
22128W        W38262   3.491  16.597  12.866 -0.4714 -0.3549  0.0667
22129W        W38263   5.743   8.889   0.863  0.0756  0.2650  0.2017
22130W        W38264   1.334   8.295   5.595  0.0165 -0.3863 -0.1149
22131W        W38265  11.510   5.727   1.735  0.0232 -0.3343  0.3148
22132W        W38266  15.357   6.997  16.845 -0.0537 -0.1423  0.4198
22133W        W38267  14.212  16.966   2.108 -0.0825 -0.1166  0.1087
22134W        W38268   8.808   2.388  15.672 -0.0601 -0.3668 -0.1898
22135W        W38269   7.008   8.215  15.803  0.1994 -0.1828 -0.0881
22136W        W38270   8.583  16.959   3.239 -0.1011 -0.0219 -0.1581
22137W        W38271  13.187  12.613   0.261  0.0416 -0.0204 -0.0118
22138W        W38272   3.715  11.879   3.848 -0.2318  0.2992 -0.0141
22139W        W38273   6.001  11.364   3.397 -0.1545  0.1338 -0.0502
22140W        W38274   6.303   9.856   2.244 -0.2081  0.1894  0.0268
22141W        W38275   4.099   7.218   4.076 -0.0296 -0.1158  0.1415
22142W        W38276  15.192   7.444  12.737  0.0405 -0.0478  0.0085
22143W        W38277   0.408   3.548   0.921  0.1366  0.1680 -0.1431
22144W        W38278   4.422  15.755   6.030  0.0408 -0.1907 -0.1138
22145W        W38279   0.039   2.660   6.251 -0.0539 -0.5252 -0.0334
22146W        W38280   6.368  14.466  13.146  0.2638 -0.4257 -0.0169
22147W        W38281   1.351   5.589   4.566  0.1923 -0.3056  0.0027
22148W        W38282   6.209   3.486   5.245  0.0156  0.2326 -0.1915
22149W        W38283   0.987   2.663  17.007 -0.2292  0.1173 -0.0245
22150W        W38284   7.786   1.522   0.161 -0.0477 -0.1340 -0.1287
22151W        W38285  14.491   3.383  15.830  0.2323 -0.2463 -0.0047
22152W        W38286   7.048  16.848  12.448 -0.1271  0.1923 -0.3087
22153W        W38287  10.456  14.843   5.477  0.2317 -0.3217 -0.0495
22154W        W38288  11.807  12.608  12.124  0.1729 -0.3534  0.1866
22155W        W38289   6.066  16.846  15.452  0.2670  0.0622 -0.0981
22156W        W38290  13.291   2.684   2.103  0.0629  0.1503 -0.0583
22157W        W38291   5.861   4.876  15.260  0.0558  0.1410  0.2327
22158W        W38292  14.168  14.629   1.842  0.2502  0.1909 -0.1886
22159W        W38293   2.390   9.570   4.865  0.1318  0.1567 -0.1084
22160W        W38294  13.936  16.912   5.287 -0.1565 -0.0591  0.3435
22161W        W38295  12.366   3.068  16.770 -0.0126 -0.0288 -0.1696
22162W        W38296   5.554  15.333  16.369 -0.0438  0.0316  0.0407
22163W        W38297  11.552   3.559   4.226  0.0281  0.2562 -0.0130
22164W        W38298   2.808   8.454   3.070 -0.1680  0.3699 -0.0411
22165W        W38299   3.377   9.530  15.263  0.1770  0.2893 -0.1272
22166W        W38300  14.497  12.093   1.244 -0.1467  0.0054  0.1352
22167W        W38301  14.193   0.570  14.014  0.1325 -0.1568  0.0634
22168W        W38302  12.930  13.942  16.930  0.1724  0.2204  0.1349
22169W        W38303   8.161   7.699   1.552 -0.0386  0.2821  0.1577
22170W        W38304   8.565   5.351  12.787 -0.5529  0.0635 -0.2565
22171W        W38305  14.320   4.681   0.706 -0.1759 -0.0173 -0.2477
22172W        W38306  16.888   5.271   0.003  0.0180  0.0596  0.0947
22173W        W38307   4.138  11.798  13.431  0.0327  0.0186  0.1697
22174W        W38308   9.074   5.060  15.431 -0.2780 -0.2192 -0.2616
22175W        W38309  15.697  12.717  14.158 -0.1389  0.3305 -0.0787
22176W        W38310   8.163  17.552   5.521 -0.1041 -0.2731 -0.4542
22177W        W38311   7.270   1.903  16.247  0.2635  0.2091  0.1158
22178W        W38312   8.713   6.654   4.708  0.2729 -0.0938 -0.1011
22179W        W38313   5.384   1.687   1.175  0.0348  0.2030 -0.1830
22180W        W38314  10.086   4.316  17.094 -0.0242  0.1280 -0.3099
22181W        W38315  11.004  13.926  13.090  0.0148  0.3880 -0.3214
22182W        W38316  12.348  12.548   0.581  0.2856  0.3158  0.1558
22183W        W38317   2.266   8.935   0.713  0.0362  0.2864 -0.1986
22184W        W38318   4.849  10.862   3.876  0.0006  0.1817 -0.0611
22185W        W38319   7.339  13.042   1.402  0.0115  0.2104 -0.2633
22186W        W38320  17.335   3.738  13.894  0.1813  0.1527  0.3393
22187W        W38321   9.098  15.844  14.163 -0.1071 -0.3880  0.1185
22188W        W38322   2.374   5.945  14.006  0.0163 -0.0596  0.2653
22189W        W38323   8.096   7.932   5.055  0.0919 -0.0001  0.0352
22190W        W38324   5.666   5.828   2.017 -0.1249 -0.1318  0.0915
22191W        W38325   0.077   0.635   5.882 -0.0580  0.0004  0.2230
22192W        W38326   7.876   1.070   5.467  0.0251  0.1443  0.1465
22193W        W38327  14.636   5.213   3.108  0.2099  0.1956 -0.1195
22194W        W38328   9.723   6.622   4.584  0.1662  0.0679 -0.2230
22195W        W38329   3.717  13.878   0.984  0.0452  0.0083  0.0042
22196W        W38330   2.926   0.334   6.301 -0.1939  0.0268  0.2724
22197W        W38331   6.232  17.349   0.670  0.3064  0.2694  0.3695
22198W        W38332   5.729  14.836  15.057 -0.0756  0.0152  0.3040
22199W        W38333  11.777   4.687  12.687  0.2746 -0.1585 -0.1930
22200W        W38334   8.977  11.246  14.029  0.2163 -0.0151 -0.1471
22201W        W38335   3.884   7.657   3.958 -0.0566  0.1236 -0.0568
22202W        W38336   7.466  15.301  14.887  0.1048  0.3619  0.0309
22203W        W38337  12.803   8.529  14.918 -0.1114 -0.1906  0.3430
22204W        W38338  14.981   6.083  15.676 -0.0088  0.0057 -0.0385
22205W        W38339  15.419  11.183  15.130 -0.2414 -0.1343  0.0074
22206W        W38340   8.794   5.722   5.128  0.2146 -0.1066 -0.1717
22207W        W38341   6.336   8.727  15.585  0.2661  0.0510 -0.3621
22208W        W38342   9.416  11.475   1.111 -0.2470 -0.1274 -0.1222
22209W        W38343  13.081  12.668   2.640 -0.2034 -0.1413 -0.1109
22210W        W38344   5.931   9.658  15.409  0.0847  0.2665 -0.1315
22211W        W38345   8.372   3.815   4.549 -0.1194 -0.1340 -0.1788
22212W        W38346  14.742   0.558   4.100  0.2124  0.1819 -0.0473
22213W        W38347   4.512  11.355   0.405 -0.0917 -0.2666  0.2596
22214W        W38348   5.553  14.037  15.513 -0.0774  0.5435  0.0524
22215W        W38349   4.428   1.771  11.808  0.0905  0.0957  0.2943
22216W        W38350   1.227   9.749  14.834 -0.1884  0.0119  0.0792
22217W        W38351   0.100  11.657   3.025 -0.0611  0.1019 -0.1124
22218W        W38352   8.307   2.781  16.254  0.2240  0.1688  0.0424
22219W        W38353  12.012   5.434  15.310 -0.1684  0.0431 -0.1964
22220W        W38354   2.403  17.484   0.145 -0.1378 -0.5065 -0.1184
22221W        W38355  17.453   1.388  15.620 -0.0619  0.2066 -0.1017
22222W        W38356   0.782   0.141   0.522 -0.1096  0.2905  0.0491
22223W        W38357  10.404  11.191   0.277  0.2740  0.2747 -0.0871
22224W        W38358  11.643  12.125   1.769 -0.0065  0.0188  0.3152
22225W        W38359  11.713   4.517  15.740 -0.0459 -0.0610 -0.0567
22226W        W38360  10.126  13.059  13.056  0.0962  0.1288  0.1161
22227W        W38361   1.881   6.085  13.048  0.2314 -0.0856  0.0441
22228W        W38362  12.171  12.923  14.296  0.2320  0.2301 -0.2963
22229W        W38363  13.310   0.422   5.703  0.0397 -0.0556 -0.0478
22230W        W38364   6.137  16.142   1.736  0.1340  0.1351  0.2888
22231W        W38365   8.012   2.708   4.051  0.0763 -0.0706 -0.0932
22232W        W38366  10.953   2.418  15.879  0.0415  0.2311  0.3008
22233W        W38367  10.624   9.297   2.511  0.2148 -0.0114  0.2621
22234W        W38368  16.881  13.097  12.464  0.0657  0.4099 -0.3395
22235W        W38369   0.515   8.604  11.780  0.1636  0.2759 -0.1620
22236W        W38370   1.460  16.676  12.542  0.1167 -0.0661  0.0196
22237W        W38371   6.813   9.012  14.086  0.1164  0.0380  0.1459
22238W        W38372   2.894   9.209  14.415 -0.2531 -0.0443  0.1042
22239W        W38373  14.710   9.412   4.221 -0.2185 -0.1373 -0.0439
22240W        W38374   1.187   5.806  14.793  0.1789  0.0873  0.4176
22241W        W38375  10.414   6.309  14.004 -0.2326  0.1661 -0.0609
22242W        W38376  17.648   8.047  16.005  0.2191 -0.0244 -0.0865
22243W        W38377   5.415   6.276   3.355  0.0421 -0.2580  0.2434
22244W        W38378  12.406  11.307  15.891  0.0063 -0.1651  0.1094
22245W        W38379   7.955   7.604  12.194  0.1363  0.0935 -0.3183
22246W        W38380   7.686  12.657   3.737  0.1095  0.2707  0.1120
22247W        W38381  13.319   8.494   2.161 -0.0702  0.0512 -0.1836
22248W        W38382   8.790   0.245  12.066  0.1920  0.0458  0.1081
22249W        W38383  12.989   5.116   0.229  0.3399  0.1109 -0.0694
22250W        W38384   3.645   2.944  11.725 -0.0130  0.1619 -0.1017
22251W        W38385  13.832   6.081   1.841 -0.2554 -0.1145 -0.1063
22252W        W38386  17.157  14.563   0.519  0.0324 -0.1557 -0.0181
22253W        W38387   4.756   7.946  15.053 -0.3272 -0.1030  0.1704
22254W        W38388   7.734   4.952  12.260  0.0477 -0.1133  0.1513
22255W        W38389  11.050  11.823  14.767 -0.1490  0.0555  0.2775
22256W        W38390  13.183   2.113  12.000  0.1061  0.1071  0.0833
22257W        W38391   6.311   1.748   2.492  0.1123  0.3838  0.1480
22258W        W38392  17.658  14.240   0.451  0.0200 -0.1448 -0.1649
22259W        W38393  15.819  15.504  16.051 -0.2170 -0.2610 -0.3074
22260W        W38394  10.422   4.814   3.189  0.0592  0.0880  0.1888
22261W        W38395  17.659   6.922  13.587 -0.2560 -0.1459  0.1678
22262W        W38396  17.571   2.111   5.682 -0.2108  0.2175 -0.1022
22263W        W38397   7.661  12.263  13.239  0.1887  0.1379  0.2680
22264W        W38398   3.840  16.380  13.209  0.0290  0.0968 -0.2495
22265W        W38399   7.195   6.134   0.772  0.0498 -0.0497  0.0369
22266W        W38400   8.603  10.749   4.605  0.3314  0.2709  0.1007
22267W        W38401   4.511  12.290  15.083 -0.3094  0.2761 -0.0730
22268W        W38402   9.236   0.657   2.248 -0.0979 -0.0534  0.3791
22269W        W38403   5.740   1.047   2.196  0.3240 -0.2056  0.1188
22270W        W38404   4.330   5.085   5.470 -0.3001  0.3856 -0.0106
22271W        W38405   3.375  11.753  15.031 -0.1369 -0.0930 -0.0514
22272W        W38406   9.629  14.556   3.432 -0.0367  0.3213 -0.0792
22273W        W38407   5.841  12.747  13.717  0.1053  0.1664  0.0721
22274W        W38408   4.343  10.998  15.543  0.0808 -0.0158  0.1192
22275W        W38409  11.416   7.960   0.236  0.0097  0.0620  0.1682
22276W        W38410   0.659   2.909   3.244 -0.0055  0.0579  0.3093
22277W        W38411   0.566   0.827   1.262  0.0913  0.2659 -0.0168
22278W        W38412  16.798   9.955  12.825 -0.3338 -0.3071  0.0427
22279W        W38413   5.929   5.497   1.700  0.0641  0.1595 -0.1328
22280W        W38414   9.281  11.253   3.531  0.1002 -0.3142  0.1390
22281W        W38415  14.339   3.683  14.860 -0.2001 -0.1957  0.0021
22282W        W38416  14.094   9.630  12.158  0.1460 -0.0238 -0.1708
22283W        W38417   7.820  12.590  14.919 -0.0425 -0.0217  0.0107
22284W        W38418  11.669   3.929  13.994 -0.3376 -0.2803 -0.2460
22285W        W38419   7.687   5.711   1.892 -0.1404  0.3305  0.0848
22286W        W38420   0.902  11.138  15.850  0.1444  0.0631 -0.0814
22287W        W38421   4.914  14.132  14.342  0.1430 -0.6389  0.0371
22288W        W38422   1.575   3.195  13.061 -0.0170  0.1280 -0.0627
22289W        W38423  11.392   5.965   3.224  0.1040 -0.0378 -0.2441
22290W        W38424   9.713  15.503   1.114 -0.1970  0.0638 -0.2277
22291W        W38425   7.760  11.050  12.519 -0.0787 -0.1273 -0.0567
22292W        W38426   5.396  14.673  13.046  0.4520  0.1672 -0.1229
22293W        W38427   0.974   2.694  16.459 -0.0262  0.0458 -0.0883
22294W        W38428   7.789   7.663  16.773  0.0260  0.1051  0.0041
22295W        W38429   1.299   1.957  14.371 -0.0938 -0.1209 -0.2323
22296W        W38430  10.884   1.084   1.370 -0.1804  0.6349 -0.0249
22297W        W38431   2.333  14.849  13.908 -0.1689 -0.2159 -0.0809
22298W        W38432  10.597   2.073   3.697  0.0585  0.1070 -0.2912
22299W        W38433   8.208  10.315   1.791 -0.3167 -0.0725 -0.0311
22300W        W38434  17.104  14.520  16.562  0.1541  0.0138  0.3302
22301W        W38435   6.309   6.944   4.943 -0.0601 -0.1866  0.0392
22302W        W38436  11.273   7.811   4.673 -0.0624 -0.2371 -0.1172
22303W        W38437  16.808  17.237   2.272  0.1458 -0.2420  0.1940
22304W        W38438  10.403   1.694   6.051  0.1175 -0.0441  0.0054
22305W        W38439   1.503  15.471  15.260  0.2188  0.0203 -0.1653
22306W        W38440  13.538  15.268   3.704  0.3038 -0.0065 -0.2169
22307W        W38441  15.312   8.343   2.636 -0.0427 -0.2596  0.2837
22308W        W38442   6.098   0.604  11.618  0.1348 -0.1712  0.1821
22309W        W38443  16.299  16.753  12.312 -0.1676  0.2416  0.0162
22310W        W38444   4.958  14.250   5.268  0.3485 -0.1141  0.0866
22311W        W38445   2.913   5.882   1.628 -0.0019 -0.0649 -0.1221
22312W        W38446   9.965   9.315  14.082  0.0366  0.1075  0.1468
22313W        W38447  16.429   3.938   3.632  0.0953 -0.1152  0.4906
22314W        W38448  16.997   3.302  15.263  0.1794  0.2146 -0.2105
22315W        W38449   6.609   8.661   1.647 -0.0892  0.2040  0.0596
22316W        W38450   5.630   3.015  13.585  0.0650 -0.0410  0.0804
22317W        W38451  14.775  12.044  12.227  0.2840 -0.4873  0.1227
22318W        W38452   1.674   3.764   4.515 -0.0671  0.2202 -0.0247
22319W        W38453   0.119  12.409  14.040  0.1999  0.3495  0.3405
22320W        W38454   0.119   6.133   1.241 -0.2928  0.2471 -0.0779
22321W        W38455   3.071   1.207  13.917  0.0011  0.2200 -0.3102
22322W        W38456   3.586   6.330  13.541 -0.0139  0.0609 -0.0809
22323W        W38457   6.572   6.929   3.853 -0.1009 -0.2977  0.3742
22324W        W38458   3.941  10.303  13.494 -0.1220 -0.0811  0.2785
22325W        W38459  12.184  10.908  17.140 -0.0260 -0.0140  0.0621
22326W        W38460  10.993  12.514   2.789 -0.0366  0.0658  0.2248
22327W        W38461  17.018  15.167  15.257 -0.0273 -0.1530  0.1366
22328W        W38462  12.523   4.330   5.341 -0.0931 -0.1780 -0.0046
22329W        W38463   3.740   5.816   5.598 -0.1351 -0.0457 -0.1605
22330W        W38464  11.510   5.420  10.373  0.0219  0.2863 -0.0603
22331W        W38465   3.765   4.955  15.402  0.1923 -0.2764  0.3528
22332W        W38466  11.842   4.505  11.737  0.0388  0.0349 -0.1702
22333W        W38467   8.656  16.465   0.311 -0.1473  0.2029 -0.2015
22334W        W38468   9.602  17.113  13.575  0.0878  0.3221 -0.4852
22335W        W38469  15.921   7.058   3.113  0.1070 -0.1285  0.1629
22336W        W38470   4.803  14.492   3.530 -0.0649  0.0412  0.1076
22337W        W38471   8.516   9.118   2.396  0.0654  0.1191  0.0080
22338W        W38472   6.605  13.386   3.595  0.1154 -0.1446 -0.1701
22339W        W38473   1.748  10.427   2.487  0.0658  0.0227  0.0284
22340W        W38474   6.654   9.775  12.366  0.0900  0.1452  0.0128
22341W        W38475  13.949   9.375   4.871  0.0050 -0.1477  0.0550
22342W        W38476   8.577   4.393   2.878 -0.4377 -0.0433  0.7628
22343W        W38477   6.883   3.189  14.996 -0.1926  0.0691 -0.3434
22344W        W38478  10.579  13.514  11.892  0.0410  0.0309  0.0671
22345W        W38479   4.167   4.238  13.879  0.1881  0.0587  0.0160
22346W        W38480  11.073   7.561   2.561  0.3073  0.0567  0.0858
22347W        W38481  16.267  12.514   1.477  0.3166  0.1741  0.0690
22348W        W38482  12.833  15.532  13.869 -0.1508  0.1625  0.0741
22349W        W38483   4.687   8.526   4.623 -0.0479  0.2904 -0.2224
22350W        W38484  12.578   9.203   5.119 -0.0858 -0.1873  0.0766
22351W        W38485  11.459   9.175  11.379 -0.2534 -0.0884 -0.0191
22352W        W38486   4.617   0.198   2.939  0.0709 -0.2746 -0.0700
22353W        W38487  12.273   1.738   5.800 -0.0560  0.2005 -0.3294
22354W        W38488  11.662  12.570  13.308  0.0516 -0.2248  0.0104
22355W        W38489   2.285  14.962  14.980  0.2144 -0.1609  0.2157
22356W        W38490   6.262   1.645   5.057 -0.1808 -0.1307  0.0982
22357W        W38491   3.845  11.541  13.854  0.0738 -0.0485  0.0296
22358W        W38492  17.362   8.484  11.272 -0.2114 -0.0682 -0.1829
22359W        W38493  17.167  16.712   3.530 -0.0796 -0.1316  0.0763
22360W        W38494  11.659   8.601   3.299 -0.0057  0.0456  0.0763
22361W        W38495   9.259  13.624  13.915  0.0753  0.1142  0.0208
22362W        W38496   5.044   3.712  16.403 -0.1479 -0.0648  0.1114
22363W        W38497  17.590  14.198  12.266 -0.0263  0.0911  0.1447
22364W        W38498   8.343   6.051   2.416 -0.0435  0.1879 -0.0712
22365W        W38499  15.314  10.880   2.689  0.3028  0.1133  0.0494
22366W        W38500  10.260   7.239  11.831 -0.1498 -0.2160 -0.0812
22367W        W38501  13.733  14.868   4.437  0.2360 -0.1852  0.0379
22368W        W38502  14.027  13.994  17.066  0.0122  0.1916  0.2180
22369W        W38503  12.841   6.193  17.139 -0.2285 -0.0960  0.0372
22370W        W38504   4.749   8.229  15.605 -0.0350 -0.2079  0.2691
22371W        W38505  15.099   3.762   0.182 -0.3678 -0.0542 -0.2314
22372W        W38506   3.914   5.247  14.373 -0.0331  0.0782  0.2497
22373W        W38507   8.940   9.647  16.430  0.0037 -0.2067  0.1910
22374W        W38508   4.858  14.494  14.891  0.1363  0.1883 -0.0941
22375W        W38509   3.452   1.441  15.631  0.1652  0.0012 -0.0564
22376W        W38510  15.301   4.450   2.210  0.3180 -0.1595  0.2027
22377W        W38511  16.119   5.549  15.824  0.1414  0.1668  0.0680
22378W        W38512  14.800  11.563  16.728  0.0513 -0.1536 -0.3214
22379W        W38513  11.796  12.629   3.996  0.0150  0.1852  0.2639
22380W        W38514  14.938  12.798  14.630 -0.0378  0.0666  0.1793
22381W        W38515   0.256   4.038   2.162  0.0162  0.0728 -0.0958
22382W        W38516   7.953  10.187  16.847 -0.0144  0.0229  0.1754
22383W        W38517  12.471   9.609   3.390  0.0734 -0.0349  0.0535
22384W        W38518   4.061   6.376  16.020  0.1049  0.0480  0.3443
22385W        W38519  15.498   5.399  12.805  0.2446  0.3541  0.0670
22386W        W38520  15.608   4.769   2.729 -0.3327  0.1445  0.1993
22387W        W38521   1.270  12.565   5.276  0.4269  0.1575  0.2719
22388W        W38522  16.023   9.776  15.831  0.3080  0.0368  0.0796
22389W        W38523   0.410   8.691  13.297 -0.0390 -0.0198  0.1063
22390W        W38524  14.646  14.132  13.234  0.3786  0.1577  0.3002
22391W        W38525  12.066  14.557   1.220 -0.0036 -0.2063 -0.1479
22392W        W38526   6.187   9.140   4.932 -0.2391  0.0681 -0.0061
22393W        W38527   2.035  12.255   2.269  0.1046  0.2253  0.0885
22394W        W38528   2.153   2.619  14.136  0.3384 -0.2815  0.0518
22395W        W38529  16.785  13.363   2.303 -0.0874 -0.1139  0.0800
22396W        W38530   5.384   2.035  13.422 -0.1554 -0.1316 -0.1324
22397W        W38531   6.428   6.702   0.675 -0.1689 -0.0295  0.0589
22398W        W38532   2.582  17.228   2.147 -0.0327  0.0004  0.0896
22399W        W38533  11.112  17.401   2.267  0.2174  0.0190  0.0039
22400W        W38534  16.649   7.115  16.009 -0.2369  0.2049 -0.0968
22401W        W38535  11.522  12.980  15.074  0.2279 -0.1821  0.0163
22402W        W38536  10.186  12.043   4.478  0.1741  0.2020  0.1843
22403W        W38537  17.628  13.337  17.165 -0.0822 -0.1061 -0.0919
22404W        W38538  17.031   2.406  16.936 -0.3832 -0.2377  0.1303
22405W        W38539   4.634  13.201  15.697  0.0574 -0.1350  0.2342
22406W        W38540  13.419  11.988   4.939 -0.2359 -0.0759  0.1354
22407W        W38541   1.299   9.632  11.774 -0.0794 -0.1471 -0.2846
22408W        W38542   7.927   0.806   2.865  0.1833  0.0508  0.2477
22409W        W38543   5.411   1.587  13.156 -0.0216 -0.1815  0.1512
22410W        W38544  12.778   6.312   0.882 -0.0263  0.0112  0.1788
22411W        W38545  11.876  12.842  16.371  0.0023  0.0817  0.1925
22412W        W38546  13.354   2.409  14.364  0.1734  0.2340 -0.1842
22413W        W38547  17.273  14.096  11.014 -0.2288  0.0480  0.0405
22414W        W38548  11.969   8.589  12.795 -0.3709 -0.1395  0.3113
22415W        W38549  12.428  14.522   3.053  0.0472  0.0526 -0.1001
22416W        W38550   1.611  16.270   3.021 -0.0431  0.1566  0.3466
22417W        W38551  11.785   7.670   1.831  0.3579  0.2839 -0.0873
22418W        W38552   3.415  10.067   0.872  0.0015 -0.2299  0.1085
22419W        W38553  14.505   3.951   0.609 -0.0112 -0.0721  0.0806
22420W        W38554   1.161   9.978   4.063 -0.0239 -0.1236 -0.1438
22421W        W38555   7.432   8.322   4.624 -0.0688 -0.4885 -0.0304
22422W        W38556  12.621   4.581  16.403 -0.0338  0.0653  0.2703
22423W        W38557   7.357   5.192  15.923 -0.1277  0.0155 -0.1586
22424W        W38558   8.116  15.033   4.594  0.0160 -0.1080 -0.2380
22425W        W38559   0.302  11.679  15.575 -0.0298  0.1410  0.1440
22426W        W38560   2.912  15.355  15.702  0.1441  0.0715  0.0207
22427W        W38561  15.838  16.269   1.068  0.0476 -0.1618 -0.0834
22428W        W38562  14.042   6.347  11.921 -0.0925 -0.0046 -0.1107
22429W        W38563   4.803   2.165   3.285 -0.0397  0.0149 -0.1215
22430W        W38564   8.235   0.771   3.305 -0.4416 -0.3856 -0.0455
22431W        W38565   2.513   7.177   0.503  0.1149 -0.1371  0.1206
22432W        W38566   5.522   0.990   4.647  0.0866  0.2090 -0.0807
22433W        W38567   4.550  10.186   3.137 -0.0731 -0.2217  0.2703
22434W        W38568   7.977   0.649   1.616  0.2319  0.2882 -0.1569
22435W        W38569   3.553   7.417  14.777 -0.2842 -0.2226  0.2097
22436W        W38570   1.653   9.402  14.520 -0.2020  0.1723  0.0738
22437W        W38571   2.944   7.102  12.451  0.2058  0.6357  0.2094
22438W        W38572   8.706   0.647   0.966 -0.0272  0.0309 -0.3674
22439W        W38573  15.968   3.167   3.622 -0.0602  0.1698 -0.1205
22440W        W38574  16.061   7.848  11.195 -0.1919  0.0981 -0.0067
22441W        W38575   8.315  10.153  13.427 -0.0644 -0.0821 -0.2056
22442W        W38576  14.679  16.024  15.431  0.3203 -0.1258  0.1883
22443W        W38577   4.267   7.317  13.916  0.3278  0.3926 -0.0790
22444W        W38578  12.313   2.651   4.212  0.1908 -0.2749 -0.0210
22445W        W38579  14.816   5.523  12.858 -0.2022 -0.1326 -0.1731
22446W        W38580  15.360   3.112  12.124  0.1734 -0.0531  0.1270
22447W        W38581   4.118  13.943  13.022 -0.2771  0.3238  0.0180
22448W        W38582   7.505   5.615  16.314 -0.3851  0.0468  0.0720
22449W        W38583   0.492   3.748  17.046  0.1111  0.2308  0.1707
22450W        W38584   3.748   9.028  12.009  0.2281 -0.0962 -0.1271
22451W        W38585  11.854   7.311  16.379  0.1200 -0.0552  0.1576
22452W        W38586   0.866   5.827   5.926  0.0596  0.1619 -0.0761
22453W        W38587   4.860  17.648   3.956 -0.1027  0.1535 -0.0948
22454W        W38588  12.294   6.898  17.064 -0.2268  0.2494 -0.3861
22455W        W38589   8.863  13.858   1.477 -0.1694  0.2100 -0.4463
22456W        W38590   5.778  15.572   1.150 -0.0546  0.4538 -0.1375
22457W        W38591   0.446   8.319   1.557  0.0158 -0.1300  0.0992
22458W        W38592   4.281   4.710   0.127 -0.3248 -0.0042  0.1115
22459W        W38593  11.777   7.511  11.197 -0.0795  0.1239  0.2451
22460W        W38594  16.309   6.350  15.368 -0.2947  0.1604  0.0727
22461W        W38595   5.212   8.864   5.020 -0.0631  0.1862  0.1847
22462W        W38596  10.067  12.180   2.409  0.0542  0.0971  0.1852
22463W        W38597   8.531   9.752   0.102 -0.0522 -0.0817 -0.1861
22464W        W38598   2.332  10.844  13.639  0.0832  0.0652  0.0067
22465W        W38599   6.953   6.266   2.489  0.0827 -0.0329  0.3446
22466W        W38600  17.653   3.342   2.299 -0.1062 -0.1333  0.1642
22467W        W38601  13.152   9.768   1.524  0.2717 -0.1203 -0.2940
22468W        W38602   5.030  17.116  16.567 -0.1146  0.3267 -0.1427
22469W        W38603  12.266   4.151   4.321  0.0356 -0.1621  0.1173
22470W        W38604   0.367   7.702  14.819 -0.0169 -0.0479 -0.1151
22471W        W38605  16.906  15.536  15.687 -0.3246  0.0208 -0.1706
22472W        W38606   5.448  13.403  15.888  0.0341 -0.0767 -0.3888
22473W        W38607   1.659   6.280  11.227  0.0431 -0.1634 -0.1736
22474W        W38608  14.260  15.001   4.272  0.0063 -0.2137  0.1105
22475W        W38609  17.423  14.688  13.263  0.0508 -0.0772 -0.3533
22476W        W38610   9.348   9.315   0.111 -0.2173  0.1329  0.0149
22477W        W38611  11.006   3.041  12.331 -0.1751  0.1351 -0.0722
22478W        W38612  14.084   2.837  10.887  0.2708 -0.0616 -0.1750
22479W        W38613   2.390   4.198  11.573  0.0223 -0.3955 -0.4512
22480W        W38614  12.452   6.439  15.760 -0.0965 -0.0049 -0.0871
22481W        W38615   2.979  10.493   1.924 -0.1219  0.2053  0.1493
22482W        W38616   4.552  16.959  13.814  0.1413 -0.0863  0.0960
22483W        W38617   1.239   4.221   5.546  0.1467  0.0763  0.1977
22484W        W38618  13.384   2.239  14.844 -0.0040 -0.0013 -0.1781
22485W        W38619   3.888  15.418   4.940  0.0369  0.1919  0.1814
22486W        W38620   6.409   0.668   2.455  0.1246 -0.2554  0.0742
22487W        W38621  13.059   8.786  15.469  0.1894  0.1137 -0.0519
22488W        W38622   6.256   7.264   1.537 -0.2544  0.2313 -0.0623
22489W        W38623  14.155   2.823  13.079 -0.0074  0.3531  0.2443
22490W        W38624   2.274   5.307  14.413 -0.1451  0.2444 -0.1821
22491W        W38625   5.540   6.322  16.932 -0.3785  0.2221 -0.0972
22492W        W38626   9.288   8.928   1.379 -0.3100 -0.0011 -0.1554
22493W        W38627   1.994   5.506  16.527 -0.3361  0.1480  0.2480
22494W        W38628   8.167  13.765   1.269 -0.2407  0.2019  0.2656
22495W        W38629   1.651   0.337   2.616  0.1666  0.0442  0.0890
22496W        W38630   4.237  15.294   5.927 -0.1787 -0.0907  0.2043
22497W        W38631   5.255   7.665  15.136  0.1398 -0.0910  0.1245
22498W        W38632  14.739   2.830   5.170 -0.0873 -0.0067  0.0392
22499W        W38633  12.574   0.428   3.436 -0.0220 -0.2110  0.1291
22500W        W38634  13.376  13.244  16.618 -0.0454  0.2186  0.0653
22501W        W38635   6.212   1.465   1.556 -0.1453 -0.3337 -0.0609
22502W        W38636   4.192  12.661   0.323  0.2996 -0.1876 -0.0101
22503W        W38637  11.069   1.204  13.825 -0.4715  0.1484  0.0357
22504W        W38638  12.077   0.314  14.173 -0.3141 -0.1282  0.0043
22505W        W38639  11.101  14.911  13.781  0.1384  0.1065 -0.4579
22506W        W38640  10.341   8.340  12.525  0.0720 -0.1435  0.3120
22507W        W38641   6.003   7.435  16.510 -0.1399 -0.3311 -0.1885
22508W        W38642  14.830   9.128  11.849 -0.1740  0.0579 -0.1366
22509W        W38643   7.969   4.897   0.068 -0.2604  0.1169 -0.0301
22510W        W38644   1.234   2.884   1.793 -0.3236 -0.0098 -0.0688
22511W        W38645  10.835   6.747   2.814 -0.2261 -0.0203 -0.2965
22512W        W38646   7.457   9.638  11.842  0.1279  0.3392  0.0567
22513W        W38647   0.525   1.760   0.294  0.0359 -0.1809 -0.0103
22514W        W38648   2.497   3.029   0.124 -0.0312  0.2295  0.0791
22515W        W38649   3.198   0.693   6.006  0.0439  0.2587 -0.1513
22516W        W38650  11.271   6.338  13.316 -0.0341  0.1687  0.1244
22517W        W38651   4.030  12.642  13.887 -0.1163  0.0765 -0.1205
22518W        W38652  15.804   0.835   2.378 -0.0784  0.0062 -0.1926
22519W        W38653   5.739  13.813  16.951 -0.3942  0.3191  0.0962
22520W        W38654   8.588  13.196   0.812  0.0135  0.1734 -0.0760
22521W        W38655   2.576  12.429   3.872 -0.1136  0.1913  0.1088
22522W        W38656  14.971  11.565  15.894 -0.0741  0.2642  0.0245
22523W        W38657  14.325   6.762   1.581 -0.0413  0.1751  0.2424
22524W        W38658  17.467  11.294   1.807 -0.3254 -0.1274  0.0716
22525W        W38659   5.486   8.969  15.924 -0.0408  0.1986  0.0994
22526W        W38660  12.169  11.711  13.394 -0.3062  0.2301  0.0892
22527W        W38661   3.176   1.010   1.079 -0.2582  0.0532 -0.1540
22528W        W38662  12.423   5.342  14.672 -0.0783  0.1071  0.0176
22529W        W38663  13.004  14.379  15.300  0.3188 -0.0129  0.1889
22530W        W38664  16.002   0.644  15.358  0.2205 -0.1730 -0.1869
22531W        W38665  16.142  16.478   0.719 -0.4758  0.2815 -0.2675
22532W        W38666  15.359   0.532  16.354  0.1039  0.0399 -0.1357
22533W        W38667   7.749   2.637   3.248  0.4167  0.2091  0.0680
22534W        W38668   6.733   7.437   0.064 -0.1903  0.3121  0.0679
22535W        W38669  16.459  12.754  14.778 -0.1456  0.3857  0.0769
22536W        W38670  11.692   4.491   2.034 -0.2490 -0.2054  0.0731
22537W        W38671  15.795   0.650  16.776  0.1642 -0.0983  0.0647
22538W        W38672  16.300   9.544  14.692 -0.3424 -0.1128  0.1404
22539W        W38673   6.882   7.489  14.173  0.1779 -0.2366  0.1071
22540W        W38674   6.485   3.364  15.924 -0.1973 -0.1709 -0.0533
22541W        W38675   4.190  12.302   4.999 -0.1669  0.0152 -0.0553
22542W        W38676   8.360  16.142  16.964 -0.0589  0.0756 -0.0933
22543W        W38677   0.555  16.389   1.805  0.1066  0.1845  0.0534
22544W        W38678  11.228   7.298  11.910  0.3755 -0.0455  0.0774
22545W        W38679   1.855  11.836   4.376 -0.1359  0.2383  0.2559
22546W        W38680   4.705  14.044   4.462  0.0690  0.0456  0.1537
22547W        W38681   3.588  12.857  12.177  0.0004 -0.2179  0.0025
22548W        W38682   7.091   5.599   2.540  0.0029 -0.1666  0.0621
22549W        W38683   8.232   9.057  16.764  0.0663 -0.0215 -0.2821
22550W        W38684   1.086  16.982  16.191 -0.1934  0.1281  0.2012
22551W        W38685  14.431  16.858   2.605 -0.2763  0.1517 -0.1289
22552W        W38686  14.324   6.194  14.181  0.3002  0.2429 -0.0893
22553W        W38687   4.117  12.318  12.510 -0.1442  0.0764 -0.0622
22554W        W38688  16.892   7.451  15.632  0.0357  0.1705  0.1113
22555W        W38689   5.098   9.253  13.160  0.1638  0.1540 -0.2452
22556W        W38690   6.255  10.873  14.585 -0.0231 -0.0578 -0.1023
22557W        W38691   3.136   2.109   2.392 -0.0370  0.2426 -0.2298
22558W        W38692  11.415   4.697   1.662 -0.2326  0.0151 -0.3243
22559W        W38693  17.562   7.853   2.097 -0.2700 -0.1048  0.2789
22560W        W38694  17.295  10.154  10.216  0.0177 -0.0345  0.1929
22561W        W38695  10.985   7.495  16.155  0.0141 -0.4097  0.1298
22562W        W38696   2.161   9.163  15.470  0.2468  0.1441  0.1792
22563W        W38697  16.696   1.660  13.784 -0.0492  0.2116  0.0144
22564W        W38698   8.749  12.660  14.501  0.0033 -0.2998  0.0818
22565W        W38699  17.492   4.184   1.961 -0.0984 -0.1418  0.0721
22566W        W38700   6.624  10.601  13.843 -0.0770 -0.1640  0.1938
22567W        W38701  13.166   0.932   5.468 -0.2255  0.0700  0.1326
22568W        W38702  15.208  11.115   0.397  0.1206 -0.2324  0.0644
22569W        W38703  13.480  12.333   0.644  0.0915 -0.3468  0.2330
22570W        W38704  16.056   9.671   0.465 -0.1055 -0.0605  0.1422
22571W        W38705   2.189   0.314   1.797  0.0929 -0.0287 -0.1373
22572W        W38706  16.146   2.792  17.099 -0.2059  0.0089  0.1109
22573W        W38707  13.081   6.121   4.212 -0.3601 -0.3476 -0.1301
22574W        W38708  11.677  15.260  12.304  0.0760  0.0827 -0.1150
22575W        W38709  16.859  16.831  16.471  0.0548  0.5521 -0.0253
22576W        W38710   6.275  14.026   2.348 -0.1468  0.1428  0.1467
22577W        W38711   5.988   7.093   6.041 -0.1928 -0.3102 -0.1315
22578W        W38712  15.901  16.276  14.855 -0.4323  0.2385  0.0847
22579W        W38713  16.940   2.147  13.282  0.2430 -0.1044 -0.1295
22580W        W38714   3.790  15.459  16.012 -0.0068 -0.0899 -0.0433
22581W        W38715   4.793  15.021  15.453 -0.0662 -0.1318 -0.0186
22582W        W38716  11.702  12.780   3.502  0.5571 -0.2117 -0.1860
22583W        W38717   1.282   9.338   6.280 -0.0221  0.3015 -0.2371
22584W        W38718   5.093   9.880   0.120  0.0500 -0.1407  0.0701
22585W        W38719   1.392   8.941  16.733 -0.0209  0.1657  0.1131
22586W        W38720  15.658  13.560   2.273  0.1376  0.1126  0.1891
22587W        W38721   1.536  10.749  14.992  0.0754 -0.1016 -0.1831
22588W        W38722   7.843   6.090   2.948 -0.0796  0.2172 -0.2361
22589W        W38723   2.434   2.965  13.921  0.0235  0.0975  0.2012
22590W        W38724  14.068   3.988  11.505 -0.1702  0.0517 -0.0921
22591W        W38725   7.234   3.936  16.347  0.1266 -0.1927 -0.1713
22592W        W38726  14.349   9.389  15.121 -0.3124 -0.0632 -0.0175
22593W        W38727   3.636  17.022   3.778 -0.0146  0.0815 -0.3462
22594W        W38728  15.727  17.582  12.916  0.1433  0.1246 -0.1348
22595W        W38729  13.914   6.423  14.173  0.1280  0.1161 -0.1240
22596W        W38730  14.248   1.910  14.041 -0.2510  0.0593  0.1635
22597W        W38731   6.269   7.634   0.256 -0.0050 -0.3598 -0.1051
22598W        W38732  12.085  12.683  14.752  0.2687 -0.0181 -0.0657
22599W        W38733   0.362   3.323   3.324 -0.2498  0.2319 -0.0600
22600W        W38734   9.358  15.429   2.278 -0.3118 -0.0037 -0.1365
22601W        W38735  17.354   3.665   1.057  0.1861 -0.0313 -0.2455
22602W        W38736   9.043  17.007   2.240  0.2924  0.2627  0.2669
22603W        W38737   0.510  13.717   1.395  0.0930  0.3053  0.2314
22604W        W38738   3.814   2.220   2.834 -0.1447 -0.0116 -0.2114
22605W        W38739  13.161  10.331   3.060 -0.0752 -0.4446  0.0615
22606W        W38740  16.786   7.243   1.156  0.2007 -0.0517  0.0630
22607W        W38741   6.371   4.134  11.877 -0.0528  0.4032 -0.3486
22608W        W38742   5.460  16.501  16.035 -0.0509 -0.0478 -0.0203
22609W        W38743  17.436   0.335  13.284 -0.1266 -0.1103 -0.1064
22610W        W38744  15.916  15.545  13.050  0.1053 -0.1054  0.1458
22611W        W38745   0.514   3.342   2.795 -0.2420  0.0601 -0.1749
22612W        W38746   9.648   3.134   0.159  0.0730  0.0807 -0.0472
22613W        W38747  13.915  12.666   0.874 -0.2125  0.1381  0.0806
22614W        W38748   7.843   7.964  11.795 -0.0804 -0.1428 -0.0982
22615W        W38749  11.567   9.545   3.404 -0.1065 -0.2533 -0.0811
22616W        W38750   0.815  11.704   5.733  0.1804  0.0843 -0.1773
22617W        W38751   4.110   9.243  13.603 -0.1680 -0.2442  0.0797
22618W        W38752   0.112  10.146  13.045 -0.2119  0.2022  0.2712
22619W        W38753   1.202  13.535   4.975 -0.0339  0.0728 -0.2247
22620W        W38754  15.260   8.405   0.507  0.1710  0.0088  0.2323
22621W        W38755  15.158  14.847   2.686 -0.0338  0.0079  0.2645
22622W        W38756   8.586   6.406   0.969  0.1326 -0.1050 -0.0725
22623W        W38757   6.140   1.062  16.605 -0.1454  0.0700  0.0442
22624W        W38758  13.629  16.975   3.137 -0.1740  0.1040 -0.0927
22625W        W38759   9.170  11.160   1.515  0.1478  0.1122  0.0014
22626W        W38760  17.077   6.710   1.573  0.2763 -0.1514 -0.1692
22627W        W38761  16.906  14.229   2.807 -0.1286  0.2093 -0.0420
22628W        W38762  16.949   8.641  13.933 -0.1533  0.3713  0.0002
22629W        W38763  14.919   5.767   2.887 -0.1498 -0.1727  0.1134
22630W        W38764  10.557   5.083   2.713  0.1128 -0.1800 -0.1399
22631W        W38765  17.111   5.514  16.083  0.0752  0.0080  0.2480
22632W        W38766  11.161   7.208  17.170 -0.1800  0.3340  0.0484
22633W        W38767  11.916  12.044  13.108  0.1918 -0.0818 -0.0220
22634W        W38768   0.355   6.910   3.140 -0.0727 -0.0038  0.1306
22635W        W38769   4.865  16.610   3.259 -0.1836 -0.0470  0.3028
22636W        W38770   0.818   0.104  15.749 -0.0782 -0.2733 -0.0398
22637W        W38771   0.900   2.111   1.264 -0.1113 -0.1957  0.0957
22638W        W38772  13.922  15.263   4.642 -0.1661  0.2708  0.0595
22639W        W38773   9.923  13.610  13.082  0.2422 -0.3477  0.0893
22640W        W38774   1.564   6.356   0.381 -0.0167 -0.0845 -0.1592
22641W        W38775   1.209  17.454  16.054  0.2100 -0.0145  0.0599
22642W        W38776   5.000  10.590  14.137  0.0135 -0.0204 -0.0625
22643W        W38777   6.553  14.382   1.945  0.0734  0.0026 -0.0211
22644W        W38778  12.703  14.805  16.115  0.2509 -0.1419  0.0600
22645W        W38779   9.252  14.481  12.929  0.1717 -0.1142 -0.0821
22646W        W38780  17.057   0.449  12.861  0.1290  0.2984 -0.0883
22647W        W38781   9.859   0.054   3.704 -0.1570  0.1892 -0.1953
22648W        W38782  13.515  15.769  14.940 -0.2438  0.1065  0.1026
22649W        W38783   6.341  13.737   1.064 -0.0668  0.0884 -0.2196
22650W        W38784  14.028   3.315  15.058 -0.1466  0.1555 -0.4102
22651W        W38785   7.422   0.963  16.989 -0.1817 -0.1526 -0.1093
22652W        W38786  12.758   8.948   4.218 -0.2330 -0.0058  0.2970
22653W        W38787   6.439   8.698  14.968 -0.1896 -0.0195 -0.1804
22654W        W38788   8.218  10.095   3.218 -0.0454  0.1587  0.0535
22655W        W38789  11.876  10.950  16.466  0.0604 -0.2380  0.0056
22656W        W38790   6.190  15.853   0.003  0.2785 -0.1697 -0.0205
22657W        W38791   7.330   1.615   4.771 -0.2827 -0.2135 -0.0655
22658W        W38792   4.394   9.445  12.210  0.0919 -0.0727  0.1825
22659W        W38793   6.234  15.544   2.625 -0.3585  0.1739  0.0531
22660W        W38794   6.519  12.180   6.018  0.1422 -0.2712 -0.2125
22661W        W38795   6.682  10.760   5.447 -0.0038 -0.1227  0.0929
22662W        W38796  17.567  10.856   2.159 -0.0500  0.0171 -0.0573
22663W        W38797   6.983   5.336  14.571  0.2645 -0.1602 -0.0238
22664W        W38798   2.204   3.230   5.657  0.2353 -0.1050 -0.0631
22665W        W38799   9.721  13.292  13.398 -0.0104 -0.1735  0.1287
22666W        W38800  15.359  15.756   2.371 -0.0830  0.1936 -0.2624
22667W        W38801  12.889  12.420   1.408 -0.0210 -0.1121  0.0093
22668W        W38802  13.835   4.978   5.381  0.0210 -0.1691 -0.2124
22669W        W38803   6.050  11.652   5.279 -0.1443  0.2581 -0.2632
22670W        W38804   5.438   1.073   6.145 -0.0081 -0.1291 -0.3148
22671W        W38805   5.579  10.417  15.746 -0.2918 -0.0796 -0.0346
22672W        W38806   8.231   3.068   3.217 -0.4130 -0.0954 -0.0079
22673W        W38807   7.041  10.030   2.855  0.0199 -0.0955 -0.0472
22674W        W38808   6.932   1.803   0.948 -0.0970  0.2176 -0.0345
22675W        W38809   8.829   6.053   2.255 -0.0192  0.1915 -0.1808
22676W        W38810   3.059  13.767  13.784 -0.1838  0.3740 -0.0177
22677W        W38811  15.885  13.248  15.747  0.0488  0.3950  0.3036
22678W        W38812  10.643  10.434  15.676  0.1866 -0.1379  0.1218
22679W        W38813   4.349  11.918   4.635 -0.0142  0.2194 -0.0302
22680W        W38814  14.419   7.943  13.952  0.1009  0.0483  0.1270
22681W        W38815   0.123   3.784   5.405 -0.1543  0.0616  0.0159
22682W        W38816   3.256   9.972   3.331 -0.0474  0.0379 -0.0314
22683W        W38817  13.128   6.551  14.978 -0.1044  0.0294  0.0510
22684W        W38818   2.196   8.754   4.213  0.3133  0.1455 -0.1238
22685W        W38819  14.306   4.840  13.954 -0.1998 -0.1914  0.0856
22686W        W38820  16.624   4.490  12.590  0.0777 -0.0428 -0.2237
22687W        W38821   0.268   9.922   5.060  0.1296  0.1956  0.2270
22688W        W38822   7.405  13.122   0.485 -0.1912 -0.1731 -0.1036
22689W        W38823  12.816  17.491   1.966 -0.3544 -0.0684 -0.1567
22690W        W38824   6.678  12.505  14.785  0.0322  0.0782  0.2038
22691W        W38825  14.184   8.079  15.500  0.3640 -0.1555 -0.3066
22692W        W38826   3.190   6.329   3.428  0.0098 -0.0815 -0.1519
22693W        W38827   4.909   7.647   4.181  0.2038 -0.0725  0.0350
22694W        W38828  11.564  16.172  15.583 -0.0086 -0.0312  0.3147
22695W        W38829   2.806   6.602   4.276  0.1819  0.0050  0.0962
22696W        W38830  14.547   8.122   3.812  0.2131  0.3442 -0.2628
22697W        W38831  13.961  13.612  14.024 -0.0160 -0.0441 -0.0652
22698W        W38832  13.869   8.866  11.802  0.0515  0.2378  0.0085
22699W        W38833   5.964   2.747  15.188  0.0917 -0.1925 -0.1040
22700W        W38834   1.886  15.906   2.164 -0.2303 -0.1017  0.1135
22701W        W38835   4.765   0.615  12.981 -0.2347  0.1392 -0.0911
22702W        W38836   9.764   8.163  13.308 -0.1036  0.0208 -0.0205
22703W        W38837  12.477   0.051  14.554  0.0613  0.1044  0.1296
22704W        W38838  14.065   4.007  15.628 -0.0289 -0.0567 -0.2370
22705W        W38839  17.291   5.213   2.543  0.0701 -0.0856  0.0931
22706W        W38840  15.008   9.125  15.093 -0.0398 -0.2717  0.3123
22707W        W38841   3.946   1.206  15.922  0.1055  0.3604  0.1595
22708W        W38842  11.352   0.295  15.400 -0.0272  0.0789  0.0967
22709W        W38843   6.930   2.345  16.644  0.0879 -0.1629  0.0970
22710W        W38844   0.466   0.865   5.129 -0.1128 -0.2393 -0.1091
22711W        W38845  14.542  15.249   2.944 -0.1112  0.0610 -0.2442
22712W        W38846   8.673   0.817  12.185  0.1405 -0.1191 -0.0674
22713W        W38847   6.146  15.592  16.702 -0.0341  0.0140 -0.0356
22714W        W38848  12.678   8.529  12.186 -0.1603 -0.0324  0.0950
22715W        W38849   5.001   9.584  16.720  0.0870  0.0659  0.0739
22716W        W38850   7.760   3.230  15.018  0.3269 -0.1998 -0.0079
22717W        W38851  12.555  11.650  12.059  0.0130  0.2678 -0.0316
22718W        W38852   9.226   4.098   1.051  0.0363 -0.1505  0.2374
22719W        W38853   4.746  15.493  14.233  0.1448 -0.2372 -0.3878
22720W        W38854   2.741   8.442   1.503  0.3173  0.0235  0.2757
22721W        W38855  14.441  16.326   2.611 -0.2171 -0.2004 -0.1934
22722W        W38856  16.353   1.966   4.370 -0.3420 -0.1012 -0.4103
22723W        W38857  11.846  11.451  12.326  0.1649  0.1746 -0.0580
22724W        W38858  12.988   0.475  11.716 -0.1788 -0.1659 -0.0553
22725W        W38859  11.969   0.711  13.739 -0.0492 -0.0917  0.2061
22726W        W38860   4.703   5.180   6.473 -0.0920  0.3034  0.2623
22727W        W38861   0.380  10.325   3.889  0.2917  0.1452 -0.0554
22728W        W38862   9.794   6.071  11.283  0.2857  0.2259  0.0791
22729W        W38863  15.014  13.543  12.119 -0.1203 -0.1710  0.1283
22730W        W38864  13.478  13.357  14.160 -0.2291  0.2596  0.0553
22731W        W38865   5.321   5.008  15.318  0.0839  0.1207  0.2162
22732W        W38866   5.821   7.071   1.285  0.1789 -0.0121 -0.2885
22733W        W38867  11.783   8.341  12.329  0.0998 -0.2209  0.4795
22734W        W38868  11.649  13.821   0.854 -0.0612  0.2267  0.0879
22735W        W38869  12.769   9.961  11.644  0.1096  0.1330  0.1396
22736W        W38870  13.647   3.223  11.579  0.2397  0.0241  0.0985
22737W        W38871   0.282   4.980   1.914  0.0530 -0.1267  0.0798
22738W        W38872  12.020   5.674  12.292  0.1790  0.1458 -0.3678
22739W        W38873  13.402   7.371   2.338  0.1728 -0.2286 -0.3978
22740W        W38874   8.948   0.164  15.770 -0.1037  0.0654 -0.0917
22741W        W38875   9.838  11.501   3.325 -0.2245  0.1760 -0.0107
22742W        W38876  11.226  12.298  14.551 -0.0289  0.4774  0.1776
22743W        W38877   9.934  14.751   5.595 -0.1666 -0.0243  0.2025
22744W        W38878   1.872   8.817   1.654  0.1450 -0.2142 -0.3968
22745W        W38879   8.024   3.231  14.491 -0.0245  0.1050  0.0831
22746W        W38880   9.430  17.604   0.092  0.0506 -0.1114  0.0955
22747W        W38881  14.607  12.292   3.137 -0.0768  0.1287  0.1337
22748W        W38882   2.682   9.089  16.530 -0.0593  0.3319  0.3258
22749W        W38883   0.913  13.337  15.737  0.0295  0.1526  0.0103
22750W        W38884   3.398   5.740  16.430  0.3279 -0.1999  0.0068
22751W        W38885   0.177   2.095   4.452  0.0177 -0.1498  0.1154
22752W        W38886  10.433   2.545   3.496 -0.0835 -0.2932 -0.1064
22753W        W38887  16.948  16.496  15.849 -0.2864  0.0788 -0.4366
22754W        W38888   2.899  16.803   2.036 -0.0050  0.1666  0.0180
22755W        W38889  14.727   6.288   5.403 -0.1346 -0.0452 -0.1393
22756W        W38890  10.275   0.692  15.383 -0.4181 -0.0767  0.2326
22757W        W38891  13.670  14.331   3.647  0.5692  0.3679 -0.1725
22758W        W38892   2.488  11.812  13.744  0.3944 -0.0936 -0.3399
22759W        W38893  15.891   0.042  16.838  0.0330 -0.0852  0.1114
22760W        W38894   2.487   1.453   3.808 -0.0017 -0.4513  0.2834
22761W        W38895  15.690   3.477  16.110  0.1722 -0.0298  0.3919
22762W        W38896  11.051  13.308   5.444  0.0052 -0.0961  0.0299
22763W        W38897  13.381   0.214  13.579 -0.2732 -0.0822  0.1219
22764W        W38898  10.276   3.439  15.896 -0.1153 -0.2172  0.0244
22765W        W38899  15.114  14.358  13.434  0.0931 -0.2934  0.0104
22766W        W38900   6.337   0.062   1.031  0.3529  0.2710  0.1506
22767W        W38901  17.272   7.176   0.316  0.0538  0.2618 -0.1641
22768W        W38902  17.120   4.414  16.943  0.2761 -0.0456  0.1791
22769W        W38903   4.867  11.244  11.912  0.0282  0.2426 -0.1783
22770W        W38904   5.527  12.577   4.897 -0.1073 -0.0290 -0.1108
22771W        W38905   7.835  11.312   2.629 -0.0872 -0.5985 -0.1038
22772W        W38906   3.296  16.899   1.193 -0.1197 -0.1970 -0.1737
22773W        W38907  16.926   1.654  15.662 -0.2039  0.1182 -0.3840
22774W        W38908  13.049  17.435   5.089  0.0936 -0.3386  0.2252
22775W        W38909  15.278   5.250   3.210 -0.2691  0.0435 -0.1557
22776W        W38910   4.139   1.984   2.503 -0.2533  0.1738  0.1610
22777W        W38911  14.525   4.943   2.058 -0.0812  0.1554 -0.0500
22778W        W38912   5.094   2.198   5.449  0.0438  0.3516 -0.2046
22779W        W38913  14.388   5.403   1.276  0.1410 -0.2213 -0.1535
22780W        W38914   2.635  16.195   4.540  0.0077 -0.0914  0.1609
22781W        W38915   8.606   6.501  13.663  0.0460 -0.1205  0.2361
22782W        W38916   7.073   0.059  12.808  0.0155 -0.1604  0.1828
22783W        W38917   3.392   7.397   0.038  0.0904 -0.2242 -0.3640
22784W        W38918   3.675  12.571   5.164  0.1174  0.1308  0.1796
22785W        W38919  15.958  16.135   6.407 -0.2098  0.0365 -0.1156
22786W        W38920   6.364   1.897   0.102 -0.1651  0.2121  0.1405
22787W        W38921  16.896  14.575   6.221  0.0849 -0.3200  0.0135
22788W        W38922   4.446  10.261  13.527  0.0003  0.0376 -0.1257
22789W        W38923   6.801   3.102  12.690  0.0567  0.0020 -0.0097
22790W        W38924   3.671  13.801   2.638  0.0360 -0.0124  0.0538
22791W        W38925   5.495   6.444   0.253 -0.0929 -0.0533 -0.1667
22792W        W38926   2.425  15.518   3.653  0.2589 -0.2102  0.0708
22793W        W38927   7.931  16.887  13.965  0.1098  0.1800 -0.0344
22794W        W38928   9.551  10.327   5.279  0.0468 -0.0282 -0.1312
22795W        W38929  13.990   4.133   3.517 -0.1598  0.2695  0.0808
22796W        W38930  13.232  17.629   1.608  0.1142 -0.3776  0.0966
22797W        W38931  15.245  13.946  12.269 -0.0636 -0.1014 -0.0810
22798W        W38932  15.228  13.274   2.043  0.0418 -0.0063 -0.0500
22799W        W38933   7.173   6.441   2.058  0.1081 -0.3548  0.0592
22800W        W38934  11.333  11.475  15.061 -0.2189 -0.0609  0.1234
22801W        W38935  11.237  13.851  15.693  0.4647 -0.1401  0.0842
22802W        W38936  11.769  13.916   3.169  0.0026  0.2316 -0.2563
22803W        W38937   3.662  17.116  11.582 -0.1791 -0.2691  0.0244
22804W        W38938  11.021   3.531  16.402 -0.2701 -0.0070 -0.1145
22805W        W38939   4.186  15.817  16.352 -0.1140  0.0351  0.2691
22806W        W38940   3.910   2.458  14.654 -0.0123 -0.0711 -0.1047
22807W        W38941   2.795   5.612  11.617  0.2892 -0.1333  0.0284
22808W        W38942  17.405   5.639   1.931  0.1398 -0.1598  0.4076
22809W        W38943  13.403  12.391  11.905  0.0704 -0.0378  0.0453
22810W        W38944   0.389  15.305   5.529 -0.1150  0.0747  0.0299
22811W        W38945  10.763   4.588   1.050 -0.2352 -0.0384  0.3070
22812W        W38946  10.710  15.054  14.883  0.0325  0.2048 -0.1070
22813W        W38947  11.840   8.462   1.126  0.0313 -0.0095  0.2651
22814W        W38948   1.807   0.393  12.632 -0.2784  0.0898 -0.3633
22815W        W38949  17.507   0.659  14.387 -0.0616  0.1657  0.2839
22816W        W38950  16.050  15.900   0.698 -0.1733 -0.1567  0.0633
22817W        W38951  16.593  10.976  16.780 -0.1317  0.0486 -0.2779
22818W        W38952   8.310  17.011  14.285 -0.2837  0.0275  0.1914
22819W        W38953  12.275   9.427   2.389  0.3639 -0.0391 -0.0091
22820W        W38954  12.723  11.261  13.253 -0.1614 -0.0138  0.1395
22821W        W38955   7.085  16.716  12.931 -0.0812  0.0673 -0.2025
22822W        W38956  11.536   2.201   3.746 -0.2239 -0.1050  0.0059
22823W        W38957  14.256   1.027  12.891 -0.0508  0.3724 -0.0891
22824W        W38958   8.814  16.287  16.981 -0.1718 -0.0426 -0.2760
22825W        W38959   5.489   2.216   2.616  0.2264  0.1382 -0.0411
22826W        W38960  16.923   0.713   5.419 -0.0389  0.3186 -0.3902
22827W        W38961   1.153  11.273  13.996 -0.0237  0.0737  0.0207
22828W        W38962   2.718  16.549  15.255 -0.2244  0.1544  0.0629
22829W        W38963  13.099  11.488  12.960 -0.1537  0.4788 -0.0563
22830W        W38964  14.091  11.257   0.321  0.0120  0.1013 -0.2212
22831W        W38965   7.512   8.219   1.251 -0.2084 -0.0529  0.1745
22832W        W38966   9.981   3.513   2.387  0.0750 -0.0764  0.2190
22833W        W38967  16.767  11.109  15.845 -0.0125  0.1379  0.3086
22834W        W38968   7.266   4.134   4.674  0.0844  0.0489 -0.2616
22835W        W38969  17.323   6.459  14.753 -0.3424  0.0068 -0.0576
22836W        W38970  14.568  15.319   1.636 -0.1000  0.0086  0.0480
22837W        W38971   2.904   6.067   0.060 -0.2091 -0.2117  0.2385
22838W        W38972   8.861   2.573   4.413  0.0683  0.0394  0.2075
22839W        W38973  11.852  11.739  14.240 -0.0682  0.2888  0.0255
22840W        W38974   2.326   6.205  11.753  0.1660  0.0746 -0.0560
22841W        W38975   6.555  14.390   3.507  0.0050  0.0228  0.0005
22842W        W38976  10.073  14.589  16.613 -0.0811  0.0780  0.1245
22843W        W38977   2.361   8.224   4.315 -0.0636  0.1694  0.0242
22844W        W38978   7.059  11.437  12.776  0.2673 -0.2056  0.2169
22845W        W38979  13.225   2.226  16.528 -0.0698 -0.0265 -0.3086
22846W        W38980   8.750   0.946  14.697  0.2651 -0.3100  0.1848
22847W        W38981   4.045   8.138  14.499 -0.0414 -0.0664  0.2957
22848W        W38982  12.534  15.626  13.499 -0.1193 -0.0473  0.0924
22849W        W38983   7.303  12.136  16.594 -0.1222 -0.0156 -0.1249
22850W        W38984  15.901   2.500   5.208 -0.3742  0.0386 -0.1762
22851W        W38985  14.931  14.402  15.222  0.0803 -0.2193 -0.1523
22852W        W38986   7.999  16.500   4.196  0.0114 -0.0857 -0.1189
22853W        W38987   0.722   4.470   4.859  0.1378 -0.0082 -0.1696
22854W        W38988  14.375   0.706   1.764 -0.2253 -0.2013  0.3093
22855W        W38989   4.064   9.258  11.171 -0.3724 -0.0828  0.0797
22856W        W38990   7.403   9.413  16.932  0.0554  0.1472  0.1232
22857W        W38991   4.028   6.456  11.974 -0.2219  0.1295 -0.2807
22858W        W38992  16.636  10.056  11.484 -0.0608  0.0552  0.1265
22859W        W38993  14.800   2.640  14.173  0.3972 -0.1498  0.0660
22860W        W38994   9.524  13.629  12.158  0.0160 -0.3697 -0.0521
22861W        W38995  13.193   1.828  15.595  0.1656 -0.3261 -0.0572
22862W        W38996   6.081  15.753  15.065  0.0947 -0.0786 -0.0957
22863W        W38997   5.181  10.112   4.459  0.1094 -0.0815 -0.1014
22864W        W38998  15.357   5.777   4.613 -0.1033  0.0876 -0.0268
22865W        W38999   5.587  17.099   3.501 -0.2366 -0.2828  0.0233
22866W        W39000   7.491   3.882  13.659 -0.1522  0.0526  0.0043
22867W        W39001  13.126  17.572  13.943 -0.2409  0.3497  0.1029
22868W        W39002   8.460   6.707  15.441 -0.2846  0.1609  0.0048
22869W        W39003   3.154   0.276  14.829  0.1638  0.0767  0.2322
22870W        W39004   4.037  16.410  12.743 -0.1298 -0.1018 -0.0033
22871W        W39005  10.868  15.750   3.185  0.0475  0.3487 -0.0393
22872W        W39006   7.404   4.168  12.042 -0.0756  0.4168 -0.3134
22873W        W39007   0.206  13.924  16.773  0.0503  0.1783 -0.0856
22874W        W39008  10.344   7.818   4.920  0.3022  0.0242  0.4117
22875W        W39009   5.727   8.778   3.208  0.1046 -0.1432 -0.0530
22876W        W39010   6.935   4.518   2.263  0.0291 -0.0921 -0.0823
22877W        W39011  11.247  10.502   1.281 -0.0802  0.2545  0.2409
22878W        W39012   8.508  10.644  14.979 -0.0968  0.0175 -0.0608
22879W        W39013  15.271   0.871   4.914 -0.3204  0.0976 -0.3176
22880W        W39014   3.163   8.450   5.339  0.0278  0.1225 -0.1778
22881W        W39015  17.570   4.600   2.801 -0.0399 -0.1378 -0.2051
22882W        W39016  14.735  17.430   0.032 -0.1224  0.3218  0.1070
22883W        W39017   5.230  12.412   1.768 -0.0859  0.0310 -0.1546
22884W        W39018  10.389   0.144  12.058  0.0442  0.0431  0.5411
22885W        W39019  13.138  12.223   2.125  0.2233 -0.0394 -0.0311
22886W        W39020   5.573  14.957   3.855  0.0891 -0.1061  0.1650
22887W        W39021   6.798  11.959  13.549 -0.2027  0.2867  0.0858
22888W        W39022   1.509  13.861   2.213 -0.2908 -0.1308  0.0742
22889W        W39023  10.770   5.847  17.085  0.1439 -0.0935 -0.0212
22890W        W39024   4.612   5.868  13.466  0.0947  0.1458 -0.3455
22891W        W39025   8.148  10.837   1.811  0.0355  0.2944  0.0056
22892W        W39026   5.196   0.541   3.978 -0.3950 -0.2141 -0.4530
22893W        W39027   6.164   4.810  14.340 -0.0190 -0.2136 -0.2463
22894W        W39028   1.166  11.469  12.308  0.1814  0.0854 -0.2169
22895W        W39029   5.036   2.674   1.160 -0.0717  0.0231 -0.3742
22896W        W39030  12.393  10.261   5.905 -0.0534 -0.1968 -0.1144
22897W        W39031   7.747   7.152   1.677  0.1860 -0.0354 -0.3137
22898W        W39032   2.822   4.490   2.421  0.1261 -0.0486 -0.2676
22899W        W39033   2.891   9.145   3.168 -0.1348 -0.0359 -0.1566
22900W        W39034   7.953  10.269  11.680 -0.4623  0.1490  0.1559
22901W        W39035  12.774   0.990  15.377 -0.0682 -0.0603 -0.2144
22902W        W39036  16.527   1.868  13.402 -0.1391  0.1332 -0.1626
22903W        W39037   7.762   0.090   0.109  0.1427  0.1674  0.1478
22904W        W39038  17.360   1.957   4.325 -0.0480 -0.0014  0.0591
22905W        W39039   1.707  17.020   5.248  0.2766  0.0153 -0.2329
22906W        W39040  13.642   4.790   1.989  0.1555 -0.1050 -0.1491
22907W        W39041   4.044  11.530   2.956 -0.0451  0.2799 -0.0184
22908W        W39042  13.972   8.337  11.197  0.2234  0.0887 -0.0152
22909W        W39043  11.654   8.049   1.515  0.0622 -0.0589  0.1390
22910W        W39044   3.587   9.994  12.773  0.0481  0.0413  0.0123
22911W        W39045   2.527   4.199   2.708  0.0616 -0.1421  0.0984
22912W        W39046   4.421   6.835   4.040  0.0087 -0.2899  0.0698
22913W        W39047   9.898   4.276  12.092 -0.0173  0.0977  0.0001
22914W        W39048  12.784   1.695   5.773  0.0368  0.2688  0.2329
22915W        W39049  11.418   7.234   4.421 -0.1086 -0.1597  0.2332
22916W        W39050  14.943  17.583   4.632 -0.2564 -0.0313 -0.1018
22917W        W39051  15.818   2.183   2.317  0.1986 -0.0879  0.0062
22918W        W39052   1.682   3.933   4.011 -0.1801  0.0580  0.1183
22919W        W39053   3.856  17.451   6.782  0.3956 -0.5215 -0.1441
22920W        W39054   3.935  11.151   5.020  0.1552  0.2125  0.0037
22921W        W39055  11.038  14.424   4.769 -0.2893 -0.0034  0.2635
22922W        W39056  10.976  11.089   3.703 -0.2993  0.0285  0.3237
22923W        W39057   8.954   5.971   3.747 -0.0583  0.1761 -0.1287
22924W        W39058  10.812   3.838  13.562 -0.0524  0.1261  0.2652
22925W        W39059  11.623  16.389   0.775 -0.1446  0.0370 -0.1880
22926W        W39060   3.584   6.715   5.690 -0.0882  0.0346 -0.1295
22927W        W39061   8.566   1.939  15.950  0.3178  0.0914 -0.0746
22928W        W39062   7.895  10.180   5.524  0.1263  0.0960  0.0070
22929W        W39063  12.212   0.232   3.908  0.1333 -0.1606  0.0774
22930W        W39064  12.201   4.184   5.891  0.1633 -0.1362  0.2054
22931W        W39065  14.117   6.347  15.681  0.1332  0.3335  0.0535
22932W        W39066  15.812   2.921   2.672  0.0491 -0.0914  0.2240
22933W        W39067  15.981   6.868  11.262 -0.0341  0.0301  0.2078
22934W        W39068   9.210  14.001   5.116 -0.2351 -0.0611 -0.0829
22935W        W39069  14.560  13.023  16.338  0.1593 -0.1396  0.2091
22936W        W39070   2.560  15.463   0.040 -0.0289  0.1166  0.1263
22937W        W39071   4.983  12.624   5.114  0.2789 -0.2689 -0.0567
22938W        W39072   4.411  14.903   5.612 -0.1085  0.2180  0.2149
22939W        W39073   3.979  10.599   1.410  0.1770  0.2467  0.3045
22940W        W39074   9.744   3.802  12.157 -0.0176 -0.0090 -0.0515
22941W        W39075  12.447  15.204  14.819  0.2889 -0.1942  0.3784
22942W        W39076  14.346   9.791  11.567 -0.0212 -0.0609 -0.0147
22943W        W39077   1.112   0.221   2.698  0.0452  0.4316 -0.1765
22944W        W39078   8.815  15.975   2.912 -0.1192  0.1989 -0.1504
22945W        W39079  16.808  13.375  11.550  0.2073 -0.3767 -0.1674
22946W        W39080   7.316  14.218  14.229  0.2003 -0.2490 -0.0048
22947W        W39081  16.781   7.499  13.852 -0.0099  0.0793 -0.2369
22948W        W39082  15.604  13.422   1.663 -0.2091 -0.2804 -0.1989
22949W        W39083   8.794  14.136   2.507 -0.2819 -0.3897 -0.1040
22950W        W39084  17.149  14.981  12.970  0.3039  0.1472 -0.1088
22951W        W39085  10.905  12.834  11.753 -0.3096  0.1795 -0.0091
22952W        W39086  16.977   2.077  14.065 -0.0514  0.2159  0.0842
22953W        W39087  15.856  14.040   3.106 -0.0140 -0.1640  0.0760
22954W        W39088   6.930  15.403  16.067 -0.0800  0.4343  0.1064
22955W        W39089  11.355   7.145  16.288 -0.1623  0.0090  0.0220
22956W        W39090  17.631   5.048  12.132  0.3069 -0.0001  0.0030
22957W        W39091  13.632   7.080   3.603 -0.0934 -0.0587 -0.0816
22958W        W39092  12.809   6.006   3.811  0.1329  0.1868  0.0993
22959W        W39093  11.319   3.254  13.334  0.0694  0.2394  0.1570
22960W        W39094  12.345   2.404  15.221 -0.0495 -0.0199 -0.3039
22961W        W39095   3.468  12.137   5.196 -0.0964 -0.1056  0.0612
22962W        W39096  10.955   6.279  16.971 -0.1641 -0.2487  0.2161
22963W        W39097   2.469  14.963   1.416  0.2239 -0.1357  0.0792
22964W        W39098  15.974   7.354  15.148  0.3772  0.1293 -0.2666
22965W        W39099   1.932   4.962  15.673  0.2693 -0.0992  0.0275
22966W        W39100   1.229   8.054   0.834 -0.0578 -0.0638 -0.3846
22967W        W39101   1.047  17.370  15.255 -0.2752  0.0180 -0.0571
22968W        W39102  16.603   5.269  11.113 -0.1746  0.1821  0.0295
22969W        W39103  12.889  10.152  13.298 -0.0041 -0.1709  0.1253
22970W        W39104  12.647   5.288  13.044 -0.1345 -0.1804 -0.1069
22971W        W39105   2.899   2.218   0.363 -0.0005  0.0021 -0.1405
22972W        W39106   7.567   2.514   0.847 -0.0177 -0.2006 -0.0726
22973W        W39107  14.999   0.705   0.716  0.1602 -0.0106 -0.0341
22974W        W39108  15.357  14.742  12.901  0.1539  0.2200 -0.1034
22975W        W39109  14.750   2.913  16.279  0.1834  0.2748 -0.1066
22976W        W39110   0.132   1.061  14.241 -0.0474 -0.0363  0.0997
22977W        W39111   8.853  15.428   2.908 -0.2033  0.0577 -0.0566
22978W        W39112   8.110   0.070  12.079  0.1707 -0.3915  0.4790
22979W        W39113  17.153  17.401  17.134  0.0335  0.0245  0.2483
22980W        W39114  14.377   1.588   0.089  0.0057 -0.0416  0.0524
22981W        W39115  15.302  11.599  16.888  0.2290 -0.0887 -0.1737
22982W        W39116  13.194  17.077  16.081  0.0323  0.2540  0.2998
22983W        W39117   0.628   6.628  12.377  0.0306 -0.3787  0.0059
22984W        W39118   9.612  11.122   5.296  0.0355 -0.0793 -0.0100
22985W        W39119   6.264  11.480   1.294  0.0752  0.1364  0.0084
22986W        W39120  13.716  12.461  16.595  0.1026 -0.1495 -0.0128
22987W        W39121   7.310   8.031   1.655  0.1880  0.3363 -0.1323
22988W        W39122  17.493   7.878   3.785  0.0644 -0.0253  0.2173
22989W        W39123   7.285  16.406   2.342 -0.0001 -0.1433 -0.0168
22990W        W39124   9.335   0.665   4.088 -0.3088 -0.1150  0.3144
22991W        W39125  10.947   1.939  16.055 -0.0633  0.1191 -0.3715
22992W        W39126   4.910  16.012   4.771 -0.0745  0.5055 -0.0440
22993W        W39127  14.125   6.829   3.379 -0.3867  0.1181 -0.0876
22994W        W39128   3.570  13.080  13.425  0.0767  0.0242 -0.0651
22995W        W39129   7.677  12.754  15.814 -0.1572  0.2621  0.0948
22996W        W39130   1.350   0.279  15.946 -0.0375 -0.0178  0.1272
22997W        W39131  12.838   9.917  17.099 -0.1208 -0.0595 -0.0755
22998W        W39132   5.242  15.513  16.717 -0.0684 -0.2503  0.0355
22999W        W39133  12.753  11.515   1.805 -0.2096 -0.3379  0.2275
23000W        W39134   9.768  11.522   5.636 -0.0702 -0.3311 -0.0994
23001W        W39135   4.973   0.318  16.276  0.1682 -0.1775 -0.1189
23002W        W39136   0.730  17.390   2.787  0.0115 -0.2273 -0.0847
23003W        W39137  13.877  11.102  12.074  0.0759  0.2353 -0.0782
23004W        W39138   5.600  17.036  16.820 -0.0005 -0.1299  0.1425
23005W        W39139  11.594   5.489   0.609 -0.0006 -0.3126 -0.0920
23006W        W39140   8.261   6.281  13.150 -0.1898 -0.0865 -0.1809
23007W        W39141  16.115   2.249   0.537  0.0991 -0.1767  0.2595
23008W        W39142  14.720   5.908  14.344  0.0690 -0.0467 -0.1320
23009W        W39143  10.039   9.871  17.139 -0.0969  0.1486 -0.2151
23010W        W39144  12.268   5.772  13.821  0.0797  0.0202 -0.0351
23011W        W39145  17.484  16.468  14.117 -0.0075 -0.1056  0.2172
23012W        W39146   7.615  11.401   5.768  0.0282  0.1014 -0.1163
23013W        W39147   7.419   4.360  14.234 -0.1603  0.0740 -0.0450
23014W        W39148   4.952   5.477  13.257  0.0506 -0.0441 -0.1236
23015W        W39149   1.197  13.536   5.550 -0.0786  0.0660 -0.0563
23016W        W39150  11.976  15.489   5.688 -0.1152 -0.1441  0.1418
23017W        W39151   3.539   8.524  13.825  0.3066 -0.1134 -0.0765
23018W        W39152  14.932  11.591   5.928 -0.0877  0.1468 -0.1516
23019W        W39153   8.267   8.786   2.742  0.1549 -0.0304 -0.1414
23020W        W39154  14.476  13.545   1.012 -0.1389 -0.0715 -0.0620
23021W        W39155  13.696  14.870  14.820 -0.0618  0.1393 -0.0677
23022W        W39156   2.187  11.394   2.364 -0.2442 -0.2362 -0.1624
23023W        W39157   9.098   3.033   5.770 -0.2414 -0.1688 -0.2725
23024W        W39158   6.223  14.656   5.156 -0.0778  0.3425  0.0141
23025W        W39159   8.271  16.651   0.946  0.3095 -0.0366 -0.0108
23026W        W39160  11.176   8.250   3.333  0.0352  0.2364 -0.0348
23027W        W39161   1.063   5.062   0.400  0.2276 -0.0527  0.4018
23028W        W39162   8.673  11.730   4.886 -0.1466  0.2139 -0.2222
23029W        W39163  12.977  14.046   1.881 -0.0995  0.0985 -0.0798
23030W        W39164   8.057   1.516   2.171 -0.0437  0.1545 -0.1638
23031W        W39165   2.959  15.781  15.428  0.1368  0.2275 -0.0671
23032W        W39166  15.758   2.795   3.808  0.1354 -0.0172  0.0895
23033W        W39167   4.864  12.641   4.609 -0.1399  0.2200 -0.0435
23034W        W39168   5.283   8.614   6.242  0.3109  0.0012  0.1518
23035W        W39169   7.408  15.529  11.148 -0.1456  0.3376 -0.2433
23036W        W39170   9.902  12.665   5.095  0.0926  0.2623 -0.0800
23037W        W39171   8.317  15.629  16.215 -0.0605  0.1430 -0.0899
23038W        W39172  13.285   1.649  11.997  0.1948  0.3432  0.0802
23039W        W39173   2.398  17.661   2.306 -0.2355  0.0538 -0.2254
23040W        W39174  16.620   3.428  16.621 -0.0117  0.2488  0.1377
23041W        W39175   4.906   7.381   1.083  0.1698 -0.1223  0.0141
23042W        W39176  15.307   9.061  11.805 -0.4660 -0.0365 -0.0189
23043W        W39177  10.002  14.479  14.567 -0.0153 -0.4986  0.0012
23044W        W39178   7.350   8.040  12.078 -0.3142 -0.0549  0.2529
23045W        W39179   5.481   3.657  14.866 -0.0301 -0.1483  0.0247
23046W        W39180  13.825   9.630   1.036 -0.3300 -0.0198 -0.0910
23047W        W39181   9.123   8.879  15.800  0.2959  0.0270  0.0189
23048W        W39182  10.439   4.844  16.030  0.1847  0.2461 -0.3469
23049W        W39183  15.575  14.965   4.685  0.0774 -0.1334  0.4678
23050W        W39184  12.050   0.396  14.646 -0.3055 -0.1775 -0.0970
23051W        W39185   4.831  11.971   3.137 -0.3920  0.1697 -0.1520
23052W        W39186  17.335   4.726   1.070 -0.0811 -0.2944 -0.0776
23053W        W39187   1.832  13.926  15.647  0.1652  0.2942 -0.1456
23054W        W39188  11.561   7.359   2.607  0.2430 -0.3192  0.1445
23055W        W39189   9.221   0.803  12.092  0.1020  0.1631 -0.1056
23056W        W39190   7.055   6.993  15.014  0.1038  0.1160  0.1986
23057W        W39191   8.840   6.873   1.001  0.1691 -0.1628 -0.0509
23058W        W39192  15.688   1.493   4.822 -0.0640  0.0724 -0.1370
23059W        W39193  11.141  14.974   1.920 -0.0730 -0.2716  0.1637
23060W        W39194   6.414   1.180  14.082 -0.0376 -0.1862  0.0568
23061W        W39195   2.374  15.212  15.669 -0.1033  0.1056 -0.2387
23062W        W39196  10.043  11.214   5.012 -0.0617 -0.1873 -0.1232
23063W        W39197   9.245   9.101  13.888  0.2922  0.3731  0.2199
23064W        W39198   8.036   8.500   3.066  0.0137 -0.1026 -0.0174
23065W        W39199   1.280  10.022  12.094 -0.1909 -0.0368 -0.2789
23066W        W39200  10.317  11.006  16.330  0.1123 -0.2183 -0.0061
23067W        W39201   3.132  15.344   1.910  0.2692 -0.0819  0.0286
23068W        W39202  15.391   0.035  13.480 -0.0016 -0.0685  0.0167
23069W        W39203   7.261  17.144   1.731  0.3067  0.0666  0.0706
23070W        W39204  13.727   1.646   2.404  0.2635 -0.1191  0.1602
23071W        W39205   1.367   3.454  13.577  0.1765 -0.0812 -0.0465
23072W        W39206   7.942   1.753  13.044  0.1588 -0.0647  0.1274
23073W        W39207  13.957  12.806  13.515 -0.0641  0.1053  0.2584
23074W        W39208   6.743   2.083  14.694 -0.0510  0.1186 -0.0106
23075W        W39209   5.543   2.817  15.518  0.4726  0.2266 -0.1940
23076W        W39210  11.538  15.004  15.031 -0.4046  0.0096 -0.0397
23077W        W39211  13.752   8.317  16.070  0.0237  0.0609  0.2155
23078W        W39212   7.256  15.912  11.556  0.2304 -0.0088 -0.3883
23079W        W39213   1.149  13.004  16.018  0.0716  0.0103  0.0153
23080W        W39214   6.543  15.393  14.341  0.1611 -0.1334  0.2279
23081W        W39215   7.370   6.334   3.937  0.1325  0.0099  0.0196
23082W        W39216   3.838  13.116   3.247 -0.1689  0.1974 -0.2734
23083W        W39217   1.885   3.423  13.510  0.3181  0.0135  0.3063
23084W        W39218   8.708   8.618  11.883 -0.2146  0.1701 -0.1703
23085W        W39219   8.711  11.597  13.324 -0.1249  0.0610  0.0070
23086W        W39220   4.801  11.163   4.949 -0.2645  0.1214  0.0494
23087W        W39221  16.275  15.428  12.252  0.1578 -0.3682  0.0786
23088W        W39222  15.762  10.950  12.358 -0.0519  0.0707 -0.0110
23089W        W39223   1.229  16.330  12.802 -0.0886 -0.0455 -0.2663
23090W        W39224  10.205   9.553  12.462 -0.5345  0.1834 -0.1207
23091W        W39225  12.558  10.559   0.037 -0.3155  0.0130  0.3159
23092W        W39226  16.438   4.800  12.960 -0.2967  0.0582 -0.0193
23093W        W39227  16.734   9.434   4.514 -0.0328 -0.2240  0.1345
23094W        W39228   3.554  15.023   2.356 -0.1255  0.2558  0.3159
23095W        W39229   6.374   8.534   6.037 -0.0547 -0.0847 -0.1148
23096W        W39230  14.066   5.073  16.788  0.3978 -0.1733 -0.0614
23097W        W39231  11.764  15.643  16.998  0.1111  0.1528  0.0782
23098W        W39232   8.176   9.965   5.890  0.0302  0.0785 -0.0735
23099W        W39233   9.934  10.927   2.271  0.1893 -0.0765  0.3210
23100W        W39234   5.897   2.402  16.062  0.0508 -0.0923  0.0632
23101W        W39235   1.558  10.742   2.146 -0.2343  0.0185 -0.0234
23102W        W39236  12.820  10.082   1.646 -0.2141 -0.1723  0.0119
23103W        W39237  10.974   0.223   1.553  0.3013  0.2751  0.2987
23104W        W39238   3.814  12.682   5.760 -0.2145 -0.0003  0.1890
23105W        W39239   9.057  13.659   2.010  0.1095  0.0961  0.1148
23106W        W39240  14.000  12.322   2.772  0.0819 -0.1828  0.1060
23107W        W39241   1.054   0.470  14.809 -0.0934 -0.0489 -0.0598
23108W        W39242   5.801  14.164  14.403  0.2632  0.1380  0.0421
23109W        W39243  11.681  12.994   4.391  0.2964  0.3152  0.0294
23110W        W39244   5.125  10.379  16.999 -0.1334  0.1320  0.2116
23111W        W39245   9.806   5.670   1.949  0.0930  0.2546  0.1431
23112W        W39246   8.097  17.149   5.839  0.0212 -0.0120  0.1490
23113W        W39247  14.546  16.243  13.723 -0.2530  0.0625  0.0561
23114W        W39248   5.034  14.811  12.580 -0.1654  0.1434 -0.1493
23115W        W39249   1.267   3.395   3.608  0.2146 -0.1153  0.1436
23116W        W39250   5.220  17.447   2.709  0.0682  0.1083  0.2926
23117W        W39251  11.193   9.868  13.965  0.1595 -0.1293  0.2162
23118W        W39252   8.192   2.936   1.241 -0.0612  0.0615  0.1805
23119W        W39253  14.932   1.821  16.435 -0.1926  0.2126 -0.0340
23120W        W39254   2.684  11.699  13.289  0.0187 -0.1284  0.0351
23121W        W39255  14.784   6.795  16.326 -0.1111 -0.0720 -0.1405
23122W        W39256  13.223  12.466  15.178 -0.2708  0.1239 -0.0017
23123W        W39257  12.928   9.861  12.696 -0.1455 -0.0920  0.2438
23124W        W39258   0.375   4.787  13.666 -0.0002  0.1792 -0.1084
23125W        W39259  16.019  13.310  15.218 -0.2053  0.0195 -0.2864
23126W        W39260  12.341  16.170   1.590  0.0467  0.1842  0.3033
23127W        W39261  12.720  14.010  15.600 -0.0347  0.0746  0.1858
23128W        W39262   1.366  12.408  14.896  0.2064 -0.3191 -0.1372
23129W        W39263   8.234  10.894   4.956 -0.0448  0.1681 -0.2275
23130W        W39264   9.761  17.636  16.410  0.2260 -0.0110  0.2551
23131W        W39265   9.138   9.168  11.728 -0.0629 -0.2842  0.2094
23132W        W39266  15.109  14.233   4.213  0.0086  0.1485 -0.1215
23133W        W39267  12.502   6.516   3.892  0.1195 -0.0566 -0.2209
23134W        W39268   5.572   7.580   5.787  0.1044 -0.1197  0.0181
23135W        W39269  16.883   7.190   2.244  0.0818  0.0529 -0.0974
23136W        W39270   9.967  12.980   5.474 -0.0716  0.0205 -0.1441
23137W        W39271  17.017   5.275   5.166 -0.0158  0.1212  0.1790
23138W        W39272   3.528  12.466  14.524  0.0141  0.1148 -0.0064
23139W        W39273  14.897  10.816  17.175 -0.1001  0.1112  0.4043
23140W        W39274  13.763   2.725  14.268 -0.0141  0.4117  0.1603
23141W        W39275  15.636   2.521   4.193 -0.2275  0.1074 -0.1034
23142W        W39276   6.150  12.159   6.437 -0.4250  0.5201  0.0400
23143W        W39277  12.599  16.969   3.878 -0.0474 -0.2872  0.1468
23144W        W39278  16.642   2.725   3.053 -0.0391 -0.0342  0.0839
23145W        W39279  12.920   5.510  14.844  0.1936  0.0333  0.1329
23146W        W39280  13.996  15.758   2.396 -0.0929 -0.1244 -0.0131
23147W        W39281  15.468  17.055   5.860 -0.1143 -0.1554 -0.2414
23148W        W39282   6.604   5.737  15.333 -0.1922  0.0304  0.2433
23149W        W39283   4.374  12.541   1.308 -0.1462 -0.2695 -0.0441
23150W        W39284  11.345   8.993  13.424 -0.2215  0.0225  0.1189
23151W        W39285  12.378  17.382  12.998  0.0695  0.2080  0.1024
23152W        W39286   9.565  11.976  14.840 -0.0510  0.2436  0.1803
23153W        W39287  11.415   6.387  11.954 -0.2224  0.0724  0.0530
23154W        W39288  17.084  10.060   2.026  0.0810  0.2704 -0.1757
23155W        W39289  16.215   8.276   2.198  0.1153  0.1212 -0.1268
23156W        W39290   9.674  12.289   2.720 -0.3228  0.0317 -0.1056
23157W        W39291  12.967  17.104   0.934 -0.1044 -0.1474  0.0575
23158W        W39292  16.777  12.740   4.507  0.1237  0.2798  0.0356
23159W        W39293  10.862   1.202  15.656 -0.0319  0.0596  0.1161
23160W        W39294  12.610   6.683  14.065  0.0182 -0.1980  0.2543
23161W        W39295   7.841  17.544   1.006 -0.1496  0.0463  0.0059
23162W        W39296  15.781  17.647   3.505 -0.0853  0.1647 -0.2118
23163W        W39297   2.188  16.202  16.612  0.1320  0.1649  0.1253
23164W        W39298   4.618  11.420   4.567 -0.1010  0.0772  0.1059
23165W        W39299   1.174   7.808   1.535  0.1684 -0.1704 -0.1993
23166W        W39300  13.817   8.284   0.501  0.0862 -0.2108  0.0380
23167W        W39301   7.646  16.353  12.991  0.1878  0.1090 -0.0887
23168W        W39302   9.435  14.614   2.546 -0.0382 -0.2230  0.1606
23169W        W39303  13.304   8.010   0.724 -0.1072 -0.2596 -0.0958
23170W        W39304  12.502   3.418  11.174  0.1391  0.4494  0.1270
23171W        W39305   5.874   7.848  16.168  0.0089 -0.2673  0.2242
23172W        W39306   2.839   8.210  13.371  0.0179  0.2577 -0.1481
23173W        W39307   0.834  17.383  16.445  0.0393  0.0215 -0.1423
23174W        W39308  17.214   6.797  14.400 -0.1036  0.0174  0.2162
23175W        W39309  10.759  10.762   4.101  0.0005 -0.1889 -0.0138
23176W        W39310   9.251   6.822   1.326  0.0130  0.0475 -0.3755
23177W        W39311   2.082   3.129   6.213  0.1434 -0.0188 -0.0550
23178W        W39312   8.829   2.105  13.798  0.1215  0.0294  0.1408
23179W        W39313  16.257   9.213   0.893  0.0567  0.1260  0.2530
23180W        W39314  10.555  13.861  14.671  0.2123 -0.0201 -0.2550
23181W        W39315  13.316  10.124  12.967 -0.0019 -0.0911  0.1026
23182W        W39316  11.164  14.353  12.124  0.0709  0.1139  0.0434
23183W        W39317   0.318   0.534  11.792  0.0207 -0.2660  0.0801
23184W        W39318   1.773  11.535  15.070 -0.3946  0.3232  0.0878
23185W        W39319   6.539  12.283  13.248 -0.1105  0.1577 -0.3145
23186W        W39320   0.363   8.155  13.916  0.0544  0.0669  0.3261
23187W        W39321   5.847   9.969   2.389  0.0582 -0.0877  0.1650
23188W        W39322  13.594  10.561   1.320 -0.0588 -0.0951 -0.1396
23189W        W39323   6.611  15.441   0.146 -0.1379  0.0913  0.3568
23190W        W39324  13.195   8.721  14.558 -0.0148 -0.0198  0.0952
23191W        W39325   8.980  11.823   3.599  0.0437 -0.0998 -0.0173
23192W        W39326  15.280   3.628  16.442 -0.2983 -0.0581 -0.2988
23193W        W39327   0.341  12.597   4.470 -0.0177  0.0858 -0.1696
23194W        W39328   4.981   0.586   5.258 -0.1631 -0.1138  0.1911
23195W        W39329  17.325  17.155   2.377 -0.3396  0.2907  0.2107
23196W        W39330   4.894   5.545   4.049 -0.3023 -0.0963 -0.0028
23197W        W39331   6.715  16.454  13.337 -0.1475 -0.0807  0.1607
23198W        W39332   1.458   3.411   5.418  0.0097 -0.1705 -0.0396
23199W        W39333   9.398   0.297  15.748 -0.0798  0.1081  0.0342
23200W        W39334  13.909   0.085   3.669  0.5171  0.0261  0.2181
23201W        W39335   6.144   1.707   6.133 -0.2854  0.2163  0.0875
23202W        W39336   7.341  12.417   2.370  0.2147  0.0721  0.0203
23203W        W39337  13.015   8.037   1.554  0.1542 -0.0897 -0.0002
23204W        W39338   7.424  14.495   0.536 -0.0783  0.0977 -0.0258
23205W        W39339   0.884  11.117  12.104  0.0106  0.1961  0.1289
23206W        W39340   2.652  14.444  15.542  0.0714 -0.0792 -0.0858
23207W        W39341  11.257   8.021  15.364  0.1907 -0.1497  0.1768
23208W        W39342  13.379  14.848  15.470 -0.0181 -0.0510 -0.0857
23209W        W39343  13.694   9.633   2.710  0.1847 -0.0730 -0.0553
23210W        W39344   2.454   7.754  16.247 -0.0038  0.1998 -0.2138
23211W        W39345   3.173  16.019   0.161 -0.1073  0.2444 -0.0431
23212W        W39346  16.781  12.754   2.661 -0.0204 -0.2284  0.0613
23213W        W39347   3.539   7.306   1.881  0.2274 -0.0119 -0.2217
23214W        W39348   0.528  16.319  15.575 -0.0762  0.0465  0.3333
23215W        W39349   9.439  15.193  16.754 -0.0388  0.2407  0.2059
23216W        W39350  12.945   7.477  15.383 -0.2222 -0.0550  0.1425
23217W        W39351   1.615  11.397   4.631 -0.6104 -0.1572  0.1806
23218W        W39352   6.037   7.054  13.989 -0.0869 -0.0044  0.0888
23219W        W39353   9.512   2.339   3.646  0.1776  0.2993 -0.2039
23220W        W39354  16.923   6.556  13.937 -0.1337  0.1158 -0.1570
23221W        W39355   3.392  13.045  17.030  0.2522  0.0776  0.5284
23222W        W39356  13.063  11.865  16.003  0.2024 -0.0241 -0.2527
23223W        W39357   2.692   0.814   1.096 -0.1740 -0.1715 -0.1262
23224W        W39358   9.237  13.248  17.109  0.0246  0.0655  0.0442
23225W        W39359  16.026   4.066  14.736 -0.0271 -0.0375  0.0899
23226W        W39360   9.517   0.388  16.998 -0.0886 -0.3338  0.0930
23227W        W39361   2.035  10.187  16.709  0.0333 -0.1391 -0.2165
23228W        W39362  10.728  15.822   3.764  0.1906  0.1205  0.2192
23229W        W39363  10.702  13.724  17.075  0.0357  0.2376  0.1383
23230W        W39364   0.329   3.523  12.654 -0.2295 -0.2732  0.1146
23231W        W39365   4.092   8.896   3.071 -0.0426  0.1754  0.3326
23232W        W39366  12.573  16.822  12.828 -0.0800  0.1066  0.0082
23233W        W39367   5.353  13.680  13.298 -0.0144 -0.3088  0.0563
23234W        W39368   3.248   6.254  16.674 -0.2105  0.3012  0.0984
23235W        W39369   3.344   9.315  15.758  0.1278  0.2388 -0.0037
23236W        W39370   5.740   7.983  14.765  0.4180 -0.0039  0.3618
23237W        W39371  14.923   1.381   4.284  0.0151 -0.1849  0.0979
23238W        W39372   2.810   8.130   5.815 -0.0362 -0.0045 -0.1307
23239W        W39373  12.354   0.941   0.136  0.2006  0.1234  0.0628
23240W        W39374   8.161  15.098  14.432  0.1597  0.1081  0.0662
23241W        W39375   3.025   0.878   1.525 -0.3902  0.0653 -0.0531
23242W        W39376  10.294  17.145  13.073 -0.0028  0.0774  0.0647
23243W        W39377  14.117  15.797  13.621 -0.2232  0.2021 -0.1540
23244W        W39378   5.245  17.627  12.248  0.0184  0.0479 -0.1771
23245W        W39379  10.447   3.183   1.798  0.0860 -0.0082  0.1216
23246W        W39380  12.176  12.100  15.545 -0.3741  0.1900 -0.0368
23247W        W39381   7.768   0.202   1.841  0.1613 -0.0181  0.0809
23248W        W39382   6.241   8.152  11.674 -0.4290  0.1116 -0.0291
23249W        W39383   5.491   5.288   2.169  0.0262  0.1430 -0.2337
23250W        W39384   4.882   0.807  16.150  0.0304  0.1360  0.4388
23251W        W39385   1.843   4.695   2.556  0.0240 -0.2216 -0.1390
23252W        W39386  16.525   9.099  15.377 -0.1678  0.3295 -0.0148
23253W        W39387  15.437   4.979   5.740  0.1558  0.0239 -0.1569
23254W        W39388  11.906   7.162   4.421 -0.1435 -0.2856 -0.0829
23255W        W39389  10.534   6.351  14.953  0.1337  0.1609  0.1461
23256W        W39390  12.487   1.096  15.780  0.0864  0.0986  0.1384
23257W        W39391   9.579  15.012   4.932 -0.0984 -0.0425 -0.0154
23258W        W39392   7.500  14.872   6.243 -0.0388  0.1889 -0.0775
23259W        W39393  15.513   8.969   4.665  0.1878 -0.0351  0.2392
23260W        W39394  10.705  11.817  10.852 -0.1101 -0.1413 -0.0459
23261W        W39395   5.750  15.610   3.269 -0.3802  0.5250  0.2767
23262W        W39396   5.812   1.477  15.363  0.0230  0.1823  0.0409
23263W        W39397   8.972   2.463   3.633 -0.0130 -0.2287  0.0634
23264W        W39398  10.664   7.186   2.681  0.0094 -0.0627 -0.0452
23265W        W39399   7.481   1.327  16.348  0.2653 -0.1544 -0.1000
23266W        W39400   6.732   3.929  15.402  0.2037 -0.2354  0.1170
23267W        W39401  10.447  10.917   2.031 -0.4440 -0.0417  0.0187
23268W        W39402  13.214  13.975  15.552  0.3733  0.1088 -0.1149
23269W        W39403   7.476   0.647   2.521  0.2941  0.2729 -0.0608
23270W        W39404   7.920   5.819  15.836 -0.0700 -0.2565 -0.1098
23271W        W39405   2.551   0.715   0.562  0.1164 -0.0189 -0.1276
23272W        W39406  11.850   5.937   1.426 -0.0675  0.0980 -0.2424
23273W        W39407  14.213   5.281  11.712 -0.3608 -0.0521  0.1275
23274W        W39408  16.040   7.335   4.349 -0.0704 -0.1191  0.0683
23275W        W39409  12.739  16.622   2.301  0.1780 -0.1474  0.4228
23276W        W39410   5.825  11.068   5.639 -0.1105  0.1104  0.0621
23277W        W39411   5.669   5.106  13.648 -0.0414 -0.1668  0.2151
23278W        W39412  14.237  14.814   2.325 -0.2545 -0.1272  0.0511
23279W        W39413   3.928   5.981   3.635 -0.2984 -0.2249  0.0434
23280W        W39414   3.702   8.933   2.717  0.0528 -0.0452  0.1463
23281W        W39415   8.563   9.481   1.524  0.0532  0.1678 -0.0215
23282W        W39416   7.015  10.828   4.087  0.2036 -0.0515 -0.0460
23283W        W39417  10.759   4.236   3.927 -0.0006 -0.2145  0.1519
23284W        W39418  15.340   9.571  12.557  0.1262 -0.1202 -0.0911
23285W        W39419   7.342  11.869  15.776  0.1793 -0.0673  0.0086
23286W        W39420  15.619  10.860  14.634  0.0270 -0.3123 -0.1536
23287W        W39421   8.491   6.185  14.598 -0.1610 -0.1011  0.0587
23288W        W39422  15.292  10.392  12.837  0.1489 -0.0757  0.0130
23289W        W39423  16.949  11.571   2.300  0.0638  0.1057 -0.2675
23290W        W39424   3.556   8.826  12.900 -0.1913  0.2920 -0.1882
23291W        W39425   0.350   5.601   4.992 -0.0223  0.2362  0.1006
23292W        W39426   3.645   2.286   4.428  0.1473  0.1503 -0.0876
23293W        W39427  15.759   8.734  13.037 -0.2480 -0.2668  0.0157
23294W        W39428  10.002  17.399  15.726 -0.0660 -0.0682 -0.0566
23295W        W39429   5.157   4.985  13.757  0.0204 -0.1759  0.1144
23296W        W39430   0.472   1.545  17.011 -0.0321 -0.0428 -0.1107
23297W        W39431  13.550  16.700   5.957 -0.0634 -0.0704 -0.3797
23298W        W39432  14.195  17.536   1.844 -0.0074  0.2347  0.2173
23299W        W39433   6.512   2.565   3.472  0.1925  0.0836  0.1552
23300W        W39434  16.197  16.803  14.043  0.0255  0.0746  0.1213
23301W        W39435   9.419   2.363  15.613  0.0496 -0.2042  0.1245
23302W        W39436   9.459   0.301  13.804  0.0840  0.1724  0.2089
23303W        W39437  13.087  12.662   3.148 -0.1732  0.3132 -0.0150
23304W        W39438   5.586   5.255   4.935  0.1119 -0.1379  0.2009
23305W        W39439  17.604  14.423   5.410  0.2314 -0.1401 -0.0555
23306W        W39440  13.665   3.661   2.095  0.2287  0.1211 -0.2267
23307W        W39441  14.363   9.423   2.169 -0.1794 -0.4526 -0.0817
23308W        W39442   4.827   2.824  13.114  0.3561 -0.0494 -0.0414
23309W        W39443  16.329   9.903   5.250 -0.1071 -0.0576  0.1170
23310W        W39444   3.002   9.085   0.288 -0.1564  0.0558  0.2188
23311W        W39445   9.945  15.500  13.912  0.3883 -0.2095  0.0544
23312W        W39446  12.490  12.220   4.847  0.1675 -0.0466  0.1245
23313W        W39447  15.617   6.931  16.076  0.2692 -0.0475  0.0541
23314W        W39448  11.993   7.197   3.033 -0.1862 -0.1091 -0.1321
23315W        W39449   8.581  10.207  15.363  0.0063 -0.0151 -0.0742
23316W        W39450  14.862   0.317  16.013 -0.0795  0.0120  0.2821
23317W        W39451  15.812   7.961   5.516  0.1062 -0.4725 -0.1054
23318W        W39452  11.155  11.423   0.042  0.0573 -0.0436  0.0655
23319W        W39453  14.889  15.449   2.677  0.1096  0.2876 -0.1987
23320W        W39454   9.030  10.849   4.860  0.1834  0.3940  0.1046
23321W        W39455  17.158   9.624   4.698  0.0950  0.2130 -0.0703
23322W        W39456   4.034   2.912   5.969  0.0944 -0.3900 -0.1167
23323W        W39457   5.337   0.464  12.419 -0.1874  0.0727  0.2109
23324W        W39458   2.966   1.781   2.004  0.0144  0.0295 -0.0519
23325W        W39459  16.531  15.409   3.661 -0.1563 -0.0058 -0.1302
23326W        W39460   7.517  14.124   4.277  0.0855  0.0716  0.1211
23327W        W39461  16.457  16.541   0.004  0.2060 -0.0899 -0.0941
23328W        W39462   9.579   1.960   1.599  0.0916 -0.0672 -0.0454
23329W        W39463   5.018   7.201   0.162  0.0149  0.0649 -0.1338
23330W        W39464   8.275  12.145   2.648  0.0680  0.0279 -0.0976
23331W        W39465   8.516   4.671  13.177  0.2589 -0.1302 -0.1990
23332W        W39466   4.435  16.150   1.493 -0.2345 -0.1477 -0.2422
23333W        W39467   5.768   0.638  14.747 -0.0848 -0.2875 -0.0961
23334W        W39468  11.784   6.464   4.847  0.1261 -0.2710  0.0654
23335W        W39469  13.087  14.554  15.816  0.1329 -0.2973 -0.2031
23336W        W39470  14.122  16.604   0.823  0.1379  0.0183  0.0836
23337W        W39471  14.147   4.170   5.384 -0.1124 -0.0179 -0.0807
23338W        W39472  15.557  17.546   4.014 -0.2913  0.1984  0.1227
23339W        W39473  16.661   2.079   1.659  0.0950 -0.1058 -0.0222
23340W        W39474   1.575  13.193  16.149 -0.1091 -0.0501 -0.3049
23341W        W39475   0.211  12.438   5.176  0.1491  0.0848 -0.0692
23342W        W39476   0.040  13.495   2.618 -0.0145 -0.1570  0.2534
23343W        W39477  13.724  13.405   6.185 -0.0772  0.1592  0.4039
23344W        W39478  14.770   0.996  15.143 -0.2950 -0.0789  0.0948
23345W        W39479   3.715   7.477   0.485 -0.1057 -0.0757 -0.1748
23346W        W39480   7.436   8.275  13.735 -0.0666  0.1621 -0.3154
23347W        W39481   8.761  14.762   0.223  0.0693  0.1284 -0.0397
23348W        W39482   3.805   5.308  15.749 -0.1434 -0.1461  0.0634
23349W        W39483   8.336   9.436  16.343 -0.1709  0.1574  0.0332
23350W        W39484  14.708  16.930   4.653  0.0528  0.1585 -0.1462
23351W        W39485  10.367   5.267   0.749 -0.3691  0.0833 -0.0758
23352W        W39486  15.259  13.475   2.648  0.2698  0.2269 -0.0722
23353W        W39487   6.470   3.438   0.515  0.1447  0.0424 -0.2878
23354W        W39488   9.296   8.133   1.920 -0.1222 -0.1809  0.0425
23355W        W39489   0.289   2.270  16.496  0.0864  0.1106  0.3490
23356W        W39490  14.139  10.417   2.056  0.2302 -0.3248  0.0015
23357W        W39491   2.402   9.177   2.400 -0.0317  0.3361 -0.1361
23358W        W39492  10.492   6.136   4.984  0.0328  0.2230  0.2144
23359W        W39493   0.168   9.363   1.324 -0.1699 -0.2298  0.1030
23360W        W39494  13.393   0.076   0.356 -0.0306  0.1296  0.2156
23361W        W39495  15.616   2.415   3.237 -0.1202  0.0410 -0.0339
23362W        W39496   9.338   5.300  13.256  0.0632 -0.0509 -0.2136
23363W        W39497   4.007  13.793   1.406 -0.1037  0.0092  0.1695
23364W        W39498   8.150   0.449   0.268  0.1519  0.2590  0.0429
23365W        W39499  17.538  13.308  13.529  0.0163 -0.1779 -0.1514
23366W        W39500   4.362   8.840  16.525 -0.0123  0.0805 -0.1790
23367W        W39501  10.440  14.860   4.496 -0.1412  0.0644  0.1149
23368W        W39502  15.183   6.587  12.613 -0.0511 -0.0298  0.0561
23369W        W39503   3.552   2.596  12.649 -0.2241  0.1205 -0.0687
23370W        W39504   3.852  10.147   1.093 -0.1852  0.0344  0.1043
23371W        W39505   2.972  12.521  15.896 -0.0486  0.0305  0.1582
23372W        W39506  16.144  14.254   5.239 -0.0791 -0.0462  0.0763
23373W        W39507  14.364  10.112   3.430  0.2072 -0.2125 -0.2025
23374W        W39508  16.191   9.828   5.789  0.0908  0.1644 -0.0483
23375W        W39509  10.266   3.357   4.012 -0.1038 -0.2441  0.0871
23376W        W39510   1.393   3.052  12.441 -0.0316  0.2012 -0.1001
23377W        W39511  16.794   3.313  11.574 -0.0132  0.0124  0.0438
23378W        W39512  17.007   9.220  14.977 -0.0385 -0.2841  0.1991
23379W        W39513  16.098  11.047   5.136 -0.1743  0.0985 -0.0575
23380W        W39514  15.421   4.748   3.152 -0.0475  0.2044  0.2392
23381W        W39515  13.004  13.326  14.883 -0.0705  0.2062 -0.0962
23382W        W39516  12.264  14.922  11.784 -0.1674 -0.1218 -0.1008
23383W        W39517   6.559  16.186   0.625  0.1779 -0.0173 -0.0654
23384W        W39518  11.785   1.621   0.545  0.3565 -0.0771  0.3317
23385W        W39519   8.463  12.918  13.639 -0.0049 -0.0674 -0.1433
23386W        W39520   0.485   8.583  16.887 -0.0612  0.1083 -0.3867
23387W        W39521   8.608   2.736   2.914  0.1062 -0.0724 -0.1691
23388W        W39522  11.469   9.950  12.625  0.2429  0.1141 -0.0857
23389W        W39523   9.532  15.784   4.014 -0.1263  0.0952  0.1504
23390W        W39524   6.247  13.997   3.152  0.1351 -0.2745 -0.3282
23391W        W39525   7.696   8.567  14.942  0.1319 -0.1090 -0.1711
23392W        W39526  17.095   1.157   5.215 -0.0444 -0.2291  0.1774
23393W        W39527   2.733   7.443  13.601 -0.2379  0.3878 -0.2959
23394W        W39528  12.919   2.887   2.465  0.1364 -0.1420  0.1544
23395W        W39529   9.263   2.785  14.296  0.0745  0.4077 -0.0169
23396W        W39530   1.762  15.441   5.734  0.1672  0.0522  0.2078
23397W        W39531   7.772  12.650  16.302 -0.1842  0.0429  0.2483
23398W        W39532  15.524   1.725  14.722  0.0050 -0.2941  0.0666
23399W        W39533  12.285  13.444  12.258  0.0246  0.0549 -0.0691
23400W        W39534  13.786   1.334   4.868  0.4750  0.0994  0.4350
23401W        W39535   0.253  13.136   3.298  0.1141 -0.0664 -0.0839
23402W        W39536  10.529  17.376   2.442 -0.2348 -0.2360  0.0786
23403W        W39537   0.499   8.226   3.349  0.1235 -0.0491  0.0633
23404W        W39538  12.569  13.353   1.618 -0.1015 -0.2976  0.1592
23405W        W39539  14.283   8.524  15.234  0.2018 -0.2056  0.1516
23406W        W39540  11.937  17.605   2.680 -0.1462 -0.0019  0.2356
23407W        W39541  13.186   4.414   0.551  0.0775  0.0272  0.1408
23408W        W39542  13.251   3.194  11.979 -0.2217  0.1762 -0.0047
23409W        W39543   0.510   3.823   4.959  0.5556  0.1221  0.0611
23410W        W39544  14.619   5.586  11.680  0.1190 -0.1555 -0.0861
23411W        W39545   6.036  13.361   4.390 -0.1939  0.0905  0.1310
23412W        W39546   6.465  15.269  16.193 -0.0414 -0.1225 -0.1191
23413W        W39547   5.391   1.324  12.511 -0.1494  0.1089 -0.1871
23414W        W39548   4.639   5.357   5.123  0.0261  0.0933  0.2059
23415W        W39549  11.099  11.038  13.586 -0.0148  0.0725 -0.0164
23416W        W39550  13.972   7.703   4.558  0.4036  0.1594  0.1394
23417W        W39551  16.885   0.790  15.234 -0.2273  0.1615  0.1543
23418W        W39552   0.496  11.552   1.112  0.2488  0.0262 -0.0791
23419W        W39553  15.414  16.363  12.105 -0.0294  0.0037  0.0808
23420W        W39554  15.394   1.261   0.016 -0.1291 -0.1390 -0.0718
23421W        W39555   3.907  10.722  15.542 -0.1473  0.0791 -0.0917
23422W        W39556  15.329   4.538  13.852  0.0317  0.0042 -0.3129
23423W        W39557  14.522   7.758   1.474 -0.1053  0.0670 -0.0316
23424W        W39558   7.981  14.083  12.553  0.1251  0.1611 -0.2866
23425W        W39559   1.317   7.310   2.229 -0.2516 -0.0428 -0.0568
23426W        W39560   1.809   8.146   2.153  0.3466  0.2179 -0.1545
23427W        W39561   0.588   6.823  15.267  0.2442  0.1394  0.0166
23428W        W39562   3.885   2.825   4.632  0.0102  0.0636  0.2619
23429W        W39563  10.044   2.562  14.546 -0.3290 -0.0447 -0.0302
23430W        W39564   4.690   9.387   5.035  0.2015  0.0283  0.3171
23431W        W39565  14.392  14.499   0.174 -0.0502  0.1578 -0.2020
23432W        W39566   4.142   1.642   1.848 -0.2833 -0.1001 -0.1316
23433W        W39567   9.998  10.680   5.209 -0.4026 -0.2324  0.0321
23434W        W39568  10.026  11.625   4.214  0.1683  0.3015 -0.0290
23435W        W39569   4.886  13.830  16.903  0.1725 -0.0529 -0.0252
23436W        W39570   3.667   5.013  13.026 -0.4355 -0.2128  0.0952
23437W        W39571   7.466   0.933   4.365 -0.0523 -0.0402  0.0771
23438W        W39572   5.037   0.467   1.068 -0.0505  0.0778 -0.2291
23439W        W39573   3.852   0.769   3.667 -0.1457 -0.1818 -0.2069
23440W        W39574   9.093  14.842  14.167  0.0965 -0.0621 -0.0456
23441W        W39575   9.787   6.486  12.151 -0.0099 -0.0203  0.2741
23442W        W39576   0.774  16.787  14.102  0.1012 -0.1028  0.1767
23443W        W39577  10.065   3.862   0.703 -0.1443  0.4137 -0.0114
23444W        W39578  16.059   8.115  16.619  0.1734 -0.1057 -0.1555
23445W        W39579   5.315   8.367   0.213 -0.1996  0.0987  0.0391
23446W        W39580  12.104  11.330  16.281  0.0786  0.0034  0.4502
23447W        W39581  10.713   0.325  16.583  0.2821  0.2885  0.0732
23448W        W39582  16.892  11.108  16.366  0.2717 -0.0088 -0.1182
23449W        W39583   7.515   9.120  16.039 -0.0002  0.1159  0.3093
23450W        W39584   4.832  12.630   1.538 -0.1929  0.2829  0.0532
23451W        W39585  17.610   0.897   3.284  0.0285 -0.0889 -0.0303
23452W        W39586   4.954   8.584  13.872  0.0328 -0.0289 -0.0365
23453W        W39587  15.839   0.772  16.313 -0.0516 -0.0113  0.2652
23454W        W39588  11.823   1.890   1.043  0.0003 -0.3275 -0.2002
23455W        W39589   9.386   4.996   3.080  0.1776 -0.0728 -0.1189
23456W        W39590  13.252   3.774  12.276 -0.2424 -0.1239 -0.2385
23457W        W39591  15.960  12.318  15.278 -0.0994 -0.0195  0.2726
23458W        W39592   7.224   1.118   5.861  0.3120 -0.0584  0.2648
23459W        W39593   0.431  10.584   4.311 -0.0487 -0.1187  0.1712
23460W        W39594  12.310   9.706   4.118 -0.0437  0.0339 -0.1872
23461W        W39595   0.988  15.937   0.930  0.2958  0.0360  0.4013
23462W        W39596  11.795   1.999  13.713  0.2918 -0.0179  0.3233
23463W        W39597   1.061   9.894   3.206 -0.1911  0.0183  0.1384
23464W        W39598   3.086  10.214   2.403 -0.0658  0.0230 -0.0553
23465W        W39599   8.889   2.581  14.748  0.2768  0.1186 -0.0494
23466W        W39600   7.142   6.775   2.542 -0.1087 -0.1400 -0.0573
23467W        W39601   5.539  11.006  16.479 -0.0491 -0.1745  0.0982
23468W        W39602  10.030   6.969   0.207  0.3081  0.0903  0.1498
23469W        W39603  12.715   5.496   5.211 -0.2112 -0.0200 -0.1284
23470W        W39604   1.159  16.838  16.678  0.1316  0.0480  0.1560
23471W        W39605   5.294  14.081   0.701  0.3694 -0.3406  0.0784
23472W        W39606   7.434  15.896  13.020  0.1181  0.0373 -0.0302
23473W        W39607  11.866   5.248   4.754 -0.0964  0.2347  0.5620
23474W        W39608   6.594   7.475  12.686 -0.1377 -0.0024  0.3082
23475W        W39609  17.294  15.095   4.994  0.0366 -0.0770 -0.0995
23476W        W39610  10.084   0.396   1.386 -0.0457  0.0086  0.1786
23477W        W39611  15.686   9.099  16.799 -0.2674  0.0236 -0.0997
23478W        W39612  16.207   2.300  16.785 -0.5182  0.0208 -0.1468
23479W        W39613   0.251   2.229   2.934  0.1777 -0.0118 -0.1726
23480W        W39614   3.596   5.511  16.971 -0.2211  0.3135  0.0637
23481W        W39615   9.243   2.850   4.697  0.2599  0.2067  0.0889
23482W        W39616  12.057   9.014  14.507  0.0272 -0.0457  0.0613
23483W        W39617  10.441   8.731  16.472  0.1472  0.0731  0.1658
23484W        W39618   7.704   4.207  13.371  0.3804 -0.1884 -0.0561
23485W        W39619   7.000   9.213  13.374 -0.2194 -0.2388  0.0976
23486W        W39620   6.241   7.892   2.898  0.2000 -0.1531 -0.2041
23487W        W39621  17.411  14.930  12.532 -0.0588  0.0511  0.2493
23488W        W39622   9.139   9.249   0.613 -0.0647  0.2966  0.0420
23489W        W39623   2.430   9.508   1.994 -0.0942  0.1730 -0.2847
23490W        W39624   2.704   0.759   5.916 -0.3492 -0.0919 -0.0758
23491W        W39625   2.266  12.974   4.621  0.2105  0.1125 -0.0723
23492W        W39626   9.441   9.847  15.995  0.1681 -0.0470 -0.1117
23493W        W39627   8.321  16.371   4.548 -0.1577  0.0912 -0.0528
23494W        W39628   9.866   7.009   5.576  0.2789 -0.2599 -0.1864
23495W        W39629  10.948  11.312   4.148  0.0610  0.0907  0.2711
23496W        W39630  11.147   3.883  15.963  0.0144  0.0424  0.0445
23497W        W39631  10.366  16.481  12.166 -0.1076  0.2003  0.2253
23498W        W39632   7.179   4.549   4.971  0.2440 -0.0674 -0.0347
23499W        W39633   1.806   8.230   4.289  0.1171 -0.3726  0.0068
23500W        W39634  16.737   1.235  17.138 -0.0123 -0.1619  0.4182
23501W        W39635   0.647   0.610  16.510  0.0132 -0.2336 -0.0317
23502W        W39636  17.156   8.957   1.250  0.0187 -0.1926 -0.1599
23503W        W39637   9.405  12.553   4.887 -0.1864 -0.1049  0.0674
23504W        W39638  10.190  11.797   5.600  0.0616 -0.0273  0.1507
23505W        W39639   1.480   3.933   3.448  0.2377  0.0977  0.0897
23506W        W39640  15.327  16.432  16.424 -0.2232 -0.0351 -0.1516
23507W        W39641   1.548   4.297  14.294 -0.0141 -0.0560 -0.0111
23508W        W39642   1.036   3.094  16.108  0.0831  0.0517 -0.0723
23509W        W39643   0.597   8.284  11.367 -0.0083  0.1145  0.1823
23510W        W39644  14.871  13.620   0.261  0.1329  0.5388 -0.2199
23511W        W39645   8.747   2.364  11.577 -0.0023  0.1598 -0.1283
23512W        W39646   8.302   1.836   2.536  0.2446  0.0077  0.1790
23513W        W39647  14.757   8.551   0.713 -0.5599  0.0023 -0.0752
23514W        W39648  17.306  12.503  13.126  0.1974  0.3997 -0.2801
23515W        W39649  11.662   2.407  13.331  0.1544 -0.1680 -0.2500
23516W        W39650  13.475  17.349  14.383  0.4226  0.0942 -0.0379
23517W        W39651   4.252   8.093   0.999  0.0417  0.0207  0.1229
23518W        W39652  15.304   6.188   4.901 -0.1503  0.5691 -0.0426
23519W        W39653  11.456   8.674  12.363  0.2602 -0.2366  0.0267
23520W        W39654   4.049  10.982  11.464  0.3709 -0.0908  0.1374
23521W        W39655   8.641   1.712   1.828  0.2868 -0.1194 -0.0715
23522W        W39656  16.115  10.064   3.331 -0.1858 -0.0706 -0.1954
23523W        W39657   7.290   2.097   2.894  0.1994 -0.2987 -0.0550
23524W        W39658   2.066  14.980  11.958  0.0820 -0.0924 -0.0751
23525W        W39659  12.645   4.661  11.419  0.4593 -0.0282 -0.1112
23526W        W39660  12.341   4.915   3.507 -0.0114 -0.1822 -0.1916
23527W        W39661  11.239  10.387  13.093 -0.0704 -0.4364  0.1299
23528W        W39662  13.790   3.199  12.933 -0.0404 -0.0262 -0.0558
23529W        W39663   3.358   0.177   6.083 -0.1600  0.1311 -0.2029
23530W        W39664  17.549   3.554   1.831 -0.1808 -0.0795  0.1718
23531W        W39665   0.961  15.234  16.378  0.0300  0.0454  0.1616
23532W        W39666  14.448   9.806  14.793 -0.1237  0.0945  0.0999
23533W        W39667  14.161   0.910   4.110 -0.1326 -0.3776  0.1823
23534W        W39668   0.922  14.020  14.637 -0.1219  0.0830  0.1045
23535W        W39669  10.648  12.929  14.723 -0.0360 -0.0724  0.3677
23536W        W39670   6.999   7.253  13.081  0.0979 -0.3243  0.0970
23537W        W39671  16.514   3.666  15.644  0.3138 -0.0506  0.0526
23538W        W39672  15.311  10.146   1.315  0.2174 -0.0718  0.0700
23539W        W39673   9.937   2.570  15.370 -0.0042 -0.1494  0.0800
23540W        W39674   0.931  16.628  15.754 -0.2722  0.3680  0.1398
23541W        W39675  10.685  16.323  13.171  0.1389 -0.0153  0.0406
23542W        W39676   1.791  16.388   4.863  0.3521 -0.0337 -0.0443
23543W        W39677   0.767   7.028   0.392 -0.1336 -0.1568  0.1360
23544W        W39678  10.281  14.266  15.384  0.0559 -0.0899 -0.2377
23545W        W39679   0.242  11.013  10.979  0.0753  0.1483 -0.0888
23546W        W39680  10.549   7.600   1.665 -0.2931  0.1304  0.2430
23547W        W39681   0.789   1.054   5.483 -0.1530  0.0606  0.0932
23548W        W39682  16.888   0.913   2.274 -0.3339 -0.0484  0.4772
23549W        W39683   0.684   2.351   3.543 -0.0298 -0.1234 -0.2891
23550W        W39684   2.709  11.671  14.754 -0.0153  0.4690  0.0119
23551W        W39685   6.422  17.188   0.242 -0.0650  0.1179  0.1931
23552W        W39686   3.483   8.125  12.285  0.1592 -0.0011 -0.0714
23553W        W39687  16.117   4.258   5.599  0.0515  0.1045  0.0160
23554W        W39688  10.232   0.750   1.062 -0.0242 -0.1035  0.3255
23555W        W39689   8.403  10.282  17.107  0.1142 -0.2479 -0.1313
23556W        W39690   5.730  14.452  15.858  0.2479 -0.0921  0.1437
23557W        W39691  11.130   5.456   3.288  0.3226  0.1235 -0.0079
23558W        W39692   4.553   2.916  12.472 -0.0004  0.1428  0.1191
23559W        W39693  12.401   7.504  17.111 -0.1367  0.1413 -0.2587
23560W        W39694   8.951  17.413  11.712 -0.0919  0.2418  0.1384
23561W        W39695  10.551   4.581   2.726  0.2714 -0.2395 -0.2948
23562W        W39696   6.948   3.226   4.631  0.1077 -0.1508  0.0354
23563W        W39697   0.589  11.911  14.306 -0.1679  0.0830 -0.2309
23564W        W39698  10.908   2.972  16.565  0.0084 -0.1635  0.0549
23565W        W39699   8.573  17.200   5.827 -0.1110  0.2055  0.2110
23566W        W39700   5.436   1.440  15.016 -0.1658  0.0690  0.0502
23567W        W39701  14.675   9.047  16.070  0.2729  0.2076  0.1391
23568W        W39702   3.844   2.720  13.164 -0.2154  0.0448 -0.1615
23569W        W39703  14.148   3.290  13.265 -0.1695 -0.0291 -0.3320
23570W        W39704  16.388   8.405   3.727 -0.0810 -0.2038 -0.1892
23571W        W39705   2.928  11.512  16.125  0.1592 -0.1335 -0.2997
23572W        W39706  12.913  11.078  14.969 -0.1257  0.0272  0.1148
23573W        W39707   2.941  15.825   1.949  0.4039  0.1612 -0.1566
23574W        W39708  12.978  13.669   1.526  0.3262  0.0297  0.0311
23575W        W39709   4.569  12.240  14.132  0.1874 -0.0875  0.1180
23576W        W39710   8.335  15.189  15.345 -0.0469 -0.1659  0.1458
23577W        W39711   9.654   3.072   3.198  0.0038 -0.0904  0.1461
23578W        W39712   2.004   7.493  12.375 -0.3506  0.0459  0.0621
23579W        W39713  10.594   2.673   0.300  0.0065  0.3217  0.1334
23580W        W39714  12.082   2.249   2.554 -0.3069 -0.0107  0.0945
23581W        W39715   9.447  15.615  14.916  0.1206  0.3269  0.2457
23582W        W39716   5.435  15.951   4.969 -0.1470 -0.0427 -0.0075
23583W        W39717   7.021   7.752  13.757  0.1804  0.3377 -0.2751
23584W        W39718  16.810  17.310  13.037 -0.3355  0.0837 -0.2294
23585W        W39719  12.338   5.297   0.922 -0.1432 -0.0546 -0.1558
23586W        W39720   0.157  10.321  14.764  0.0495  0.1560  0.3666
23587W        W39721  17.240   2.276   5.315  0.0125 -0.2618 -0.1656
23588W        W39722  15.081   8.178   3.677 -0.4113  0.1167  0.0386
23589W        W39723   8.490   9.510   3.937  0.1689 -0.1080 -0.0358
23590W        W39724   2.354   5.283  15.672  0.2972 -0.1689 -0.3320
23591W        W39725   4.477   4.938   2.277  0.3815 -0.2916  0.1553
23592W        W39726   0.209  16.273   2.298 -0.0513  0.2300 -0.0398
23593W        W39727  13.694  16.599  14.815 -0.0375 -0.2942 -0.1703
23594W        W39728   3.756  16.508   1.557 -0.0904 -0.0713 -0.1225
23595W        W39729   8.777   6.500   3.590 -0.2013  0.0311  0.4260
23596W        W39730   4.823  10.382   1.416  0.0004 -0.1461 -0.2853
23597W        W39731   0.177  12.879  12.771 -0.1255 -0.4337  0.1446
23598W        W39732   8.100   3.224  16.368  0.1065  0.2186 -0.1500
23599W        W39733   7.185   0.741   0.196 -0.0447  0.1895 -0.1359
23600W        W39734  10.564   9.944   3.127  0.0624  0.3797  0.1462
23601W        W39735  13.468   4.251  13.180  0.0631  0.2318  0.1187
23602W        W39736   2.635   1.872  15.223 -0.0235  0.0841 -0.0207
23603W        W39737  12.968   3.956   1.568  0.2472  0.2601 -0.1324
23604W        W39738  15.473   2.443   4.869 -0.2978 -0.0237 -0.0407
23605W        W39739  10.182   6.007   4.613  0.0517  0.0098  0.4023
23606W        W39740  13.562   7.893  14.041 -0.1104 -0.0466 -0.0019
23607W        W39741   1.046   0.557  12.845 -0.1034  0.1136  0.1699
23608W        W39742   0.165   5.810  12.623  0.2313  0.0973  0.2840
23609W        W39743  12.106  13.558  11.770  0.1325  0.3095 -0.2195
23610W        W39744   3.513  13.142   0.385  0.0575  0.0359  0.2180
23611W        W39745   8.204  14.061   5.374  0.4734 -0.1203 -0.1555
23612W        W39746  11.954  11.641   4.259  0.2339 -0.0118 -0.0250
23613W        W39747  14.808   0.383  14.501 -0.1549  0.0725  0.1983
23614W        W39748  15.553  16.773  13.062  0.0580  0.0417  0.0427
23615W        W39749  10.424   8.513  16.948 -0.0332 -0.0050 -0.0678
23616W        W39750   7.564  17.444  15.589  0.0558 -0.0601  0.0314
23617W        W39751   7.488   3.088   1.961  0.2492  0.2445  0.0490
23618W        W39752   7.976   3.796  13.173  0.1113  0.0676 -0.1224
23619W        W39753   8.919   4.735  13.872 -0.0741  0.0395 -0.1086
23620W        W39754  14.154  16.702   0.323 -0.2032 -0.2016 -0.0430
23621W        W39755   2.868   4.550  14.186 -0.1321 -0.1484 -0.0214
23622W        W39756  13.517   6.353  16.523  0.1764  0.4096 -0.1144
23623W        W39757   5.535  13.956   2.937 -0.0223 -0.0066 -0.1766
23624W        W39758  16.990  16.356   3.305 -0.1305  0.2600 -0.0029
23625W        W39759  10.791  16.608  16.064  0.2036 -0.3954 -0.1775
23626W        W39760  15.435   8.605   3.360 -0.0327 -0.1653 -0.1904
23627W        W39761   2.198  11.028  16.764 -0.1908  0.0196  0.0093
23628W        W39762   6.055  15.580  16.208  0.0637 -0.0552  0.2572
23629W        W39763   3.261   2.363  15.380 -0.2199  0.1883 -0.0568
23630W        W39764   4.014  13.648   4.283  0.0309 -0.2345 -0.0194
23631W        W39765   5.124   5.568  14.585  0.1778  0.3781  0.0498
23632W        W39766   8.887   2.138  16.802 -0.3488  0.5252  0.0406
23633W        W39767  16.109  13.701   4.054 -0.0955  0.1561  0.2462
23634W        W39768   5.190   3.024  14.372  0.2922  0.1540 -0.0879
23635W        W39769  17.211  14.181   1.660  0.1781 -0.1418  0.0536
23636W        W39770   0.320  16.368  11.168  0.2840 -0.0088  0.3049
23637W        W39771   2.639   1.799  17.111  0.0397  0.0233 -0.0868
23638W        W39772   2.427   3.965   1.006 -0.0389  0.1905 -0.1481
23639W        W39773  16.305  11.149  13.059  0.0707 -0.0896 -0.1716
23640W        W39774   7.339   3.894   4.235 -0.0833  0.1153 -0.2005
23641W        W39775   3.200   8.236   3.791  0.0057 -0.0596 -0.0984
23642W        W39776  14.452  12.078   2.740 -0.1806 -0.1119 -0.2849
23643W        W39777  14.816   9.670   0.515 -0.0415  0.2123  0.2828
23644W        W39778  16.874  12.473  14.616  0.1659 -0.1726 -0.1177
23645W        W39779  12.510   9.952   5.044  0.1132  0.0342  0.0253
23646W        W39780   2.432   0.876  15.545 -0.0200 -0.0628 -0.0580
23647W        W39781  16.649   9.250  15.815 -0.1822 -0.1970 -0.1290
23648W        W39782   1.150   9.937   5.481 -0.2123 -0.1639 -0.1136
23649W        W39783  15.245   0.633   4.064  0.2146  0.1637  0.0773
23650W        W39784   0.927  15.809   5.121  0.1142  0.0885  0.0135
23651W        W39785  12.070   9.506  11.718  0.1405  0.2790  0.2475
23652W        W39786  12.567   0.657  16.500 -0.1616 -0.1241  0.2021
23653W        W39787   0.301   0.322   6.166  0.1818 -0.2050  0.2548
23654W        W39788  17.281   9.373  11.474 -0.1501  0.0254 -0.1482
23655W        W39789   0.760  16.813  11.808  0.3551 -0.0231 -0.1358
23656W        W39790   7.249  11.610  14.895 -0.0080 -0.1401 -0.0353
23657W        W39791   2.451  11.162  12.057  0.1333  0.3025 -0.2204
23658W        W39792  16.367   9.705  14.216  0.1383 -0.1130 -0.0011
23659W        W39793   7.261  10.157   1.249  0.2372  0.2361  0.0527
23660W        W39794   6.350   8.703   5.260 -0.2118  0.0274  0.1424
23661W        W39795   0.877   9.613  16.374  0.0633  0.0705 -0.0392
23662W        W39796  16.455  15.642  13.276  0.1310  0.2637 -0.1438
23663W        W39797   6.761  15.371  11.910  0.1245  0.0561  0.3123
23664W        W39798   9.446   4.200   2.364  0.3166  0.4661 -0.1738
23665W        W39799   7.851  10.434  13.793 -0.0314 -0.0401  0.1076
23666W        W39800  16.804  11.399  11.577 -0.0209 -0.1780 -0.1995
23667W        W39801   9.351  13.929   2.271 -0.2330 -0.0901 -0.2816
23668W        W39802   8.674   7.627  14.603  0.0430 -0.3131  0.0530
23669W        W39803   8.146  12.860   1.673  0.1266 -0.1597 -0.4012
23670W        W39804  16.305  13.633  15.932  0.1298  0.0949  0.2156
23671W        W39805   8.168   4.155   4.109 -0.2661  0.2237 -0.2937
23672W        W39806  14.368  11.417   1.823  0.1240 -0.1749 -0.0603
23673W        W39807   2.963   4.919  11.831  0.1683 -0.1559  0.0182
23674W        W39808  17.216  10.038  11.491 -0.0682 -0.1207  0.0337
23675W        W39809  12.211  10.999   3.662  0.0528 -0.2033 -0.0645
23676W        W39810  16.967   0.286  13.469  0.4285  0.2927  0.0729
23677W        W39811  15.057  17.138  14.493  0.1027 -0.0503  0.1971
23678W        W39812   4.838  14.732   5.295 -0.0423 -0.2004  0.0694
23679W        W39813  11.609   2.984  14.864 -0.1160 -0.2619  0.1510
23680W        W39814   6.444  16.274  14.515  0.1728 -0.1567  0.1794
23681W        W39815  17.298   1.124   2.480  0.0081  0.1325 -0.1256
23682W        W39816   3.212  12.834  14.730  0.3062 -0.1302  0.1837
23683W        W39817  16.953  15.864  15.003 -0.0083  0.2111 -0.1596
23684W        W39818   3.599  14.760  14.744 -0.0427 -0.1530  0.1367
23685W        W39819   8.826   6.498   6.311  0.0891 -0.1433  0.2013
23686W        W39820   2.271   0.831   6.185 -0.0121  0.0079  0.0964
23687W        W39821   6.600  16.515   4.491  0.1535 -0.1349  0.0621
23688W        W39822   4.199  13.825   2.145  0.1227 -0.1569  0.0850
23689W        W39823   8.346  13.823   5.836 -0.2650 -0.1288  0.0028
23690W        W39824  17.276  15.138  14.859 -0.2123  0.0189 -0.0037
23691W        W39825  15.998   7.796   3.177  0.2381 -0.0087 -0.0007
23692W        W39826   1.297  12.608   4.412  0.1500 -0.0049  0.0692
23693W        W39827  10.712   7.671   2.956 -0.2399  0.0878  0.2206
23694W        W39828   9.248  10.694   0.628 -0.0886 -0.1192 -0.2887
23695W        W39829   7.504   9.037   2.236 -0.1190 -0.3358  0.1440
23696W        W39830   5.693  17.091   3.022  0.0939  0.1885 -0.1734
23697W        W39831  14.050  15.531  12.650  0.1759 -0.5419 -0.1469
23698W        W39832  15.427   1.071  14.281  0.1984 -0.0263  0.0228
23699W        W39833  10.921  17.304   5.918 -0.1136  0.1092 -0.1198
23700W        W39834   2.177   9.784  16.396 -0.2028  0.0658  0.0878
23701W        W39835  17.293   4.047  16.614 -0.0078  0.3058 -0.4499
23702W        W39836   5.324   5.508  13.736  0.1334  0.2092  0.0368
23703W        W39837   7.587   9.400  15.609 -0.0752 -0.2288  0.0735
23704W        W39838   1.511  13.373   0.947 -0.1561  0.0454  0.0029
23705W        W39839   5.148  17.061   5.190 -0.0260 -0.0162  0.2650
23706W        W39840  10.422  14.995   0.780  0.0417  0.1729  0.1284
23707W        W39841   2.921   0.465   0.248  0.3403  0.3185  0.2497
23708W        W39842   6.030   9.669   0.612  0.1318  0.0015  0.0493
23709W        W39843  16.059   3.912   1.753  0.1433 -0.1708  0.0853
23710W        W39844  13.565  14.119   4.993 -0.0508 -0.0391 -0.1796
23711W        W39845  13.812   2.532  12.616  0.0766 -0.0271  0.0996
23712W        W39846  10.038  10.720   1.776  0.0534  0.0630 -0.3862
23713W        W39847   4.278   4.102  16.313 -0.0217  0.1323 -0.0723
23714W        W39848   3.566   2.783  12.171 -0.1114  0.1201  0.1351
23715W        W39849   8.193   3.442   5.235 -0.0679 -0.0627  0.1580
23716W        W39850   1.791  14.367   3.406 -0.2410 -0.0478 -0.1777
23717W        W39851   5.436   8.505   4.184 -0.1556 -0.1502 -0.0183
23718W        W39852   0.838   2.121  14.249 -0.1143 -0.1320 -0.0518
23719W        W39853   2.550   8.843  15.486 -0.2392 -0.1354  0.0581
23720W        W39854  15.147   7.007  15.076 -0.2524 -0.4314  0.3217
23721W        W39855   2.360   1.806  13.604  0.2506  0.0161  0.0761
23722W        W39856  14.951  17.104   0.416  0.0338  0.1029 -0.0612
23723W        W39857  12.848  10.353   3.443 -0.0114  0.1504 -0.2000
23724W        W39858  12.337   1.407   5.395 -0.3939  0.0335 -0.1548
23725W        W39859   2.934   4.310  13.652 -0.0551  0.1996  0.0920
23726W        W39860   3.557   6.166  15.769 -0.0590 -0.1383 -0.3705
23727W        W39861  17.570  17.291   0.555 -0.0755 -0.2377  0.0430
23728W        W39862   5.793   3.052   5.835  0.0356  0.1685 -0.1209
23729W        W39863  10.171   0.507   2.548  0.2067  0.1315  0.2927
23730W        W39864   9.811  14.034  12.371  0.0532 -0.3033  0.1810
23731W        W39865   5.114  12.580   4.194  0.0907  0.2045 -0.0323
23732W        W39866  11.953   6.252   0.621 -0.0176 -0.3639 -0.0487
23733W        W39867  15.556   8.670  17.085 -0.0257 -0.1212  0.5523
23734W        W39868   7.783  16.728   5.127  0.1418 -0.1489  0.2936
23735W        W39869  12.577   7.203  14.095 -0.0726 -0.1863  0.1213
23736W        W39870  14.334  10.768   2.412  0.0017 -0.1919  0.1131
23737W        W39871   7.732   8.779  12.443  0.3238 -0.0668  0.0436
23738W        W39872  15.320   4.896   4.059 -0.0930 -0.0123  0.1397
23739W        W39873   6.152   0.301   2.728  0.0496 -0.2542 -0.1763
23740W        W39874   9.448  16.267   0.627 -0.2430 -0.0247 -0.0888
23741W        W39875  14.918   9.815  15.558 -0.0937  0.2813  0.1525
23742W        W39876   9.698  10.127   1.043 -0.1021  0.1318  0.1363
23743W        W39877  16.905  16.061   0.828  0.4960  0.3642  0.2563
23744W        W39878   9.592   2.372   1.305  0.1493  0.3076 -0.0887
23745W        W39879   1.209   9.379  13.468  0.0865  0.1704  0.1646
23746W        W39880  15.137  12.201   0.324  0.0017  0.1868 -0.1256
23747W        W39881  17.255  14.394   3.643 -0.0253  0.1689  0.2417
23748W        W39882   5.028  16.575  12.810  0.1025 -0.0370  0.1473
23749W        W39883  12.954   2.561   6.272  0.2244  0.1711  0.2910
23750W        W39884   6.545   5.937   0.214 -0.0187  0.1798  0.5240
23751W        W39885  10.394  14.498   4.150 -0.0068  0.0407 -0.1593
23752W        W39886   3.390  13.584   0.649 -0.4586  0.0062 -0.0377
23753W        W39887   2.594  10.950   3.560  0.0787  0.3051 -0.0287
23754W        W39888  13.379   4.874  15.633  0.0879  0.1870  0.1119
23755W        W39889   1.571   7.352  15.738  0.2348 -0.0095 -0.0508
23756W        W39890  14.446  11.220   2.286 -0.0127  0.0896  0.1789
23757W        W39891   0.238  16.869   0.658  0.1260  0.0591  0.3049
23758W        W39892   4.304  10.809   2.330 -0.1424 -0.1710  0.1745
23759W        W39893   7.855  15.578   2.003 -0.0184 -0.1228  0.4073
23760W        W39894   0.982   3.775   3.383  0.1471 -0.0525 -0.2204
23761W        W39895   2.756   4.231   4.149 -0.0939  0.2064 -0.1425
23762W        W39896  15.773  16.906   3.120 -0.0539  0.1634  0.0315
23763W        W39897   2.735  10.317  15.138 -0.1276 -0.0056  0.0278
23764W        W39898   6.503   9.425  16.793  0.1648  0.0492 -0.0340
23765W        W39899   1.384  13.610  16.579 -0.3584 -0.0495  0.2832
23766W        W39900   0.283   5.080   4.238  0.0378 -0.2249 -0.3341
23767W        W39901   9.598   1.378   4.624 -0.1511  0.2091 -0.0166
23768W        W39902   4.677   8.281   2.053 -0.1551 -0.0505  0.0479
23769W        W39903   9.595   6.945  11.974  0.0268 -0.2831 -0.1802
23770W        W39904  10.881   8.090   1.080  0.1307 -0.0028 -0.0964
23771W        W39905   7.069   0.934   2.564 -0.1508 -0.0443 -0.2072
23772W        W39906   5.813  17.527  16.859  0.3520 -0.2676 -0.1944
23773W        W39907  15.952   0.988   6.552  0.4054 -0.2364  0.0212
23774W        W39908   7.836  14.703   1.686 -0.0488 -0.1046  0.2826
23775W        W39909   0.361   2.956   4.468  0.0314  0.0466  0.2604
23776W        W39910  11.283   3.471   2.896 -0.0608  0.1518 -0.3080
23777W        W39911   7.553   7.170  13.172 -0.0231  0.0357 -0.1848
23778W        W39912  12.504   5.733   2.272 -0.0463  0.0111  0.0100
23779W        W39913  15.715  14.820  12.583  0.0028 -0.3047 -0.0701
23780W        W39914  16.198   4.677   0.566 -0.1049  0.0131 -0.2548
23781W        W39915  17.551  11.396  13.814  0.1679 -0.2285  0.1521
23782W        W39916   5.785   1.981   5.837 -0.2045 -0.0595  0.1630
23783W        W39917  13.284   7.364   4.924  0.1077 -0.0593  0.0529
23784W        W39918   5.244  12.913   1.612  0.2926  0.0156 -0.1200
23785W        W39919   7.887   0.080   2.322 -0.0250 -0.2304  0.1410
23786W        W39920  12.206   5.679  15.697  0.0408  0.1655  0.2985
23787W        W39921   9.812   6.464   1.743  0.2983 -0.1630 -0.0695
23788W        W39922  14.581  12.747   4.773 -0.0701 -0.3160 -0.0097
23789W        W39923  13.968   7.604  15.358 -0.0976 -0.0266  0.1559
23790W        W39924   8.428   1.113  16.455  0.0162 -0.0141 -0.1262
23791W        W39925   1.184   2.471   3.315 -0.3335 -0.0316  0.0215
23792W        W39926  17.238  11.573   4.062 -0.1262  0.0724 -0.0824
23793W        W39927  13.943  10.570  14.323 -0.2458  0.0722  0.0285
23794W        W39928  17.549   6.979  15.663 -0.4055 -0.0900 -0.0555
23795W        W39929   9.161   2.656   4.047  0.2319  0.3536 -0.0178
23796W        W39930   9.778   8.126  11.503  0.2163 -0.2628  0.3233
23797W        W39931   8.998   1.190  11.531 -0.0456  0.0393 -0.1899
23798W        W39932   6.340   2.924  16.171  0.1996 -0.0332 -0.0512
23799W        W39933  15.455   0.662   2.038 -0.0509 -0.1692  0.4853
23800W        W39934  13.930   6.225  16.917  0.1964  0.0491 -0.2874
23801W        W39935   2.131   5.861   6.352 -0.1929  0.0350  0.1813
23802W        W39936  15.890   5.483  14.486  0.0455  0.4181  0.2329
23803W        W39937  10.719   2.444   1.277 -0.0660 -0.2836  0.0678
23804W        W39938   4.492   7.856  12.856 -0.2529  0.0375 -0.1822
23805W        W39939  13.608  17.205  12.802 -0.0451 -0.0551  0.1020
23806W        W39940  13.917  15.891   1.854  0.1314  0.0713 -0.1458
23807W        W39941  15.486   2.716   0.060 -0.1200  0.4087  0.1584
23808W        W39942   2.664   3.920  13.759 -0.0068 -0.3019 -0.0153
23809W        W39943  13.317   6.757  14.090 -0.2829  0.1441  0.0645
23810W        W39944  16.652   3.175  17.046 -0.0370  0.2037  0.0894
23811W        W39945  13.841   7.474  12.804  0.1472 -0.3728 -0.0140
23812W        W39946   7.235   0.631  12.805 -0.2455  0.0254 -0.1485
23813W        W39947   8.417   0.315  12.427 -0.0361  0.2763  0.1910
23814W        W39948  10.728   2.645  16.235 -0.1190  0.0015 -0.3971
23815W        W39949   2.625  13.468   4.086  0.1605  0.2473  0.4096
23816W        W39950  11.079   4.065   4.719  0.1560  0.3339  0.1636
23817W        W39951  13.191   6.874   3.407  0.0862  0.0778  0.0217
23818W        W39952   4.693   9.127   5.893 -0.1690  0.0616  0.1860
23819W        W39953   0.553   5.081  12.085 -0.2081  0.1194  0.0056
23820W        W39954  13.063   0.124   3.207 -0.1817 -0.2102 -0.1710
23821W        W39955   6.523  16.912  15.256  0.3061  0.0862 -0.0717
23822W        W39956  15.959  16.965  15.546  0.3640  0.4209 -0.0775
23823W        W39957   5.509   2.284   4.192  0.0553 -0.3169 -0.0707
23824W        W39958  16.713   1.200   5.646 -0.2413  0.0815 -0.0353
23825W        W39959  17.025   8.148   3.844 -0.1600  0.0439 -0.0463
23826W        W39960  13.239  14.061   0.704  0.1570  0.1251 -0.0497
23827W        W39961   6.986  13.100   5.328  0.0474 -0.0119  0.1810
23828W        W39962   8.949  12.225  14.416 -0.2347 -0.0788  0.0164
23829W        W39963  14.843   1.887  12.926 -0.0489  0.2962 -0.0152
23830W        W39964   1.234   1.736   3.374  0.0204 -0.0543  0.1391
23831W        W39965   6.386   7.912   2.001 -0.3052 -0.1146  0.3061
23832W        W39966  11.621  15.411  14.338 -0.0588 -0.0219 -0.0325
23833W        W39967  10.868   2.029  13.100  0.0355  0.1277  0.0646
23834W        W39968  13.034   6.124   1.772 -0.0683 -0.0697 -0.1200
23835W        W39969   0.967   7.021   2.466  0.0504  0.1174 -0.0935
23836W        W39970   3.683   6.182  12.496  0.2111  0.2915  0.1522
23837W        W39971   2.517  16.695  13.452  0.0409 -0.0706  0.1558
23838W        W39972   0.504   6.221  14.477 -0.0600  0.0346 -0.1558
23839W        W39973   2.987  12.918   3.898  0.2264 -0.2649 -0.0208
23840W        W39974   5.098  11.890  15.045  0.2788  0.1674 -0.1840
23841W        W39975   0.502  10.828  13.456  0.0328  0.0437  0.2275
23842W        W39976  17.063   6.142   4.059  0.0145  0.0247  0.1021
23843W        W39977   9.583  13.800   5.396  0.2337  0.0865  0.2097
23844W        W39978   3.648   4.535  16.469  0.0083  0.0159 -0.1920
23845W        W39979   1.246  16.995   3.338  0.5045  0.0502  0.2685
23846W        W39980   1.912  10.339  13.299 -0.2625  0.0527  0.2156
23847W        W39981   5.872   6.556  16.649  0.1107  0.1501 -0.0280
23848W        W39982   7.362  17.617   2.746  0.0722  0.1595 -0.0729
23849W        W39983   6.419   6.232   2.421 -0.2052 -0.0997  0.0180
23850W        W39984  14.119  16.136  12.198 -0.1822  0.1017  0.2334
23851W        W39985   0.208   5.584   4.162 -0.2700 -0.1855 -0.1555
23852W        W39986   4.078   2.164  15.032  0.4613  0.1815  0.0808
23853W        W39987   8.962  14.963  16.605 -0.0853  0.0168 -0.1551
23854W        W39988   9.782   4.508   0.637  0.0707  0.0247 -0.0680
23855W        W39989   5.604   9.930  15.786  0.0836 -0.0794 -0.0215
23856W        W39990   1.856   6.374   5.111  0.0286 -0.1563  0.1890
23857W        W39991  12.632  16.840  14.100 -0.1800  0.1992  0.0020
23858W        W39992  16.806   5.284   4.230 -0.2254 -0.2190  0.0728
23859W        W39993   0.333  16.620  13.233  0.1716 -0.0703  0.2993
23860W        W39994  16.608  12.914  15.224  0.2151  0.0851  0.0941
23861W        W39995   0.985  11.491   0.815  0.0756 -0.0128  0.2688
23862W        W39996   3.724   4.505   0.180  0.3787 -0.2064  0.1146
23863W        W39997  15.241   1.964   4.839 -0.0107  0.4008  0.0867
23864W        W39998   0.987  14.430   5.738  0.0457 -0.2005  0.2077
23865W        W39999  15.228   3.538   3.929 -0.1996  0.0940  0.0670
23866W        W40000   4.818  10.987  15.330  0.3170  0.0175 -0.1440
23867W        W40001   7.462  14.818   1.215 -0.0951  0.0073 -0.1632
23868W        W40002   9.340   2.836  12.475  0.1410  0.2485  0.2295
23869W        W40003  12.433   3.667  12.861 -0.0563  0.0484 -0.1157
23870W        W40004   6.619   8.865  12.454 -0.1365 -0.1264  0.1426
23871W        W40005  15.910   5.719   0.227  0.1759  0.4085 -0.3263
23872W        W40006  12.118   0.192   0.605  0.2462 -0.0584  0.1562
23873W        W40007  15.864   8.154  14.357  0.1329 -0.0593 -0.0162
23874W        W40008   6.932   7.131   0.541 -0.0624  0.0315 -0.1088
23875W        W40009   6.711   6.583   2.190  0.0315 -0.3295  0.1851
23876W        W40010   1.525   5.943   1.937  0.0844 -0.1310 -0.1081
23877W        W40011   1.903  13.973   4.327 -0.0881 -0.4119 -0.0008
23878W        W40012  13.724   9.203   1.669 -0.0054  0.2968 -0.1315
23879W        W40013  16.262   2.586  13.676 -0.1053  0.2017 -0.0753
23880W        W40014   2.569  14.668   2.095  0.1389 -0.1885 -0.2785
23881W        W40015   9.827   3.324  16.128  0.1046 -0.2672 -0.3574
23882W        W40016  17.310   5.626  17.083 -0.0906 -0.0097  0.0231
23883W        W40017   5.091   4.228   0.243 -0.2814  0.0243 -0.3278
23884W        W40018  10.570   7.898  16.282 -0.0338  0.0073 -0.0016
23885W        W40019  12.054   2.245  14.742 -0.3789  0.1288  0.1646
23886W        W40020  14.749   9.658   5.296 -0.0479 -0.3608  0.0181
23887W        W40021   4.554  14.679   3.085 -0.1894  0.0096 -0.3526
23888W        W40022  16.405  16.424  14.955 -0.1640 -0.1248  0.2653
23889W        W40023   1.521  16.352   1.549 -0.0120  0.0218  0.2411
23890W        W40024   7.473  16.441   1.848 -0.0100  0.2114 -0.0871
23891W        W40025   2.592   8.779  11.250 -0.2664  0.2283  0.0141
23892W        W40026  12.888   3.109  12.691  0.1524 -0.2220 -0.3949
23893W        W40027   0.050   5.916  11.813 -0.1571 -0.1204 -0.0565
23894W        W40028  14.732  17.157   5.510  0.2822 -0.1174 -0.0743
23895W        W40029   5.507  10.654   6.693 -0.1072 -0.0866 -0.2081
23896W        W40030  14.743   4.316   1.011 -0.0061 -0.1856 -0.0818
23897W        W40031   8.256   9.102  13.920 -0.2174  0.1379 -0.1061
23898W        W40032  10.748   8.069   3.276  0.1764  0.0342 -0.2572
23899W        W40033  14.735   7.689   3.151 -0.0356  0.0515 -0.2632
23900W        W40034   0.282  13.913   3.477 -0.0727 -0.4355  0.0289
23901W        W40035   8.626   4.594   3.414  0.0517  0.2269  0.0019
23902W        W40036  12.027   4.325   5.231 -0.2079  0.3002 -0.0891
23903W        W40037  10.355  17.650  12.822  0.2032 -0.2276  0.0500
23904W        W40038  10.192   7.922  13.530 -0.2465  0.2333 -0.0763
23905W        W40039  14.395   9.927  16.623 -0.2838 -0.1642 -0.0719
23906W        W40040   7.421   9.941   3.205 -0.1210 -0.0361 -0.0355
23907W        W40041   6.809   9.472   4.801  0.1703  0.1210  0.3842
23908W        W40042  11.361   0.988   3.161 -0.1376  0.1030  0.1228
23909W        W40043  13.788   2.770   2.189 -0.2973 -0.1513  0.1463
23910W        W40044  17.143   1.395   0.160 -0.1446 -0.1016  0.2554
23911W        W40045   2.395   9.558  11.970  0.0803  0.0023 -0.0774
23912W        W40046   5.139   7.242  14.852  0.1281 -0.0129 -0.2028
23913W        W40047   0.796  17.175  13.768  0.3288  0.0076 -0.1774
23914W        W40048   9.536  16.177  12.325  0.0188  0.0449 -0.4516
23915W        W40049   0.309   1.945   6.047 -0.7239 -0.0030 -0.0475
23916W        W40050   2.549   8.857   1.214  0.1908 -0.1731  0.3466
23917W        W40051   4.767   1.896   5.244 -0.3174  0.0336 -0.1331
23918W        W40052   9.780   4.868   4.665  0.2625 -0.1598 -0.1397
23919W        W40053   5.423   7.630  16.095 -0.0860 -0.0400 -0.0402
23920W        W40054   7.079  13.501   3.132 -0.3405 -0.0291 -0.1511
23921W        W40055  13.361  17.337   1.170  0.0064 -0.0008  0.0556
23922W        W40056   5.275   3.673  13.535  0.2348  0.0700  0.1658
23923W        W40057  12.804  11.902   2.682  0.1665 -0.3077  0.2212
23924W        W40058  10.711   5.452   5.022 -0.0400 -0.1046 -0.1137
23925W        W40059   9.324  11.251   4.812 -0.2864  0.0561  0.1140
23926W        W40060   5.814  11.788   0.444  0.0499  0.2785 -0.2274
23927W        W40061   1.411  16.555  15.232  0.2265  0.4119  0.0691
23928W        W40062   6.212   1.138  15.510  0.1545  0.1598 -0.3681
23929W        W40063  12.707   2.909  16.305 -0.1077 -0.2239 -0.1702
23930W        W40064  12.730  11.734   4.878 -0.1452 -0.1473  0.1139
23931W        W40065  12.246  10.425   5.033 -0.1677  0.0058 -0.1391
23932W        W40066  15.189   5.922  12.130 -0.0985 -0.0850 -0.2786
23933W        W40067   0.693   5.630  12.113 -0.1384  0.0767 -0.0297
23934W        W40068   9.016   1.594   5.242 -0.1352 -0.1835  0.0796
23935W        W40069   6.505  14.211   1.406 -0.1981 -0.0735  0.2726
23936W        W40070   0.725  17.208  15.605  0.2319 -0.1177  0.1417
23937W        W40071   8.521   9.092   4.776 -0.1007  0.0832 -0.2258
23938W        W40072   4.554  15.583   4.586 -0.0374 -0.2787  0.1755
23939W        W40073  13.539  11.361   2.422 -0.0111 -0.1504 -0.2916
23940W        W40074   5.850   4.418   1.485 -0.3533  0.2593 -0.0909
23941W        W40075   1.618  17.355   0.632  0.3245  0.0610  0.0194
23942W        W40076  13.185  16.917  12.216 -0.1951 -0.0380 -0.1921
23943W        W40077   2.969  17.659  12.869 -0.1622 -0.0060  0.2174
23944W        W40078   4.750   3.765   3.140  0.2293 -0.1191  0.1055
23945W        W40079   8.271  14.110   2.099 -0.2546  0.4836  0.2062
23946W        W40080  12.748  12.794  15.970  0.0448  0.3279 -0.0643
23947W        W40081  11.310  13.188   3.431  0.2746  0.1456  0.0701
23948W        W40082  13.224  15.717   3.070  0.0324  0.1235 -0.1878
23949W        W40083  12.687   9.302  13.357 -0.0063 -0.0432 -0.1903
23950W        W40084  14.826  13.503  16.504  0.3561 -0.0730  0.0136
23951W        W40085   0.741  11.351   0.029  0.1003 -0.2381  0.1545
23952W        W40086  15.903  10.116   0.655 -0.2047  0.2308 -0.0341
23953W        W40087  13.438  14.924   0.665  0.2655  0.1910 -0.2541
23954W        W40088  10.227   9.365   0.017 -0.0202 -0.2950  0.1768
23955W        W40089   3.126  13.080   1.419 -0.1691 -0.2271  0.1663
23956W        W40090   3.389  11.002  14.398 -0.1265  0.0234  0.1205
23957W        W40091   3.288   0.723  14.583 -0.2478 -0.0598 -0.1050
23958W        W40092   9.468   7.898   2.564 -0.0372 -0.0890 -0.1135
23959W        W40093  14.639   2.502   0.454 -0.0016 -0.0487  0.1264
23960W        W40094  11.964   4.372   0.591  0.1554  0.1934  0.0618
23961W        W40095  11.128   0.672  16.413 -0.3647 -0.2190  0.3144
23962W        W40096  13.612   4.194   5.466  0.0838  0.2428 -0.0951
23963W        W40097   3.072  14.221   0.334  0.2292  0.0391 -0.1311
23964W        W40098  13.775  16.496  15.415  0.0127  0.0850 -0.0237
23965W        W40099  11.387   1.063  12.463 -0.2366  0.0033  0.2377
23966W        W40100   3.915   3.728   3.821 -0.2759 -0.0049 -0.0712
23967W        W40101  12.790   2.478  13.286 -0.2117  0.2397 -0.1985
23968W        W40102   9.546  10.296  14.002 -0.2801  0.0549 -0.0745
23969W        W40103   9.832  11.298  16.971 -0.1422  0.0341 -0.1913
23970W        W40104  16.388   3.825  13.935 -0.1815 -0.0124 -0.1726
23971W        W40105  11.386   6.602   1.658 -0.1147 -0.1599 -0.0944
23972W        W40106   9.689  15.677  12.627  0.1236  0.0309 -0.0043
23973W        W40107  14.065  12.800   3.596 -0.1689 -0.0405 -0.4049
23974W        W40108   2.553  14.880  16.316  0.1719  0.2981  0.0691
23975W        W40109   0.753   3.313  12.974 -0.0882 -0.0504  0.0723
23976W        W40110   7.125  14.804   0.233  0.2272  0.0242 -0.3416
23977W        W40111   1.688   5.913  13.948  0.0510 -0.4454  0.1864
23978W        W40112  15.055   2.403   5.065 -0.0270  0.2255 -0.2458
23979W        W40113   6.467  11.016  14.990  0.0990 -0.0280 -0.0750
23980W        W40114   4.611   6.776  13.054 -0.0670  0.0287 -0.1560
23981W        W40115   6.104  10.351  14.085  0.2168  0.0100  0.1759
23982W        W40116  11.308  15.699   1.009  0.0729 -0.1574 -0.4852
23983W        W40117   0.156  15.067   1.670  0.0117 -0.1425 -0.3189
23984W        W40118   0.688  13.996  15.129  0.4168  0.0798  0.0330
23985W        W40119   6.177   6.481  12.593 -0.0616 -0.2427 -0.1148
23986W        W40120   8.087  15.231  13.283 -0.0920 -0.1715 -0.0820
23987W        W40121   3.018  13.667   5.994 -0.0382 -0.0543 -0.1135
23988W        W40122   9.356  16.470   1.561  0.0342 -0.1642  0.1619
23989W        W40123  17.598   7.092   1.093  0.2609  0.0446 -0.3221
23990W        W40124  13.467  14.711   3.975 -0.1543 -0.2433  0.0141
23991W        W40125  16.422   6.600  14.053  0.1166 -0.1144 -0.1550
23992W        W40126  16.116   7.884  16.179 -0.1769  0.1390  0.1443
23993W        W40127   6.441  16.296   0.013  0.0065 -0.0401 -0.1475
23994W        W40128  10.718   5.708   3.565 -0.0429 -0.2657  0.2715
23995W        W40129  14.033   7.082  13.236 -0.0661 -0.1206  0.0535
23996W        W40130   7.735  10.724  13.450 -0.2269 -0.0155  0.3215
23997W        W40131  13.070   6.555   3.843 -0.3234  0.0881 -0.2955
23998W        W40132   4.319   6.624   1.609 -0.0424  0.0199 -0.1575
23999W        W40133   6.106   2.514   2.053  0.1343  0.0318  0.0089
24000W        W40134   2.674   7.278   3.665  0.0894 -0.0650 -0.1219
24001W        W40135   1.970  13.992   5.341  0.2236  0.0891  0.1211
24002W        W40136  17.593  13.062  11.718 -0.1931  0.4013  0.0209
24003W        W40137   5.806   3.075   1.365  0.1754 -0.1159  0.5938
24004W        W40138  15.785  14.291   2.692  0.0367 -0.2725 -0.2161
24005W        W40139  17.361   7.939  11.624 -0.1282  0.2379 -0.0618
24006W        W40140  13.908   4.439  11.868 -0.1144  0.1122  0.0152
24007W        W40141  13.708   6.284   0.423  0.0476  0.1884 -0.0995
24008W        W40142  16.007  15.378   5.448 -0.0665 -0.0905 -0.1508
24009W        W40143  13.301  11.965   2.540 -0.0955 -0.1604 -0.0505
24010W        W40144   4.158   3.608   6.226 -0.1528 -0.0952 -0.1584
24011W        W40145   6.154   6.324  14.335 -0.0180  0.1130 -0.2328
24012W        W40146   5.759  17.414  14.436  0.0224  0.0554  0.3501
24013W        W40147  16.580   2.537  14.187  0.0024  0.1963  0.1273
24014W        W40148   1.458   2.042  12.551 -0.0660  0.1371  0.0427
24015W        W40149  10.368  11.495  16.982  0.0028  0.1035 -0.1597
24016W        W40150  16.198   0.094  12.881  0.0959 -0.3009 -0.0022
24017W        W40151  12.527  13.611  14.662 -0.3580 -0.1451  0.0693
24018W        W40152   9.200   8.259   5.368  0.0562  0.0394 -0.2099
24019W        W40153  13.466   1.572  12.601  0.1320  0.2799  0.2027
24020W        W40154   6.050  11.393  13.004  0.2042  0.0642 -0.0697
24021W        W40155  16.021   2.062  14.005 -0.1886  0.2502  0.2913
24022W        W40156  10.401   2.033  16.771  0.1391 -0.1957 -0.1141
24023W        W40157   3.982  12.546  15.317  0.1036 -0.0505  0.3443
24024W        W40158   7.130  13.126  14.180  0.3182  0.1963 -0.1578
24025W        W40159   1.431   6.610   4.240 -0.1776 -0.3651 -0.1191
24026W        W40160   0.974   4.057  17.044 -0.0413 -0.1327  0.3518
24027W        W40161   1.678  17.043  16.803 -0.2300 -0.1196 -0.0103
24028W        W40162   8.280  11.278  11.659 -0.1501 -0.2256 -0.0712
24029W        W40163   0.389  14.408   3.304 -0.1255 -0.0192 -0.4466
24030W        W40164  13.912  16.207  14.989 -0.0275 -0.1739  0.0985
24031W        W40165  16.825  12.385   5.019 -0.0192 -0.1613  0.1178
24032W        W40166  11.757   6.956  16.022  0.1514  0.1722  0.1765
24033W        W40167  10.021  12.459   3.228 -0.3145 -0.1425 -0.0104
24034W        W40168  11.118   2.221   4.643 -0.1033  0.2138  0.0610
24035W        W40169   3.069   5.393   2.800  0.1967  0.0313 -0.3468
24036W        W40170  11.873   9.185   2.173 -0.1841  0.1526  0.0753
24037W        W40171  16.298  17.148   6.200  0.1755  0.1787 -0.2211
24038W        W40172   0.311   5.338  14.881 -0.3118 -0.1139  0.0065
24039W        W40173  14.457   1.119   5.944  0.1403 -0.4278  0.0775
24040W        W40174  10.358   1.255   5.012 -0.1788  0.0706  0.3778
24041W        W40175   5.187   3.763   1.501 -0.2520  0.0877 -0.0533
24042W        W40176  12.172  14.335  16.233 -0.2732  0.1935 -0.1615
24043W        W40177   9.446   3.763  15.269  0.0491  0.2710 -0.3214
24044W        W40178  14.554   0.252   4.973 -0.0792  0.0757 -0.1356
24045W        W40179  15.886  16.503   4.060  0.1039 -0.2483 -0.2618
24046W        W40180   3.978   9.527  16.941  0.0942  0.2671 -0.2175
24047W        W40181   6.556  15.419   3.783 -0.1475  0.2642 -0.0407
24048W        W40182  13.520   2.003  15.234 -0.0558  0.2320 -0.4718
24049W        W40183   0.273  13.557   0.321 -0.1319  0.1341 -0.0550
24050W        W40184  15.339  16.048  14.323  0.1951  0.1103  0.2089
24051W        W40185   0.701   8.577   3.729  0.0452  0.2736 -0.0709
24052W        W40186  12.060   3.450   4.156  0.1076 -0.2415 -0.0198
24053W        W40187   1.007   4.552   0.554 -0.1829  0.0479 -0.1018
24054W        W40188  10.857  16.563   0.340 -0.2383  0.1639  0.2564
24055W        W40189  15.219   7.408   2.145  0.1328  0.2355 -0.3195
24056W        W40190   0.960   6.857  11.399  0.2265  0.1035 -0.1064
24057W        W40191   3.548   6.132   0.962 -0.0949  0.2410  0.0570
24058W        W40192  17.195   9.444   0.541 -0.0862  0.5457  0.1054
24059W        W40193   0.305  14.885   3.057  0.0963  0.0565 -0.2795
24060W        W40194  15.676   4.565   0.148 -0.0066 -0.1094 -0.1083
24061W        W40195  14.831   6.275   2.762  0.1268 -0.1518 -0.0684
24062W        W40196   9.226   3.960   3.910 -0.0376 -0.1928  0.3237
24063W        W40197   8.700   9.191  16.570  0.2285 -0.3683  0.1341
24064W        W40198  10.021  13.644   3.794 -0.0195  0.0932 -0.0479
24065W        W40199  17.544   1.347   5.155 -0.0371  0.2076  0.0419
24066W        W40200   2.847   9.467   4.024  0.0343 -0.0546  0.0486
24067W        W40201  10.361   9.102  12.102  0.4396 -0.2735  0.0766
24068W        W40202   6.741   2.673   2.568 -0.0583  0.0331  0.2044
24069W        W40203   3.785  13.686   4.837 -0.0837 -0.0472 -0.1122
24070W        W40204  13.197  12.213  14.062 -0.1036  0.1439  0.0547
24071W        W40205  13.406   2.900   2.545 -0.1560 -0.1429 -0.1560
24072W        W40206  17.458   4.257  12.334 -0.0243 -0.0294  0.2041
24073W        W40207   0.201   1.898   0.658  0.0978  0.3796 -0.0622
24074W        W40208  16.641  11.927  14.802 -0.1767  0.0839 -0.0590
24075W        W40209   0.948   8.208  15.453 -0.0082  0.1880  0.1827
24076W        W40210   4.475   6.274   0.707 -0.3453  0.2121 -0.1161
24077W        W40211  10.018   4.463  11.630  0.1099 -0.0263  0.3359
24078W        W40212  13.337  16.860   1.166 -0.0424 -0.0613 -0.0500
24079W        W40213  11.290   0.023  13.436 -0.0871  0.0696  0.0449
24080W        W40214  17.361   6.890   3.978 -0.1555  0.0221 -0.1025
24081W        W40215  12.910   5.758   0.238 -0.1602  0.1828  0.3767
24082W        W40216  14.336  13.443   0.460 -0.0319  0.1198 -0.0751
24083W        W40217   2.116   8.897  11.260  0.0841 -0.1740 -0.2744
24084W        W40218   3.641   2.255   0.066 -0.0862 -0.2180  0.1098
24085W        W40219   3.671  15.687   3.233 -0.1009 -0.2702  0.2088
24086W        W40220  13.577  10.750   4.562  0.1712  0.2396 -0.0765
24087W        W40221   5.352  12.632  13.218 -0.1874 -0.0891 -0.0890
24088W        W40222   9.720   3.658  16.517  0.0676 -0.0546  0.0110
24089W        W40223   2.719   4.590  15.092  0.1341 -0.0998 -0.1211
24090W        W40224   5.436   4.241  14.777  0.1390  0.5939  0.0264
24091W        W40225   8.857  10.082   0.651  0.0743 -0.0516 -0.0400
24092W        W40226   4.706  13.618  15.406  0.1843  0.1503 -0.0974
24093W        W40227  17.011  13.319   1.656  0.0472 -0.1911  0.4506
24094W        W40228  14.603   8.822  11.382  0.2347  0.0374 -0.1256
24095W        W40229  17.581   4.328   1.372  0.1566  0.1935  0.0677
24096W        W40230  15.841   3.955   3.171  0.0903  0.1068  0.1287
24097W        W40231   8.256  14.932  12.138 -0.0263 -0.0283  0.2141
24098W        W40232   3.774   2.913  14.902 -0.0155 -0.0478 -0.0697
24099W        W40233   4.645   2.846  15.015 -0.0445  0.2431 -0.0118
24100W        W40234   8.243  14.783   0.187  0.0581  0.2147  0.0357
24101W        W40235  12.638   2.388  11.982 -0.3791  0.2370 -0.2477
24102W        W40236   3.566  17.296   0.286  0.0951  0.1497  0.1292
24103W        W40237  15.549  13.893   2.630  0.2712 -0.1215  0.0493
24104W        W40238  17.515   2.566   2.777 -0.0280 -0.0511 -0.0013
24105W        W40239   6.946   2.216   1.851 -0.1209  0.0408 -0.2203
24106W        W40240   5.177   2.388   3.618  0.0836  0.0433  0.2155
24107W        W40241  12.564   2.748  14.906 -0.1070 -0.1217 -0.0911
24108W        W40242   5.824  16.855  13.164 -0.3095 -0.0645  0.1120
24109W        W40243  15.294  11.560   1.326 -0.3447  0.1523 -0.0031
24110W        W40244   0.580  13.581   4.189  0.2452  0.3241  0.0873
24111W        W40245  10.796  17.022   2.973 -0.3311 -0.0705 -0.1208
24112W        W40246  15.582   2.064  16.962 -0.0491  0.0294 -0.1316
24113W        W40247  17.554  16.887   5.684  0.3867 -0.0982  0.1173
24114W        W40248   6.651  13.658   2.360 -0.1965  0.1718  0.2527
24115W        W40249  11.499  12.138   0.480  0.0355 -0.3874  0.0886
24116W        W40250  10.543   6.303  15.507  0.1530  0.1396 -0.0170
24117W        W40251   2.561  10.468  13.393 -0.1005  0.0637  0.1661
24118W        W40252  15.105  12.855   5.605 -0.1765  0.2255 -0.1132
24119W        W40253  14.457  13.849  15.736 -0.0461 -0.1274  0.0822
24120W        W40254  10.961   3.051  15.235  0.0912 -0.1417  0.2925
24121W        W40255   6.906  15.817  13.110  0.2027  0.0540 -0.4694
24122W        W40256   7.363  14.187  15.651  0.3412 -0.1907  0.0312
24123W        W40257  15.557  12.069   3.139 -0.1723 -0.3743 -0.3415
24124W        W40258  14.473  16.885  16.538  0.2973 -0.1236  0.0081
24125W        W40259   0.538  13.651   4.797 -0.1862 -0.3361  0.0938
24126W        W40260   6.069   3.641  15.704 -0.2723 -0.0764  0.1157
24127W        W40261   9.422   1.103   1.657 -0.0412  0.0683  0.1263
24128W        W40262   7.067  17.233   3.780 -0.1812 -0.0009 -0.0468
24129W        W40263  17.112  10.742  13.192 -0.0213 -0.4053  0.0397
24130W        W40264   5.596  15.634  15.326 -0.1227 -0.2030 -0.1117
24131W        W40265  15.564   7.484  13.185 -0.0237  0.2050  0.2209
24132W        W40266   4.500   6.319  16.365 -0.1977 -0.5584  0.4391
24133W        W40267  14.658  13.369  12.448 -0.1759 -0.1511 -0.0502
24134W        W40268  13.080   1.064  15.741  0.0229  0.2960 -0.2531
24135W        W40269  11.560  17.044  14.609  0.1853 -0.0364  0.0384
24136W        W40270   9.519   6.708  14.048 -0.1371  0.1884  0.0498
24137W        W40271  14.219  15.540   3.255 -0.1932 -0.1610 -0.3135
24138W        W40272  14.071   6.791   0.406  0.0602  0.1518 -0.1930
24139W        W40273   1.554  16.582  11.988  0.1190 -0.0453  0.0994
24140W        W40274  13.384  14.558   4.608 -0.3435 -0.1119  0.2282
24141W        W40275  15.142  11.912  14.793  0.0323  0.2481 -0.1406
24142W        W40276  15.316   9.963  14.767  0.0252  0.1904 -0.0267
24143W        W40277   6.927  14.120  15.080  0.0024  0.0614 -0.3592
24144W        W40278  13.345  13.320   5.863 -0.0628 -0.1664  0.0387
24145W        W40279  13.805   9.630  14.290  0.3319  0.2545 -0.0682
24146W        W40280   3.016   5.450   5.770 -0.0254  0.0650 -0.0791
24147W        W40281  11.052  17.029  16.885 -0.0668  0.3220 -0.0328
24148W        W40282   4.463  16.361  15.822  0.0018 -0.0816  0.0893
24149W        W40283  13.924   9.976   2.246  0.2194  0.0622 -0.1720
24150W        W40284   4.429  13.949  17.061 -0.2123  0.0129 -0.2979
24151W        W40285   4.888  14.086   1.194 -0.0413 -0.1618 -0.0529
24152W        W40286   0.658  16.075   4.801 -0.1153 -0.4424 -0.0546
24153W        W40287   0.727   6.632   2.988  0.1262 -0.1814 -0.2200
24154W        W40288  12.662  14.251  12.387  0.0995  0.0634 -0.0299
24155W        W40289   6.000   4.001  12.822 -0.3294 -0.2420  0.2361
24156W        W40290  12.495   3.451  11.701 -0.0215 -0.1834 -0.1736
24157W        W40291   9.941   5.269  17.062 -0.1747  0.1081 -0.0980
24158W        W40292  17.637   0.319   1.256 -0.0617 -0.1716 -0.0510
24159W        W40293   6.468  15.004   2.765  0.1651  0.0869 -0.1871
24160W        W40294   6.507   3.238  13.102 -0.0175 -0.3658  0.2148
24161W        W40295  13.582   5.043   0.892 -0.0890 -0.0006 -0.0597
24162W        W40296   2.166   3.406  15.326  0.0302  0.0897 -0.0128
24163W        W40297  15.379   8.775  16.646 -0.0440  0.0845  0.2636
24164W        W40298   9.374   2.697  16.439 -0.0043 -0.0024 -0.1709
24165W        W40299   4.480   5.861  13.960 -0.1074 -0.0167 -0.2308
24166W        W40300  14.311   9.456  15.634  0.0613  0.3484 -0.1128
24167W        W40301   8.708  12.365   2.755 -0.0093 -0.0181  0.1241
24168W        W40302  11.286  12.566  11.883  0.1128  0.2878 -0.0703
24169W        W40303   6.245   9.266   2.200  0.0173 -0.1844 -0.0860
24170W        W40304   8.883  16.562  12.003 -0.1248 -0.2940  0.0797
24171W        W40305  17.084   6.747   2.422 -0.0189 -0.0657  0.0474
24172W        W40306   4.288  11.382  15.033 -0.0309  0.1675  0.1388
24173W        W40307   1.460   8.320  12.565 -0.0974 -0.0684  0.1084
24174W        W40308  16.339   0.221   4.028 -0.0133  0.0590  0.0354
24175W        W40309  11.600   1.657   1.925 -0.0221  0.0089 -0.0148
24176W        W40310   8.657   3.815  16.700  0.0575 -0.0626 -0.0440
24177W        W40311   6.784   3.618  12.568 -0.1177  0.1488  0.0417
24178W        W40312   5.845   7.929  16.651 -0.2190  0.1307 -0.0014
24179W        W40313   7.260  12.109   1.608 -0.1594 -0.0704 -0.2914
24180W        W40314   4.783   2.122  14.018  0.1144 -0.1394 -0.1222
24181W        W40315   6.050   6.744   0.977 -0.0717 -0.2740 -0.1180
24182W        W40316   8.099  11.588   4.105 -0.3646 -0.1678  0.0775
24183W        W40317   6.353  10.335   2.357  0.0835 -0.0467  0.2535
24184W        W40318  17.426   2.895   2.409 -0.0518  0.0913  0.0443
24185W        W40319   9.275   5.660  17.112  0.1114  0.1181  0.0601
24186W        W40320   8.585   0.593  15.817  0.1154 -0.0530  0.1486
24187W        W40321   1.156   1.025  12.968  0.1493  0.1759 -0.0834
24188W        W40322  11.106   2.009  16.918  0.0638 -0.0243 -0.0009
24189W        W40323  12.412  13.526  15.650 -0.2831 -0.2689 -0.2107
24190W        W40324   0.090   4.821   0.815  0.0205 -0.1131  0.1957
24191W        W40325   9.724  12.331  11.912  0.2656 -0.2802  0.1267
24192W        W40326  11.483  16.555   3.562  0.3075 -0.0138 -0.1853
24193W        W40327   7.850   2.879  14.135 -0.3307 -0.2611  0.1572
24194W        W40328   3.430   4.650   3.367 -0.1466  0.1992 -0.0090
24195W        W40329   0.188   1.313  16.656 -0.1067 -0.0357 -0.0325
24196W        W40330  10.892   9.795   2.660  0.1036  0.2782 -0.0867
24197W        W40331  10.345  10.086  14.306  0.0603  0.0560 -0.2651
24198W        W40332  14.199  13.294   1.945 -0.1619 -0.0855  0.1106
24199W        W40333   0.683   7.252   2.869 -0.1509  0.1123  0.1037
24200W        W40334  11.538  12.606  13.778  0.0750  0.1608 -0.1319
24201W        W40335   5.264  12.231   5.204 -0.0360  0.0111  0.2067
24202W        W40336   9.480   1.733  15.561 -0.0511  0.1258  0.1026
24203W        W40337   4.850   2.474  12.215  0.0732  0.1010 -0.0261
24204W        W40338   6.651   2.181   0.776 -0.0813  0.2889 -0.1273
24205W        W40339   1.594   1.504   3.740 -0.0780  0.1337  0.2080
24206W        W40340   3.733  16.913   4.248  0.0152 -0.1973  0.0178
24207W        W40341  12.734   0.772   1.964 -0.1799 -0.1689  0.1823
24208W        W40342   6.041   2.799   0.987 -0.0293  0.0312  0.2425
24209W        W40343   5.179  16.655   0.771  0.2080  0.0526  0.0439
24210W        W40344   5.290   9.452   3.877  0.1392  0.1999 -0.1288
24211W        W40345   6.688  14.463  11.785  0.2234  0.0209 -0.1292
24212W        W40346   2.139  10.965  11.751  0.1685 -0.2388 -0.2767
24213W        W40347   4.228   0.843   3.088 -0.1983 -0.1074 -0.0099
24214W        W40348   3.346   3.505   0.217  0.1875 -0.2353 -0.0557
24215W        W40349  14.593  13.731   5.731 -0.1070 -0.1131  0.1343
24216W        W40350  11.008  10.884  12.915 -0.0880 -0.0459 -0.1040
24217W        W40351   3.563   6.725  12.204 -0.0677 -0.1806 -0.0035
24218W        W40352   7.172   5.189   1.191  0.0090 -0.2504  0.1498
24219W        W40353  17.222  15.105  13.993 -0.1487 -0.0435  0.1167
24220W        W40354   4.411   5.468  13.044 -0.0702  0.0166 -0.0497
24221W        W40355   4.905   5.229  16.403 -0.0551 -0.0471 -0.0772
24222W        W40356  13.917  11.139   0.814  0.1743 -0.3644  0.1091
24223W        W40357   8.457   4.405   5.490 -0.1734 -0.0215  0.0367
24224W        W40358   8.913  12.953   0.168  0.0974  0.1778  0.2066
24225W        W40359   7.611   2.424  14.124  0.5248 -0.1423 -0.0197
24226W        W40360   4.527   2.326  11.760 -0.2699  0.1910 -0.2947
24227W        W40361  12.929   1.545   4.193 -0.4176 -0.0342  0.2655
24228W        W40362   6.815  11.296   5.358  0.0846  0.3017  0.1109
24229W        W40363   7.064   5.377  16.702  0.0840  0.3219  0.3738
24230W        W40364   3.400   3.457  11.260  0.0535  0.1582 -0.0587
24231W        W40365  13.913  11.104   4.622  0.2651 -0.0115  0.0821
24232W        W40366   7.231   3.762   1.751  0.2402  0.1165 -0.0849
24233W        W40367   8.474   4.225  10.924 -0.0505  0.1293  0.1735
24234W        W40368  14.451   8.724  16.515  0.0292 -0.0027  0.1953
24235W        W40369   5.341  15.547   2.973 -0.4290  0.2980 -0.0672
24236W        W40370   8.426  12.130   3.176  0.2269 -0.2579 -0.1098
24237W        W40371  12.737  15.619   3.090 -0.0700  0.1950 -0.1470
24238W        W40372  16.147   3.814  15.231 -0.0656  0.3093 -0.2934
24239W        W40373   4.935   8.372  16.122  0.0575  0.1636 -0.1092
24240W        W40374  16.626  15.367   2.148 -0.0119  0.2552 -0.2398
24241W        W40375   2.138  17.025  14.268  0.0705  0.0744  0.4167
24242W        W40376   5.062   3.555   4.290 -0.1971  0.0259  0.0467
24243W        W40377  14.933   4.027   2.722  0.1305 -0.3113 -0.2804
24244W        W40378   8.482   8.112  12.758  0.1609  0.0082 -0.2153
24245W        W40379   1.306   1.906   1.996  0.0706 -0.0057  0.1036
24246W        W40380  12.007   9.963   4.891  0.2217  0.0515  0.2073
24247W        W40381  16.514  11.231   3.736 -0.2207  0.1645 -0.0616
24248W        W40382  16.178  10.493   3.039  0.2496 -0.1084  0.0288
24249W        W40383   4.841  12.167   1.982 -0.0801  0.1601 -0.0445
24250W        W40384   1.011   5.293  14.253 -0.1638 -0.3629  0.0490
24251W        W40385   8.428   2.802  14.435  0.1559  0.1137 -0.3931
24252W        W40386   0.684  13.330   0.544  0.2400 -0.0913  0.1532
24253W        W40387   0.576   4.899   5.653 -0.1511  0.1645  0.0325
24254W        W40388  11.204   6.631   1.205  0.1775 -0.0878 -0.0766
24255W        W40389   5.385  11.910  13.646  0.2636  0.1477  0.2579
24256W        W40390  12.659  12.884  15.064 -0.4511  0.0579  0.2549
24257W        W40391  12.976   5.399   1.027  0.0683  0.0153  0.1574
24258W        W40392   1.269  15.255   0.117 -0.1712  0.1986 -0.3038
24259W        W40393   3.287   5.092  17.087 -0.0511 -0.2530 -0.1699
24260W        W40394   3.926   4.362   1.025 -0.0105 -0.0021 -0.0552
24261W        W40395  14.140   9.421  14.669 -0.0363 -0.3089 -0.2079
24262W        W40396   2.941   8.888   1.543 -0.2444 -0.0050 -0.0351
24263W        W40397   9.460   5.519  15.343  0.1873 -0.1693 -0.0939
24264W        W40398   6.910  10.806   1.708  0.0527  0.1195 -0.1547
24265W        W40399  14.403   6.460  16.867  0.2654  0.1743 -0.0610
24266W        W40400  11.620  17.598  17.094 -0.1822  0.2625 -0.1296
24267W        W40401   6.717   1.411   4.903 -0.2043 -0.0513  0.0225
24268W        W40402   7.171  10.029   4.997  0.2428 -0.1981 -0.3231
24269W        W40403   2.993   0.996   0.230  0.2071 -0.1515  0.2811
24270W        W40404  16.650   6.208  13.681 -0.1310 -0.0925 -0.0026
24271W        W40405   7.686   6.864  12.761 -0.0002 -0.0067  0.0163
24272W        W40406  11.542  10.744  15.589  0.0316 -0.1389  0.0873
24273W        W40407  15.589   8.270   3.810  0.0828 -0.0725 -0.0798
24274W        W40408   2.561   6.783   0.206  0.0777 -0.1557 -0.0828
24275W        W40409  12.586   6.315  11.395  0.0550  0.2070 -0.0243
24276W        W40410   2.297  12.409  14.638  0.0355 -0.0876 -0.1042
24277W        W40411  12.311   0.883   5.506 -0.0323  0.1730 -0.1211
24278W        W40412   2.514   0.506  13.023 -0.2906 -0.0682 -0.0234
24279W        W40413  11.642   5.892   2.287  0.0132  0.0848  0.0387
24280W        W40414  13.498   3.170   2.032  0.0338 -0.0255  0.1084
24281W        W40415  13.960   0.205  13.713 -0.1217  0.0266 -0.4128
24282W        W40416   8.889  16.456  15.039 -0.0737  0.3667  0.2663
24283W        W40417   9.713   0.670  12.116  0.1539  0.0371  0.4152
24284W        W40418  17.176   1.601  14.054 -0.1351 -0.2342 -0.0987
24285W        W40419  17.398  17.651  15.035  0.1366 -0.3236 -0.1524
24286W        W40420   1.119   7.073   2.936  0.4364 -0.0673  0.0592
24287W        W40421   2.409  16.324   4.108 -0.1389  0.0673 -0.1463
24288W        W40422   6.959  13.033   4.477  0.1420  0.0975 -0.1368
24289W        W40423   9.486   8.161   4.696 -0.2178 -0.3436 -0.2345
24290W        W40424  12.558   7.007  15.545 -0.0006  0.0640  0.0199
24291W        W40425   5.867  15.331   1.908 -0.4158 -0.1706 -0.0899
24292W        W40426  16.248   6.060   2.417  0.0413  0.1561  0.1413
24293W        W40427   1.489   0.813  16.820 -0.2319  0.0310 -0.0692
24294W        W40428   6.819  13.286  12.081  0.0256 -0.2667  0.0867
24295W        W40429   0.113   4.016   3.437  0.0853  0.1741 -0.0319
24296W        W40430  10.863   9.995   5.616 -0.5342  0.0559  0.1330
24297W        W40431   6.967   9.690  16.952  0.1241  0.2389  0.2814
24298W        W40432   5.794   5.367  15.448  0.2304 -0.0282  0.2247
24299W        W40433  13.639   3.790  15.011  0.1559  0.1909  0.2268
24300W        W40434  13.076   4.666  13.653  0.2759  0.2231 -0.1071
24301W        W40435   0.503   3.537  14.055  0.0493  0.3616 -0.1597
24302W        W40436  11.479   6.316   4.458 -0.3222 -0.0255  0.2096
24303W        W40437   9.282   9.770   3.696  0.1459  0.0942 -0.0527
24304W        W40438   9.043   1.940   0.085 -0.0085  0.1979  0.2060
24305W        W40439   0.619   9.841   2.978 -0.0382 -0.1077  0.0256
24306W        W40440  16.412  16.132   3.269 -0.0099 -0.0362 -0.1313
24307W        W40441   9.710   7.965  13.788 -0.0094 -0.1323  0.0222
24308W        W40442  15.054   9.391   5.622  0.1087  0.1423 -0.0442
24309W        W40443  10.422  15.490  14.896  0.2551 -0.0797  0.1606
24310W        W40444   3.467  12.516  17.035  0.2563 -0.1226 -0.0400
24311W        W40445   4.119  11.140  12.221 -0.1267 -0.2402  0.0986
24312W        W40446   0.568  14.770  12.853 -0.2647 -0.1459 -0.1345
24313W        W40447  10.266  14.608  17.117  0.1704 -0.0684  0.0068
24314W        W40448  15.657  11.866  11.932  0.2315  0.1248  0.0449
24315W        W40449   1.315  13.075  17.169 -0.0398  0.1663 -0.0173
24316W        W40450  16.213  14.298   3.369 -0.0995  0.1486 -0.1796
24317W        W40451  15.273  11.527   4.285 -0.1740 -0.0896  0.0173
24318W        W40452   8.121   6.032   0.722  0.3212 -0.1264  0.1511
24319W        W40453   9.889  15.047  17.022  0.0822  0.0138 -0.1675
24320W        W40454  14.198  17.374  14.528  0.0935  0.0894  0.1888
24321W        W40455   0.479   1.694   2.080 -0.2893 -0.1812 -0.0906
24322W        W40456  14.514   9.321   1.239 -0.1562  0.1511  0.3020
24323W        W40457  17.650   7.228  16.102  0.2374  0.1197  0.0347
24324W        W40458  16.930   2.884  11.310 -0.2424 -0.2236  0.0831
24325W        W40459  16.857  11.271  13.988  0.1225  0.0975 -0.1455
24326W        W40460  13.434   7.831  15.968 -0.1823  0.1494  0.0218
24327W        W40461   7.091  10.156  16.860 -0.0149  0.1062  0.2177
24328W        W40462  11.547   3.980   4.536  0.0292 -0.2038 -0.0876
24329W        W40463  17.270  11.343  14.902 -0.1159  0.2496  0.3599
24330W        W40464  12.087  10.370  14.637  0.0428 -0.0193 -0.0867
24331W        W40465   5.117   2.971   4.278 -0.0387 -0.1681 -0.2429
24332W        W40466   2.167  12.910   1.591  0.0504  0.1307 -0.1517
24333W        W40467  10.720  10.652   2.392 -0.1387 -0.2190  0.4024
24334W        W40468   4.544  16.180   5.734 -0.0275 -0.2566  0.1685
24335W        W40469   6.291   1.907  13.534  0.1278 -0.1204  0.0122
24336W        W40470   9.107   8.091  16.887 -0.1035 -0.3816  0.0245
24337W        W40471   3.897  13.418  16.387 -0.0090 -0.3556 -0.0866
24338W        W40472   7.050   4.725   1.399 -0.0835  0.1481  0.0801
24339W        W40473   1.739  12.351   4.393 -0.2103  0.0978 -0.1514
24340W        W40474   5.863   2.516   2.489  0.2226 -0.1613  0.2219
24341W        W40475  14.075   2.835  16.031 -0.0887  0.0954 -0.1173
24342W        W40476   2.198   8.347  11.326 -0.0134  0.1211  0.2617
24343W        W40477   5.827  13.331  16.851  0.0293  0.1678 -0.2298
24344W        W40478   6.318  14.063  12.378 -0.0642 -0.0940  0.0155
24345W        W40479   9.655   3.639   1.175  0.1134 -0.1435  0.3191
24346W        W40480   9.544  10.580   2.166  0.2150 -0.4157  0.1677
24347W        W40481  16.761  12.803  13.810  0.0225  0.1011 -0.1319
24348W        W40482  16.134   3.560   3.842  0.1835 -0.3949 -0.2065
24349W        W40483   1.575   4.347  13.436 -0.2779 -0.1046 -0.0169
24350W        W40484  14.808   1.966  14.702  0.2573 -0.4352 -0.2759
24351W        W40485  14.938  15.005  16.199  0.0016  0.0154 -0.3148
24352W        W40486   1.411   8.272   2.451 -0.0308 -0.1168  0.2823
24353W        W40487  17.004  16.392   2.784 -0.3195 -0.1304 -0.1309
24354W        W40488   9.075   8.619  12.610 -0.0870  0.0972  0.0462
24355W        W40489   7.122  11.686   0.719  0.1060  0.0150 -0.1735
24356W        W40490   2.125   4.812   4.703 -0.2245  0.0616 -0.2123
24357W        W40491  12.839   0.783  14.140 -0.2430  0.0158  0.2127
24358W        W40492   6.700  10.469  15.639 -0.2135  0.3520 -0.0334
24359W        W40493  11.505   7.255   3.107  0.0682  0.0443  0.1028
24360W        W40494  11.147  15.212  15.245  0.2366 -0.0151 -0.1417
24361W        W40495   2.338   2.379   3.497 -0.0508 -0.2025  0.1376
24362W        W40496   9.142   9.399  14.638  0.3545  0.2329  0.0444
24363W        W40497   3.533  17.256   5.583 -0.1121  0.2711  0.0333
24364W        W40498   9.258   7.968  14.058 -0.0488  0.2964  0.3426
24365W        W40499   2.334  11.861   2.170  0.0924 -0.0818 -0.1828
24366W        W40500   8.651   1.674   6.329 -0.3838  0.0715  0.0835
24367W        W40501  13.251  14.068  14.509  0.0571 -0.2514 -0.1078
24368W        W40502   0.264   7.420   4.480  0.1892  0.3281 -0.0249
24369W        W40503  16.629   7.558   4.391  0.4078 -0.2515  0.1305
24370W        W40504   6.532  17.105   3.286 -0.0182 -0.0414  0.0897
24371W        W40505   3.165  16.550   3.735 -0.0472  0.1109 -0.2866
24372W        W40506   7.157   2.773  14.156 -0.2975 -0.0016  0.0943
24373W        W40507  10.543   8.465   1.071 -0.1006 -0.1389  0.0128
24374W        W40508   2.563  14.532  11.822 -0.0914  0.0098  0.1419
24375W        W40509   1.622  10.471  14.196  0.0480  0.1532  0.3306
24376W        W40510  10.964   3.255  14.175 -0.1374  0.2340 -0.0545
24377W        W40511   1.319   1.745  11.230  0.3914 -0.1478  0.1033
24378W        W40512  12.493   0.247  11.689  0.1461  0.0603 -0.0588
24379W        W40513  15.932  16.437  11.997  0.0830 -0.0054  0.0912
24380W        W40514  11.993   0.963  17.014  0.0079  0.2029  0.3111
24381W        W40515   9.796   5.934  12.739 -0.0268 -0.2537 -0.0876
24382W        W40516   3.701   0.743  16.103 -0.2797 -0.2241  0.2375
24383W        W40517   5.238  11.707  13.200  0.0484  0.2360  0.0041
24384W        W40518   1.432   8.600  13.366 -0.0355 -0.1381 -0.0320
24385W        W40519  12.554   2.008   5.395  0.0785 -0.1508  0.0900
24386W        W40520   6.707   3.773   5.458 -0.1217 -0.0388  0.1710
24387W        W40521   6.061   0.655  16.319  0.0289  0.0551 -0.0973
24388W        W40522   6.487  14.316  15.346 -0.2401  0.2339  0.1069
24389W        W40523   6.002   5.798   1.165 -0.0670  0.0702 -0.1693
24390W        W40524   8.570   2.982   0.910 -0.1077  0.2066 -0.1869
24391W        W40525   3.917   7.706  15.977  0.0847 -0.0395 -0.3258
24392W        W40526   9.421   5.230  12.399 -0.3829 -0.0688  0.0468
24393W        W40527   2.727  10.294  15.760 -0.0115  0.0413 -0.0296
24394W        W40528   8.714   7.220   4.097 -0.0460 -0.1967  0.0993
24395W        W40529   7.802  10.393   2.047  0.3277 -0.2030 -0.0449
24396W        W40530  10.810   2.795  11.901 -0.3524  0.3522 -0.1654
24397W        W40531   0.030   9.444   2.329 -0.0420 -0.0164 -0.0020
24398W        W40532   2.999   5.530   0.232 -0.2371 -0.4614  0.2280
24399W        W40533   9.064   4.813   0.321 -0.0337 -0.0864  0.0139
24400W        W40534   8.061  17.514  15.970  0.1548  0.1921 -0.0022
24401W        W40535  11.691  14.250  15.563  0.4965  0.0585 -0.0886
24402W        W40536   1.650   4.348   2.274  0.1436 -0.0867  0.2130
24403W        W40537   8.877   0.828  13.272  0.1093  0.1540  0.0817
24404W        W40538   3.724  13.726  12.614 -0.2414  0.0860  0.2138
24405W        W40539  12.370  13.195  12.739 -0.1206  0.0506 -0.0427
24406W        W40540   7.147   6.450   5.666  0.1663 -0.3267 -0.4465
24407W        W40541  12.890  17.644   1.159  0.3036  0.3318 -0.2100
24408W        W40542   6.121   9.659  11.598  0.0967 -0.4588 -0.1833
24409W        W40543  15.175   8.859   2.218  0.3375 -0.0582 -0.3008
24410W        W40544   4.148   5.939  12.931 -0.3156  0.2530  0.1966
24411W        W40545   7.348   6.126  15.809  0.1030  0.0924  0.2483
24412W        W40546  14.717   5.979  16.914 -0.0095  0.0374  0.0344
24413W        W40547  10.183   0.140   3.246  0.1437  0.1838 -0.1921
24414W        W40548  14.733  16.279   3.436  0.1293  0.0805 -0.3060
24415W        W40549  13.692   7.071   0.226  0.0314  0.0670  0.0699
24416W        W40550   2.850  13.627  12.418  0.2158  0.0941  0.1812
24417W        W40551   0.577   1.710  13.006  0.2507 -0.0019  0.0234
24418W        W40552  16.597  14.827  16.163 -0.4679  0.1461  0.1247
24419W        W40553   4.733   4.905  14.072  0.1884 -0.0313  0.1429
24420W        W40554   6.760   9.402  16.331 -0.0489 -0.0466  0.2364
24421W        W40555  11.739   6.251  14.782 -0.0106  0.0044  0.1717
24422W        W40556  11.088  15.396   3.869 -0.1771  0.0056  0.0374
24423W        W40557  13.505  10.837   0.890  0.0185  0.3054  0.0511
24424W        W40558  13.695   1.126  13.843  0.0255  0.2559 -0.0026
24425W        W40559  16.560   8.795   0.722 -0.1552 -0.1963  0.3508
24426W        W40560  17.244   7.387   2.807  0.2422 -0.1620 -0.1082
24427W        W40561   7.196  10.288  15.503 -0.0608 -0.0969  0.1136
24428W        W40562   9.818  14.927  14.421  0.0682 -0.1048  0.1581
24429W        W40563   3.882   0.803  13.411  0.0076 -0.0554 -0.1008
24430W        W40564  12.583  15.185  13.229  0.1029  0.1548 -0.2015
24431W        W40565   4.390   4.033  11.898 -0.2132 -0.0447 -0.0226
24432W        W40566  15.974   1.785   0.955  0.1725 -0.0102 -0.5343
24433W        W40567  17.032   6.947  11.584 -0.0948  0.1977  0.0043
24434W        W40568   0.203   3.162   6.214  0.0445  0.1636 -0.0221
24435W        W40569  16.560  11.850   0.649 -0.3754  0.0734  0.1100
24436W        W40570  11.966  16.274  16.841  0.1010  0.1544 -0.1690
24437W        W40571   4.155  15.725   1.488 -0.0912 -0.0645 -0.1208
24438W        W40572   1.129   1.788  16.428  0.0098 -0.1985  0.3029
24439W        W40573   7.691  11.285  16.303 -0.3166  0.3115 -0.2404
24440W        W40574   5.009  15.997   5.269 -0.2238 -0.2609 -0.1552
24441W        W40575  17.110   2.280  16.173 -0.0575 -0.1340  0.3787
24442W        W40576  16.123  10.099  14.482 -0.0958 -0.0397  0.1934
24443W        W40577   9.970   4.754  16.229  0.1942  0.1305 -0.1736
24444W        W40578   4.836   6.989  14.469 -0.0846 -0.0728  0.0772
24445W        W40579   6.298   6.523  14.890 -0.3114 -0.2615 -0.1366
24446W        W40580   8.239  10.562  13.133 -0.1729  0.0124 -0.0399
24447W        W40581  17.450   1.714   1.597 -0.0537 -0.0767 -0.1003
24448W        W40582   9.761   4.939  11.753  0.2440  0.0515  0.1886
24449W        W40583   5.981  12.613  17.113  0.1517 -0.3105  0.0366
24450W        W40584  16.648   9.460  12.814 -0.0630 -0.1712  0.0151
24451W        W40585  14.196   4.528  15.416 -0.0941  0.0890  0.2385
24452W        W40586  11.793  13.048  14.054  0.2747  0.0351 -0.0108
24453W        W40587  13.907  15.337   0.041  0.0191 -0.1324 -0.1639
24454W        W40588   6.090   5.950   2.247 -0.0829 -0.0267  0.0107
24455W        W40589   8.559   8.976   4.054  0.0045  0.1421 -0.0789
24456W        W40590   6.369   7.785   1.496  0.0268  0.1901 -0.2229
24457W        W40591   7.485   4.306  15.549 -0.0707 -0.1560  0.2197
24458W        W40592  16.629   7.852   0.597 -0.0411  0.0709  0.1493
24459W        W40593   6.984   0.837   3.387  0.0139  0.0392  0.1388
24460W        W40594   6.695   2.534  13.922 -0.0268 -0.2318  0.1300
24461W        W40595  12.398   1.740   0.359  0.1794 -0.1551 -0.1345
24462W        W40596  10.997   4.754   4.020  0.0540  0.0945  0.0376
24463W        W40597   5.280  11.145  12.791 -0.0455  0.3212  0.0759
24464W        W40598   3.825   6.405   1.478  0.2591 -0.0361  0.0475
24465W        W40599   0.931   1.207  15.368 -0.1145 -0.1617 -0.0501
24466W        W40600   8.224  12.561   2.884 -0.1497  0.0783 -0.1033
24467W        W40601   2.579  16.355   5.852  0.0407  0.1423  0.0295
24468W        W40602   9.497   5.100   1.237 -0.2187  0.0730  0.1978
24469W        W40603   4.531   1.347   4.552 -0.3665 -0.0243  0.0411
24470W        W40604  14.891  13.809   4.013 -0.0204 -0.2453 -0.0839
24471W        W40605  13.118  14.715   0.084 -0.2049 -0.1998  0.1730
24472W        W40606   4.014   8.956   0.278 -0.1979 -0.0018  0.0729
24473W        W40607  17.222   6.029  16.168 -0.1490  0.1395  0.2794
24474W        W40608   1.305   5.220  11.423 -0.2010  0.2987 -0.2228
24475W        W40609   1.268  10.592  14.562  0.0726 -0.4748 -0.1795
24476W        W40610   4.265  10.631   3.137  0.3849 -0.1526  0.0052
24477W        W40611  11.134  11.430   2.745  0.0968  0.0150 -0.0828
24478W        W40612  14.108   6.515   2.409 -0.4591  0.0032 -0.0891
24479W        W40613   2.918   6.907  13.016  0.2169 -0.1124  0.1213
24480W        W40614  15.203   0.595  15.002  0.0121  0.0230  0.2468
24481W        W40615   4.229  16.135  11.924 -0.0592 -0.0715  0.2170
24482W        W40616  13.538   3.727   0.857  0.1314  0.0691  0.3727
24483W        W40617   5.773  14.911  15.541  0.1701  0.0072 -0.2996
24484W        W40618  12.240   4.091  12.347  0.1088  0.1779 -0.1035
24485W        W40619   3.586  11.053   1.191 -0.0854 -0.3348 -0.0046
24486W        W40620   8.341   5.196  11.668  0.1453 -0.0636 -0.0687
24487W        W40621   3.206   6.064  13.279 -0.1991  0.3599 -0.0147
24488W        W40622   6.739  12.789   1.468  0.1952 -0.0158  0.1038
24489W        W40623  11.173   6.902  12.651 -0.0260 -0.1804  0.0580
24490W        W40624   5.755   3.003  16.837 -0.4251  0.2361  0.0924
24491W        W40625  11.705  12.568   2.071 -0.1121 -0.1252  0.1175
24492W        W40626   4.859   0.148  14.661 -0.0229 -0.4133  0.1185
24493W        W40627  15.878  16.261   4.991  0.0070 -0.1412  0.0387
24494W        W40628   5.169  14.050  13.758  0.2901  0.1339 -0.0950
24495W        W40629   6.915  14.129  14.504  0.0540  0.0220  0.1973
24496W        W40630   8.501   2.564  12.987 -0.0166  0.0327 -0.1944
24497W        W40631   4.328  10.755   3.662  0.1373  0.0993  0.1526
24498W        W40632   4.439   4.131  14.453 -0.1778 -0.1182  0.0644
24499W        W40633  13.928   0.136  14.337 -0.1964 -0.0024 -0.0521
24500W        W40634  17.440  11.500   2.262 -0.0679  0.0028  0.3741
24501W        W40635  10.117  13.215  16.859 -0.0841 -0.1081  0.1339
24502W        W40636  12.588   4.490  14.419 -0.1030  0.0516  0.2866
24503W        W40637  12.431  16.481  16.689  0.3384 -0.0019 -0.0113
24504W        W40638  17.624  10.705  13.200  0.0771  0.2596  0.0277
24505W        W40639   9.801  15.687  15.720  0.0612 -0.0688 -0.1068
24506W        W40640   8.016   7.937  15.517  0.0679  0.0199  0.1260
24507W        W40641  10.632  15.933  15.149  0.1614  0.0912  0.0845
24508W        W40642   3.751   9.949  16.888  0.1388 -0.2402 -0.3706
24509W        W40643  15.207   0.007  16.339  0.1139  0.0005 -0.0967
24510W        W40644  11.490   8.903   1.154  0.1515 -0.1056 -0.3909
24511W        W40645   8.940   3.141   4.448 -0.1192  0.0027  0.0709
24512W        W40646   8.673  10.354   3.734  0.0601  0.2816  0.1866
24513W        W40647  12.157   2.895   1.263 -0.0899 -0.0409  0.0695
24514W        W40648   7.385   0.565  11.910 -0.0973  0.0778 -0.2550
24515W        W40649   9.322  11.347   5.748  0.0184  0.1236 -0.0622
24516W        W40650  16.663  16.382   2.343  0.4164  0.2502  0.0596
24517W        W40651  13.853  15.726  15.759 -0.2893  0.1122 -0.0682
24518W        W40652   8.536   7.279  12.077 -0.0561  0.2096  0.0020
24519W        W40653   4.072   6.445   5.537 -0.2442 -0.1017  0.0364
24520W        W40654   2.728  11.954   0.492  0.0145  0.2167 -0.0398
24521W        W40655  15.835  11.232  14.842 -0.3789 -0.0008  0.2854
24522W        W40656  12.390   2.368   1.069 -0.0881  0.3749  0.2942
24523W        W40657  14.549  16.859   0.702 -0.0127 -0.0250  0.1347
24524W        W40658   3.313  15.958  16.606  0.0600 -0.1040  0.2743
24525W        W40659  12.870  12.122  13.441 -0.0741  0.0977 -0.2315
24526W        W40660  11.431  10.717  13.406 -0.1682 -0.1158  0.2609
24527W        W40661   0.538  16.033  14.096 -0.2532 -0.1170 -0.1026
24528W        W40662   1.043  13.497  14.464  0.0203 -0.2094  0.0243
24529W        W40663   3.919  14.035  13.954 -0.2446  0.0419 -0.0251
24530W        W40664  15.734  10.837  11.294 -0.0452 -0.1932  0.0039
24531W        W40665   0.761   5.393   1.053  0.0677 -0.1091  0.2509
24532W        W40666  14.945  16.085  14.612  0.0465 -0.2610  0.2195
24533W        W40667  17.608   5.622  16.163 -0.1708 -0.1198  0.0841
24534W        W40668  17.348  12.076  12.361 -0.1908 -0.2383 -0.2231
24535W        W40669   6.315  11.895  12.011  0.1215 -0.0521  0.2134
24536W        W40670   7.028   3.538   1.315  0.2422 -0.0865 -0.2443
24537W        W40671   6.728  13.689  13.667 -0.0426 -0.1154 -0.1363
24538W        W40672   1.137   8.611  15.729  0.0287 -0.2441 -0.1141
24539W        W40673   0.706   6.415  11.547 -0.1524  0.2637 -0.0261
24540W        W40674   2.261  15.815   5.421 -0.1392 -0.1694 -0.3493
24541W        W40675   5.968  17.165  13.539  0.2130 -0.1311  0.1070
24542W        W40676   0.958   9.610   1.678 -0.0098 -0.0193 -0.0649
24543W        W40677   1.326  14.743   6.541 -0.2479  0.0897  0.0993
24544W        W40678   2.748   2.608  13.713  0.1533  0.1087 -0.2265
24545W        W40679   4.307   3.180  15.847  0.0638 -0.2316  0.1781
24546W        W40680   2.338  12.999  14.589  0.0306 -0.0392  0.1653
24547W        W40681  10.313   0.847   1.537  0.0173 -0.1973  0.2030
24548W        W40682   1.747  16.256  15.796 -0.1475 -0.0280 -0.0970
24549W        W40683   3.854   1.254  15.430  0.2047  0.3075  0.1778
24550W        W40684  14.079   8.410  12.061 -0.0787 -0.1588  0.1122
24551W        W40685   0.027   9.831  13.627 -0.0776  0.0383  0.0179
24552W        W40686   8.809   5.057  13.144  0.1633  0.1724 -0.0906
24553W        W40687   9.536   9.636   6.434 -0.2028 -0.4105  0.1714
24554W        W40688  16.024   4.830   3.204  0.0431  0.0629  0.3641
24555W        W40689  16.029  15.002   1.953  0.3094 -0.0509 -0.2146
24556W        W40690   8.102  17.537   4.035 -0.0589  0.0690 -0.4745
24557W        W40691   4.157   6.458   3.788  0.2906 -0.0475 -0.1334
24558W        W40692   8.669   6.053   4.726 -0.0508  0.0202  0.0692
24559W        W40693   5.129  11.380  15.029 -0.2108 -0.4018  0.0179
24560W        W40694  11.336  10.057  15.023  0.2870 -0.0385  0.1632
24561W        W40695   7.028   6.784  16.366  0.1492  0.1492  0.1048
24562W        W40696  10.709   0.978  13.006 -0.2583  0.2207 -0.1903
24563W        W40697  13.463   0.155  14.569  0.0427  0.1068 -0.0381
24564W        W40698   9.651   5.089  14.045  0.0168 -0.2140 -0.1385
24565W        W40699  11.248   2.785   5.359  0.0396  0.3397  0.1292
24566W        W40700  16.225   9.153   4.853  0.1040  0.2065 -0.1449
24567W        W40701  15.589  10.019  14.316  0.0836  0.2490  0.1604
24568W        W40702   6.713   7.582   0.589  0.0538 -0.0707  0.1638
24569W        W40703   0.683   8.339  15.877  0.0297  0.2333 -0.1049
24570W        W40704  11.078  14.789   2.792 -0.0993  0.2844 -0.2145
24571W        W40705   0.142   0.525  12.716  0.0493 -0.0690 -0.0078
24572W        W40706  12.901  12.941   4.494  0.1735  0.1370 -0.0233
24573W        W40707   7.846   6.630  12.276 -0.1749 -0.1234  0.0554
24574W        W40708   9.210   4.502   1.962 -0.0093 -0.3468 -0.1498
24575W        W40709   1.527   8.447  16.807  0.0010  0.0828  0.2682
24576W        W40710   9.626   1.162   6.078 -0.0114  0.1887 -0.0408
24577W        W40711  17.374   1.425  14.482 -0.2831 -0.1315 -0.2257
24578W        W40712  14.855   6.391   4.925  0.1096  0.2145  0.2631
24579W        W40713   5.579  11.884   4.436  0.1561  0.2404  0.1650
24580W        W40714   8.268  13.940  15.624  0.1857 -0.0083 -0.1488
24581W        W40715   7.200  13.252   4.905  0.3041 -0.0710  0.2081
24582W        W40716   6.638  15.404   1.492  0.5341  0.1637  0.1502
24583W        W40717   5.518   3.172  16.379  0.0703  0.1202  0.3148
24584W        W40718   3.106  17.220   3.011  0.0402 -0.0872 -0.1016
24585W        W40719  10.233   6.739  14.766 -0.1707 -0.1762 -0.2781
24586W        W40720   2.783  12.944   1.829 -0.2907 -0.1246  0.2419
24587W        W40721   3.678   0.528   2.603 -0.0140  0.2015 -0.0482
24588W        W40722  11.048   8.877   0.376  0.0078 -0.2253 -0.2182
24589W        W40723  12.681  12.072  15.333 -0.0996 -0.3184  0.0154
24590W        W40724  10.995  13.098  12.240  0.2079  0.1926 -0.2272
24591W        W40725  17.307   3.964  15.861  0.1098 -0.2089 -0.1867
24592W        W40726   5.289   1.767   2.566 -0.0715  0.0270  0.0381
24593W        W40727  13.210   5.141  12.508 -0.4445  0.0857 -0.0525
24594W        W40728  17.205  15.807  17.040  0.1270  0.0906  0.0577
24595W        W40729  11.679  14.748   0.842  0.1257  0.1042 -0.0131
24596W        W40730   9.636   9.071   5.225  0.0136  0.0477  0.0870
24597W        W40731   3.541   6.762   4.710 -0.2255 -0.0413 -0.0296
24598W        W40732   8.972   7.034   5.721 -0.0637  0.0632 -0.2570
24599W        W40733   3.812   0.218  14.172 -0.2841 -0.0547  0.1071
24600W        W40734   4.218  12.255  16.639 -0.0601 -0.1178 -0.2492
24601W        W40735   1.184   3.452  16.996  0.1710 -0.1610  0.1334
24602W        W40736   6.120   8.434   3.619  0.2759  0.3178  0.1157
24603W        W40737  16.886   8.364   4.608 -0.0842 -0.2165  0.1726
24604W        W40738   3.355   2.122   5.386 -0.0151  0.0442 -0.0426
24605W        W40739  15.039   0.499  12.775 -0.0573 -0.2188  0.0649
24606W        W40740   7.812   7.620  14.323  0.0480 -0.0806 -0.1150
24607W        W40741   5.993  13.024   3.509  0.0308 -0.0212 -0.2174
24608W        W40742   5.137   3.570  15.235  0.0648 -0.0569 -0.0982
24609W        W40743  13.984  15.110   3.386 -0.0926 -0.1355  0.2786
24610W        W40744  11.178   9.685   0.770  0.1467 -0.1722 -0.1068
24611W        W40745  12.400  11.129   4.790  0.0192  0.0990  0.2781
24612W        W40746   2.463  10.190  10.613  0.0627  0.0630  0.1887
24613W        W40747  14.274   8.970   4.921  0.3048  0.0671  0.1549
24614W        W40748   1.075   4.152  12.923  0.1749 -0.0717 -0.1658
24615W        W40749   2.460   4.610   5.404 -0.2942  0.1133  0.1199
24616W        W40750  15.904   7.367  11.101 -0.0084 -0.0667 -0.0734
24617W        W40751  10.349   1.341  12.977  0.0061  0.0405  0.0707
24618W        W40752  16.909   6.685  15.987 -0.0126 -0.1597  0.0138
24619W        W40753   6.516  11.885  12.747  0.2218  0.1777  0.2515
24620W        W40754  14.668  14.946   2.520 -0.0038  0.0738 -0.1909
24621W        W40755  14.746  11.047  16.735 -0.2579 -0.1591 -0.0395
24622W        W40756   3.291  10.198   4.253  0.0197  0.0647  0.0966
24623W        W40757  10.474  11.313  12.216 -0.1563 -0.1347 -0.0566
24624W        W40758   5.232  13.512  13.733  0.2083  0.0570 -0.1813
24625W        W40759   8.655   0.759   1.445  0.1308  0.0020  0.2874
24626W        W40760   0.223  10.232   0.568  0.0373 -0.2462  0.2428
24627W        W40761   2.453  12.040   5.094  0.0133  0.3940  0.4841
24628W        W40762   9.901  16.017   5.740  0.0038  0.0908 -0.0050
24629W        W40763   8.288  15.389   5.734 -0.1795  0.2830 -0.1146
24630W        W40764   3.734  16.818  15.560 -0.2260 -0.2745 -0.1971
24631W        W40765  11.695  11.947  12.648  0.0037 -0.0854 -0.0020
24632W        W40766   0.691   7.369  11.851 -0.1814  0.0077 -0.1757
24633W        W40767   0.633   7.406  16.004 -0.0918 -0.0456  0.0033
24634W        W40768   5.270   4.985  14.618  0.1855  0.2040 -0.1316
24635W        W40769  15.948   1.301   0.761  0.1210  0.3647  0.1603
24636W        W40770  15.429   6.759   3.157  0.3500  0.4707 -0.1842
24637W        W40771   5.171  14.334   5.805 -0.5514  0.2286  0.1132
24638W        W40772   7.089   4.864  14.455 -0.2086  0.0296  0.3085
24639W        W40773   8.787  11.252  11.669  0.1847  0.2458  0.4396
24640W        W40774  10.014   3.103  15.608 -0.0221  0.1237 -0.1420
24641W        W40775   2.552  12.665   0.124 -0.1060 -0.1561  0.1406
24642W        W40776   2.919   6.281   4.782 -0.0130  0.0566  0.0954
24643W        W40777   4.073   3.678  13.960 -0.0898  0.1658  0.0829
24644W        W40778  13.620  14.433  12.622 -0.0012 -0.0181  0.1019
24645W        W40779   7.795   9.416   4.416 -0.0230  0.0584  0.0515
24646W        W40780   3.161   7.497   0.527  0.2320 -0.3133 -0.0057
24647W        W40781   4.413   9.670   2.323 -0.0089 -0.0819  0.0745
24648W        W40782   0.601   9.994   2.392 -0.1739  0.0972  0.0447
24649W        W40783   4.939   4.487   3.112  0.0794 -0.1327 -0.0049
24650W        W40784   4.701  16.787   5.846 -0.3747 -0.3286 -0.1193
24651W        W40785   6.513   0.796   3.737  0.1257 -0.0468  0.0315
24652W        W40786   2.164   7.958   0.048 -0.0895 -0.0856  0.1228
24653W        W40787  12.244  13.201   5.052  0.2075  0.0224 -0.1634
24654W        W40788   8.416   6.912   1.975  0.0419  0.2484  0.0710
24655W        W40789  11.672  13.862   1.744 -0.0040  0.2588  0.0832
24656W        W40790  10.781  11.647  12.885  0.2108  0.0931 -0.1329
24657W        W40791  13.035   1.653   2.904  0.0257  0.0548 -0.0541
24658W        W40792  11.599   3.146   3.320 -0.0147 -0.1262 -0.0174
24659W        W40793   1.815  15.811   3.160 -0.0003 -0.1005  0.1962
24660W        W40794   7.840   7.097   5.812 -0.1399  0.4372 -0.0460
24661W        W40795  10.862   9.260  13.440 -0.0599  0.2367  0.1678
24662W        W40796   8.450  16.175   3.225 -0.2867  0.3722 -0.0284
24663W        W40797  17.136  11.077   2.220 -0.0919 -0.2069  0.1962
24664W        W40798  12.893  12.701   2.130  0.2439  0.0318 -0.1166
24665W        W40799  15.409   7.448  15.945  0.2035 -0.0122  0.1743
24666W        W40800   6.090  11.540   3.841  0.2660 -0.1510  0.1382
24667W        W40801   4.878   8.617  12.470 -0.1398  0.2851  0.3702
24668W        W40802   6.595   8.981   5.645  0.1189 -0.1255 -0.0033
24669W        W40803   3.414  15.981  15.847 -0.1404 -0.0030 -0.1002
24670W        W40804   4.879  13.898  12.426  0.1929 -0.2581  0.0134
24671W        W40805  10.133   8.875   3.056  0.0562 -0.4008  0.2641
24672W        W40806  11.873  10.264   3.167 -0.1201  0.0485 -0.2121
24673W        W40807   1.514   2.223   0.310 -0.1828 -0.4351  0.2461
24674W        W40808   6.797   6.258  15.030 -0.2793  0.0226 -0.3686
24675W        W40809  11.293  13.083  13.839 -0.0588 -0.2673  0.0606
24676W        W40810  11.812  11.895  16.811  0.1603  0.1204  0.0349
24677W        W40811  14.358   1.594  13.085  0.1071 -0.3845 -0.6073
24678W        W40812   9.172   2.528  13.891  0.0424 -0.0469 -0.0292
24679W        W40813  10.860  16.352   1.393  0.2615 -0.2700  0.3753
24680W        W40814  14.254   5.509   0.358  0.0415 -0.1391 -0.1782
24681W        W40815   9.879   3.966   2.175  0.1063  0.1310  0.1288
24682W        W40816   4.118  11.918   1.017  0.0857  0.0270  0.2127
24683W        W40817  11.327  10.415  16.817  0.2126 -0.2279  0.0655
24684W        W40818   6.011   1.353   4.295 -0.4483  0.2209  0.1300
24685W        W40819  12.084  12.487   1.136  0.0566  0.3376 -0.2996
24686W        W40820   9.743  13.977  11.843 -0.3188 -0.1039  0.0513
24687W        W40821  10.205  13.299  15.282 -0.1288  0.0827 -0.1799
24688W        W40822  15.927   1.534   5.254  0.2556 -0.0428  0.0227
24689W        W40823   9.997  13.968  17.121 -0.2086  0.0986  0.2000
24690W        W40824   4.688   2.881  16.569 -0.0182  0.0062  0.3542
24691W        W40825  15.993  17.359   3.073 -0.1188 -0.1835  0.2346
24692W        W40826   9.114   0.704  17.137  0.1951  0.1169  0.0537
24693W        W40827  13.918  10.864   2.162  0.1363 -0.0096  0.0613
24694W        W40828   8.675   8.640  14.562 -0.3501 -0.1085  0.1132
24695W        W40829   2.027   2.795   3.157  0.2435 -0.0155 -0.1653
24696W        W40830   9.716   2.228  13.200 -0.1168  0.1022 -0.0090
24697W        W40831   6.125   7.517  13.516 -0.2723 -0.2825 -0.1498
24698W        W40832   7.586  16.575   0.433  0.3401  0.3088  0.2789
24699W        W40833   1.411   6.583  17.126 -0.0083  0.0238 -0.1158
24700W        W40834   3.718   4.814  13.564  0.0452  0.2069 -0.0957
24701W        W40835   5.406  14.556  15.334  0.1426  0.2693  0.2185
24702W        W40836  11.030  10.063  13.483  0.1071 -0.0854 -0.0412
24703W        W40837   9.213   2.056   5.225 -0.0440 -0.1676 -0.2950
24704W        W40838   0.113   2.378   3.504  0.0640  0.1071  0.0053
24705W        W40839   4.639   1.167   3.052 -0.0198 -0.0626  0.1078
24706W        W40840   4.392   2.043  14.307 -0.0346  0.0121 -0.1395
24707W        W40841  15.029   2.564   1.861 -0.0959  0.1795  0.0338
24708W        W40842   4.811   0.114   6.656  0.2117 -0.1400  0.1300
24709W        W40843   6.470   1.444   6.422  0.3275  0.2327  0.0151
24710W        W40844   7.979   0.929  13.603  0.0444 -0.0909 -0.1776
24711W        W40845   2.951   0.537  12.673 -0.3555 -0.0011 -0.1432
24712W        W40846   3.440  12.375   5.630 -0.0639  0.0035  0.0696
24713W        W40847   4.816   3.745  13.208 -0.0158 -0.1411  0.0115
24714W        W40848  12.849   7.414  14.503 -0.1358 -0.2262  0.2529
24715W        W40849  11.046   8.616   1.125 -0.0158  0.0025 -0.0351
24716W        W40850   7.680  15.792  15.000  0.2750  0.1412 -0.0494
24717W        W40851   4.212  14.833   1.342 -0.0141  0.2378 -0.2218
24718W        W40852   2.716   3.345   2.242 -0.1003  0.0056  0.0525
24719W        W40853   4.716   9.249  14.756 -0.2734 -0.1060  0.1312
24720W        W40854   8.485   6.541   0.094 -0.0034  0.2690  0.0156
24721W        W40855   2.568   5.113  14.965 -0.2953  0.0748 -0.0014
24722W        W40856   6.185  12.731   0.900  0.1203  0.1240  0.0583
24723W        W40857   6.184  10.754   5.864  0.1940 -0.2419 -0.1085
24724W        W40858   4.259  14.401   2.768  0.4521 -0.1510 -0.0298
24725W        W40859   9.249  12.685  14.316  0.1032 -0.2066 -0.0531
24726W        W40860   1.436  12.268  16.191 -0.0231  0.3026  0.1243
24727W        W40861  12.823   0.608   4.386 -0.0081 -0.2700 -0.0790
24728W        W40862   7.523  12.015  14.774 -0.0167 -0.1737 -0.0213
24729W        W40863  15.870  14.740  11.395  0.0636  0.1523  0.0537
24730W        W40864   6.419  13.026  16.174 -0.0921  0.1858 -0.4371
24731W        W40865   4.330   9.147  12.854 -0.0251 -0.0486 -0.2010
24732W        W40866   4.060  15.191   2.237  0.4180  0.0759  0.3390
24733W        W40867   3.277  10.966  16.125  0.1857  0.2854  0.1216
24734W        W40868  11.698   4.711   0.905  0.2288 -0.0741 -0.0233
24735W        W40869   6.527   9.771   0.483 -0.1445  0.3148  0.0541
24736W        W40870  12.185   4.761  13.652  0.5090  0.0129  0.1672
24737W        W40871   0.232  10.239  16.702  0.1127  0.1248  0.1031
24738W        W40872   8.260   6.924   0.363 -0.2514  0.0008 -0.0282
24739W        W40873  14.265   2.958   2.411  0.3087 -0.0726 -0.3989
24740W        W40874   1.882   3.889  13.611  0.0293 -0.2611 -0.0419
24741W        W40875   3.557  16.330   4.490  0.0218 -0.1162  0.1306
24742W        W40876   7.843  10.473   0.559  0.0956  0.1974  0.4533
24743W        W40877  16.616   0.363   3.096  0.0863  0.2207 -0.2191
24744W        W40878   4.382   5.632  12.565 -0.0807 -0.0548  0.1567
24745W        W40879  15.094   2.264  12.148 -0.0730 -0.2542  0.0224
24746W        W40880   3.570   0.520  16.648  0.2022 -0.0200  0.2645
24747W        W40881   5.662   7.998   3.612 -0.1390  0.1136  0.0519
24748W        W40882  11.465   3.554  17.106  0.0348  0.1004  0.0378
24749W        W40883   1.059   1.024  16.694 -0.0126  0.1429  0.2155
24750W        W40884   3.311  12.260  16.285  0.0539 -0.0926 -0.0882
24751W        W40885   0.117  16.486   0.936 -0.2433 -0.0322  0.0150
24752W        W40886  14.181   5.944   0.499 -0.3059  0.0611 -0.3491
24753W        W40887   2.957   7.121  11.959  0.0887 -0.5070  0.0681
24754W        W40888  15.679   8.282  13.345  0.0037  0.1517  0.0273
24755W        W40889  16.769  13.237  11.071  0.4243 -0.1248  0.0392
24756W        W40890   6.734   7.864   2.957  0.5197 -0.2091  0.1941
24757W        W40891   1.253   8.730   0.858  0.0981  0.0534 -0.4063
24758W        W40892  11.327   3.045   1.510  0.1612 -0.4009  0.2150
24759W        W40893   6.644   3.233   5.244 -0.3120  0.0697 -0.0570
24760W        W40894  13.993  17.307  12.451 -0.0591 -0.2099  0.1448
24761W        W40895   4.572   8.357  12.896  0.1088 -0.0626 -0.3227
24762W        W40896   6.596  14.383   5.965  0.0947 -0.1082  0.0490
24763W        W40897  14.980   7.680  13.555  0.1540 -0.0439 -0.2501
24764W        W40898  14.759   7.207   5.537 -0.1221  0.0989  0.1305
24765W        W40899  16.328   7.552  12.521  0.1716  0.1697 -0.0069
24766W        W40900  16.060   3.253   0.542  0.0031 -0.2223  0.2042
24767W        W40901  10.257   4.850   4.494 -0.4088 -0.1958  0.0545
24768W        W40902  13.733   7.859  16.884 -0.1247  0.2066  0.2046
24769W        W40903   4.177   0.096  15.712 -0.1391  0.1570 -0.1730
24770W        W40904  13.257   5.181   2.166 -0.1262  0.0956  0.0933
24771W        W40905   4.742   2.253   5.938  0.0516 -0.1499  0.0312
24772W        W40906  14.887   6.613   0.099 -0.3423 -0.3502 -0.1351
24773W        W40907   9.165  17.373   0.506 -0.0538  0.2502  0.3043
24774W        W40908   7.414  10.476  13.134  0.0664  0.0279 -0.2842
24775W        W40909   2.879   6.228  14.127 -0.0187  0.1659  0.1411
24776W        W40910  13.434   8.744  17.145  0.1746  0.0711  0.0491
24777W        W40911  11.206   2.957   2.934  0.1222 -0.1225 -0.1005
24778W        W40912   8.937   4.045   2.951 -0.0869 -0.1100 -0.2218
24779W        W40913   3.472   3.486   3.050 -0.0588  0.0223  0.0860
24780W        W40914  17.075  11.101  15.409 -0.0101  0.0539  0.2428
24781W        W40915  10.239  10.746   0.991 -0.3055 -0.4433 -0.1620
24782W        W40916  16.316  13.117  16.090  0.3584  0.2583 -0.1381
24783W        W40917  14.993  12.254  13.917  0.2106  0.0637 -0.0779
24784W        W40918  11.906  16.999   5.190 -0.2328  0.0391 -0.1176
24785W        W40919   5.815  12.225   5.151 -0.0607  0.0705  0.1368
24786W        W40920   0.949  13.021   4.348 -0.1519  0.2226  0.1178
24787W        W40921  12.376  16.876   4.730 -0.1249  0.0510 -0.1274
24788W        W40922   1.491   6.446   4.713  0.0354 -0.2564 -0.2730
24789W        W40923   9.394   2.656  13.492  0.1162  0.1356 -0.1692
24790W        W40924   8.154   1.528  12.407 -0.0923 -0.0912 -0.2191
24791W        W40925  15.934   3.963   3.679 -0.1519  0.2371  0.0162
24792W        W40926   6.912  13.222   1.693 -0.0897  0.1978 -0.0194
24793W        W40927  11.830   9.473  16.656  0.0628 -0.2515  0.3739
24794W        W40928  16.853   5.421   2.728 -0.0104 -0.1900 -0.0359
24795W        W40929   6.704  16.731  14.116  0.1051 -0.1382  0.3041
24796W        W40930  16.981   2.733  13.996 -0.3009 -0.1077  0.1379
24797W        W40931   3.492  15.413  13.023  0.3218 -0.1042  0.0585
24798W        W40932   3.993   7.566  11.925  0.0205  0.0318 -0.0930
24799W        W40933   1.674  12.986  11.800  0.0984  0.0651  0.1144
24800W        W40934  17.563  16.676  15.951  0.0254  0.0550 -0.3519
24801W        W40935  10.547  13.608   2.658 -0.0528  0.2679  0.0489
24802W        W40936  10.166   4.910  11.310  0.1682 -0.2628  0.0971
24803W        W40937  12.379  11.749   2.243 -0.1909 -0.2312  0.1813
24804W        W40938   2.279  13.692  15.957  0.1150  0.1152  0.1265
24805W        W40939  14.828   5.144   4.786  0.0345 -0.4332 -0.0414
24806W        W40940  12.413   6.650  15.242  0.3046  0.0103  0.1008
24807W        W40941  16.773  12.837  16.179 -0.1698  0.2263  0.0708
24808W        W40942   6.891  15.818  15.208  0.2140  0.2659  0.3116
24809W        W40943  13.373  14.801  13.680 -0.0757  0.1212  0.0768
24810W        W40944   6.350   2.726  13.046 -0.3275 -0.3524  0.1109
24811W        W40945  14.852  16.117  12.947  0.2874  0.0395  0.2361
24812W        W40946  10.654   3.263  15.565 -0.0696 -0.0414 -0.0056
24813W        W40947  17.108   5.986   3.626  0.1530  0.1088 -0.2019
24814W        W40948   7.947   3.439   2.551 -0.0071 -0.1396 -0.0037
24815W        W40949   1.001   8.871  11.244 -0.1185 -0.0059  0.2139
24816W        W40950  10.065  12.602  13.326 -0.1501 -0.0705  0.1654
24817W        W40951  16.276   9.375   2.203 -0.1435  0.1100  0.1371
24818W        W40952   6.575   4.990   3.103  0.1844  0.2535  0.0939
24819W        W40953   0.012   1.867   2.019 -0.0707  0.0079  0.0451
24820W        W40954   4.813  16.253   0.512  0.0860 -0.3026 -0.3048
24821W        W40955   5.230   3.665  15.813 -0.0994  0.1565  0.0094
24822W        W40956   3.077   7.291   1.969 -0.3511  0.2233 -0.1228
24823W        W40957  12.106   1.584  13.516  0.0969  0.1309 -0.2614
24824W        W40958   1.735  13.422  15.736 -0.1386 -0.0890  0.0502
24825W        W40959  12.770   6.597  11.792 -0.0353 -0.0788  0.1421
24826W        W40960  15.547  10.827   0.067  0.2717 -0.2872  0.0951
24827W        W40961  10.207  13.507   0.093  0.0024  0.2887  0.1945
24828W        W40962   9.718  17.040  15.930 -0.1411 -0.0451  0.1067
24829W        W40963   1.765  13.060   2.502  0.4869 -0.0533  0.3111
24830W        W40964   3.862  11.797  17.156 -0.1447  0.0414 -0.0400
24831W        W40965  13.747   5.556  14.148  0.2265 -0.2020  0.3497
24832W        W40966   1.592   9.926   1.000 -0.0234 -0.1638 -0.1541
24833W        W40967  14.626   3.463  13.019  0.0317  0.1168  0.0729
24834W        W40968  12.510   3.197   4.530  0.3147 -0.0527 -0.3956
24835W        W40969  17.610   6.877   1.591  0.0918  0.0563  0.0172
24836W        W40970  14.509   6.068   4.763 -0.0847  0.2664 -0.0627
24837W        W40971   3.079   9.899  11.788  0.0103  0.0515  0.1126
24838W        W40972   3.170  12.980   4.831 -0.1907  0.0806  0.1224
24839W        W40973   6.234   4.347   4.660 -0.0743  0.1944  0.2623
24840W        W40974   4.414   7.546  16.387  0.0141 -0.1602  0.0748
24841W        W40975  13.478  10.217   4.472  0.2277  0.2762 -0.1711
24842W        W40976  11.634   4.657  16.284  0.0609  0.2760  0.1999
24843W        W40977  15.353  12.056  13.507  0.5576  0.2716 -0.0240
24844W        W40978   8.452   7.553  12.488  0.1364  0.0249  0.1142
24845W        W40979  10.660  12.051   4.716  0.1176  0.2943  0.0416
24846W        W40980   6.786   6.410   1.142  0.1309  0.0546  0.2740
24847W        W40981   0.471   6.307  15.320 -0.1064  0.1315  0.3017
24848W        W40982  10.905   1.882  15.136 -0.3524 -0.1212 -0.1131
24849W        W40983  12.326  13.888  12.074 -0.0849 -0.0901 -0.1257
24850W        W40984   9.499  15.516   5.132 -0.1327 -0.1162 -0.1683
24851W        W40985  11.326  17.459  12.985  0.0084 -0.0903  0.1292
24852W        W40986   9.023   4.302  12.007 -0.0103 -0.2274 -0.1756
24853W        W40987   1.213   9.329  11.382  0.3294 -0.0586 -0.1467
24854W        W40988   0.577   4.767   2.222 -0.3800  0.3101  0.1208
24855W        W40989  10.863  11.568   1.962  0.1398 -0.0887 -0.1814
24856W        W40990   4.027  16.230  13.628 -0.1493  0.0566 -0.3120
24857W        W40991   4.396   2.233   4.940 -0.1561  0.2251 -0.2301
24858W        W40992  13.437   6.074   3.860  0.0993 -0.2212  0.2159
24859W        W40993  13.922  10.661   2.639  0.4526  0.1398 -0.0247
24860W        W40994  15.062  17.392   2.217 -0.0716  0.1664  0.0174
24861W        W40995   9.550   4.608  10.765 -0.2765 -0.2464  0.0445
24862W        W40996   8.043   2.787  12.912 -0.0593 -0.1557  0.0959
24863W        W40997   8.856  16.516   4.386  0.2384 -0.1723 -0.0969
24864W        W40998  17.511   7.994  17.000  0.0952  0.1395 -0.0979
24865W        W40999  10.111   0.387  13.214  0.3382 -0.2135  0.2452
24866W        W41000  15.691   1.635  15.204 -0.2761  0.2380 -0.1435
24867W        W41001  13.563   3.810   3.651  0.1020  0.2345 -0.0095
24868W        W41002  13.443  12.868   0.675  0.0296  0.1124  0.0610
24869W        W41003   9.313   1.498  14.035  0.1063 -0.1361 -0.1039
24870W        W41004  14.016  17.044   6.155 -0.1921 -0.0241 -0.0456
24871W        W41005  13.402   4.954  17.025 -0.2060  0.2436 -0.0984
24872W        W41006   0.421   6.902   2.601  0.0690  0.1060  0.0627
24873W        W41007  13.594  10.058   1.193  0.2359  0.1744  0.2989
24874W        W41008  16.822  15.835   5.946  0.3461 -0.1528 -0.1182
24875W        W41009   5.452  10.223   0.160 -0.3049 -0.1215 -0.2246
24876W        W41010   1.269   3.615   4.787 -0.2118  0.0491 -0.3218
24877W        W41011   0.273   7.247  16.859 -0.0469 -0.2390 -0.0925
24878W        W41012  16.354  16.746   4.383  0.0694 -0.1946 -0.0118
24879W        W41013  14.183   0.917  15.859 -0.1663  0.2410  0.1109
24880W        W41014  13.036   0.598  12.250  0.0872 -0.1494 -0.0817
24881W        W41015  12.360   8.073  16.847 -0.0274  0.1347  0.1084
24882W        W41016   5.020   9.552   5.502 -0.0521  0.1311  0.0588
24883W        W41017   0.138   0.141  13.606  0.0466  0.0870 -0.2064
24884W        W41018   8.115   3.883   2.734 -0.0387  0.0958  0.3083
24885W        W41019  16.592  14.731   0.367  0.2610  0.2042 -0.2416
24886W        W41020   9.256  12.443  16.073  0.4707  0.0453 -0.2555
24887W        W41021   8.467   6.701  13.197  0.0885 -0.0652  0.2484
24888W        W41022  11.037  15.300   0.150  0.0736  0.0299  0.3066
24889W        W41023   0.263  14.929  12.352 -0.1560  0.3289  0.0316
24890W        W41024   1.850  13.509  12.595 -0.0122  0.0092 -0.0195
24891W        W41025  17.602  12.846   0.017 -0.0649  0.2018 -0.0986
24892W        W41026  13.423   3.924  15.555 -0.2042  0.0674 -0.0030
24893W        W41027   5.010  12.082  17.086 -0.0357  0.1251 -0.3371
24894W        W41028   4.393   3.801   5.374 -0.0586  0.3155  0.0917
24895W        W41029   2.586   9.837  11.580  0.0977  0.4411 -0.1417
24896W        W41030  14.597   8.956   3.014  0.0271 -0.2121 -0.0173
24897W        W41031   3.224   1.728   6.529  0.2549 -0.0612 -0.1869
24898W        W41032  16.098   3.499  12.606  0.0192  0.1709 -0.1925
24899W        W41033   4.726   0.861   1.204 -0.0119 -0.1189 -0.2010
24900W        W41034  13.488   4.311   3.404  0.1201 -0.1874 -0.0189
24901W        W41035   1.718  15.383  12.829 -0.0089 -0.1753  0.1266
24902W        W41036  12.857  12.427  17.077  0.0295  0.0296 -0.2436
24903W        W41037   9.623   2.684   5.550 -0.0077  0.1285 -0.2623
24904W        W41038  17.007   0.353   2.041  0.0763  0.0234  0.2650
24905W        W41039   5.992  14.217  12.755 -0.1303 -0.1328 -0.0736
24906W        W41040   0.694  14.527  16.579  0.2547  0.2133  0.1544
24907W        W41041   7.721  15.700   1.509 -0.2654  0.1417 -0.0088
24908W        W41042   1.235   6.360   2.096  0.3764 -0.0842  0.0430
24909W        W41043   3.119   0.057   1.606  0.1179  0.1033 -0.1642
24910W        W41044   9.542  15.567   3.330 -0.2325  0.1124 -0.0024
24911W        W41045   0.957   1.700   0.107  0.0530  0.2418  0.0268
24912W        W41046   4.805  15.434  16.367  0.1685  0.1596  0.2652
24913W        W41047  13.727   3.901   3.155 -0.0054 -0.2483 -0.3061
24914W        W41048   0.954   8.809   1.448  0.1516 -0.2248  0.1409
24915W        W41049  11.746   4.996  11.641  0.1120 -0.3189 -0.0848
24916W        W41050   3.965   6.761  15.176 -0.0295  0.1147  0.0424
24917W        W41051  15.418  14.259  13.074 -0.1590 -0.1344  0.2959
24918W        W41052   8.628  13.247  16.162  0.0477 -0.1697  0.1503
24919W        W41053   3.431   7.766   3.722 -0.3038  0.1238 -0.1493
24920W        W41054   9.578   3.859  13.142 -0.1107 -0.3080 -0.0294
24921W        W41055   5.194  13.999   4.737  0.1515 -0.1479  0.3543
24922W        W41056   2.570   3.494   3.221  0.1118 -0.2998 -0.1603
24923W        W41057  13.282   9.692   4.650 -0.1806  0.1423  0.1165
24924W        W41058   8.502   0.547   3.663 -0.3250 -0.1656 -0.0166
24925W        W41059  11.926   8.726   1.967 -0.0305  0.1584  0.0405
24926W        W41060   7.788   7.589   6.389  0.0223 -0.1805 -0.1909
24927W        W41061   8.937  10.883  14.373 -0.1821 -0.1310  0.1104
24928W        W41062   6.821   0.132   5.567 -0.1604  0.1831 -0.0710
24929W        W41063   5.678   8.126  15.725  0.1856  0.1851  0.0129
24930W        W41064   9.889   8.512  13.676  0.0662 -0.2556  0.0835
24931W        W41065  10.709   8.100  17.041 -0.0008  0.1453  0.3146
24932W        W41066   4.273  16.514   1.776 -0.2445  0.0975 -0.0870
24933W        W41067   3.183   4.791  15.413 -0.0243  0.2319  0.4860
24934W        W41068  13.989   9.691  16.321  0.1557 -0.0811 -0.3009
24935W        W41069  13.828   2.420   4.937 -0.2811 -0.1347  0.3868
24936W        W41070   3.026  16.378  16.703 -0.1476 -0.2112  0.0522
24937W        W41071   8.644   5.196  14.129  0.0756 -0.0195  0.3004
24938W        W41072   7.656   3.386  16.146  0.0524  0.1715 -0.2037
24939W        W41073   0.772   3.117   1.649 -0.0626  0.1441 -0.2244
24940W        W41074  15.600   9.053   4.118  0.0057  0.1142 -0.1253
24941W        W41075  11.760  17.317   5.671  0.1632 -0.2321  0.0336
24942W        W41076   0.269  17.545  15.663 -0.0410 -0.4566 -0.1523
24943W        W41077  12.018  15.061   2.531  0.1346  0.1892 -0.1023
24944W        W41078   0.090   0.679   3.780 -0.2610  0.0450 -0.0425
24945W        W41079   5.659   9.853  14.087  0.0237 -0.1486 -0.2921
24946W        W41080  12.627   3.222   5.077 -0.0843 -0.0269  0.1318
24947W        W41081   9.535  11.568  12.252 -0.0154 -0.0351 -0.3590
24948W        W41082  15.962  13.330  16.824  0.0099  0.0879 -0.1558
24949W        W41083  10.632   6.028   3.992 -0.1640 -0.1096 -0.1650
24950W        W41084  13.690  16.626   1.515  0.1741  0.0636  0.1342
24951W        W41085  15.494  13.066   3.899  0.0114 -0.1840  0.0550
24952W        W41086   6.311  12.732  12.509  0.1502  0.1836 -0.0012
24953W        W41087   5.210   9.029  13.972 -0.3047 -0.1374 -0.0755
24954W        W41088   8.179   4.123  14.936  0.0250 -0.0741 -0.0861
24955W        W41089   4.816  17.071  12.816  0.0885 -0.1518  0.0923
24956W        W41090  10.830   6.269   1.737 -0.1494  0.1617  0.1664
24957W        W41091   6.585   1.400  12.034  0.0487 -0.0397  0.1017
24958W        W41092   8.974  16.174   2.433 -0.1852 -0.0488 -0.0456
24959W        W41093   2.708  15.232  14.129  0.3111  0.2998 -0.0742
24960W        W41094   9.327  15.023  16.292  0.2164  0.2620  0.0999
24961W        W41095   5.152   0.269   3.025 -0.3384 -0.1075  0.0125
24962W        W41096  15.724   5.787   4.951 -0.2911 -0.2611 -0.2497
24963W        W41097   3.352   3.902   6.204 -0.1877  0.0428  0.0159
24964W        W41098  15.561   6.623   4.667 -0.0686  0.0026  0.2026
24965W        W41099   8.086  12.697   3.992 -0.3106 -0.3069 -0.0067
24966W        W41100   3.102   1.713  12.021  0.1751 -0.1150 -0.2924
24967W        W41101  10.119   3.991   3.670 -0.0879 -0.0681  0.1638
24968W        W41102   0.533   3.816  13.638 -0.0993 -0.0971 -0.1482
24969W        W41103  12.596  14.914   2.795  0.2013  0.1720  0.0280
24970W        W41104   7.684   8.457   1.728 -0.2302 -0.1494 -0.2079
24971W        W41105   5.537   7.783   4.981 -0.0451  0.2324 -0.0929
24972W        W41106  14.459   5.423  13.822 -0.0476 -0.0921 -0.1473
24973W        W41107   7.752  14.789   2.679  0.0168 -0.0799 -0.3194
24974W        W41108  16.397  16.591  16.325  0.0011 -0.2511  0.0642
24975W        W41109  16.117   4.385   0.973  0.2446  0.0105  0.0594
24976W        W41110   1.305   7.165  11.272  0.0607  0.3170  0.2121
24977W        W41111   8.903   3.795  12.344 -0.0490 -0.0597 -0.1016
24978W        W41112  14.504  11.136   3.809 -0.0705 -0.1776 -0.0406
24979W        W41113   4.060  15.747   2.907  0.0018 -0.2336 -0.1844
24980W        W41114   2.720   1.858  14.698  0.0351 -0.1669 -0.2159
24981W        W41115  13.290  14.619  14.648  0.1118 -0.1028 -0.0557
24982W        W41116  17.665   3.811   0.637  0.0563 -0.1637  0.1659
24983W        W41117   6.957   0.896   0.675  0.3808 -0.0147  0.0163
24984W        W41118   0.248  14.297   0.938  0.1913  0.0097  0.1321
24985W        W41119  12.318  12.270   2.099  0.3221  0.1511  0.0916
24986W        W41120  14.894  13.721   5.163  0.2021 -0.1983  0.0324
24987W        W41121  13.603   6.703  14.965 -0.1705 -0.0638 -0.1794
24988W        W41122  16.400   6.190  12.345  0.3187  0.0745  0.0115
24989W        W41123   7.286   3.245  13.349  0.0141 -0.2689  0.0790
24990W        W41124  12.097  13.931  13.925 -0.1351 -0.2250 -0.2430
24991W        W41125  14.410   4.545   2.369 -0.0488  0.1873  0.1595
24992W        W41126   7.930  14.410   5.095 -0.1751  0.0469  0.0289
24993W        W41127   7.004  11.951   2.404  0.0555  0.1467  0.1100
24994W        W41128  11.847   1.983   4.053 -0.2081  0.1917  0.0103
24995W        W41129   3.267   3.159  12.083  0.0483  0.0292  0.0206
24996W        W41130  14.901  17.261   1.221  0.1386  0.0772 -0.0353
24997W        W41131  10.445   4.322   5.620 -0.1751  0.0612 -0.0731
24998W        W41132   2.756   2.972  11.914 -0.1595  0.2499 -0.0819
24999W        W41133   6.296   4.109   1.521  0.0159  0.1564 -0.2548
25000W        W41134  11.024   8.901  11.600  0.0022 -0.1688 -0.1248
25001W        W41135   4.816  12.331  15.787 -0.1042 -0.0002 -0.0142
25002W        W41136  14.263  16.434   3.524  0.1007  0.2337  0.0880
25003W        W41137  14.028  14.603  12.739 -0.1686  0.0533 -0.0637
25004W        W41138   7.087  16.463   6.637 -0.1088 -0.1395  0.0127
25005W        W41139  14.546   9.484  12.047  0.2166 -0.1576  0.3425
25006W        W41140   1.114   5.758  16.017 -0.0070 -0.0789  0.0442
25007W        W41141  10.992   4.841   1.426 -0.0155  0.0371 -0.2520
25008W        W41142   9.088   4.733  11.090  0.1111 -0.1642  0.0020
25009W        W41143  10.288   4.240   0.396  0.1150 -0.0800  0.1941
25010W        W41144   1.439   9.350   2.568 -0.0146  0.0963 -0.0323
25011W        W41145   0.136  11.252  12.492  0.3796  0.1788  0.0151
25012W        W41146  16.070  15.981   4.125  0.0849  0.1341 -0.1681
25013W        W41147   9.880   4.129  13.594  0.0813  0.1221 -0.0354
25014W        W41148   6.693   1.969   2.272  0.2405  0.0102 -0.2313
25015W        W41149   2.348   5.141   5.296 -0.2178 -0.0211  0.1904
25016W        W41150   9.460   7.850   4.177 -0.1065  0.1529 -0.1448
25017W        W41151  14.711  14.977  15.022  0.2236 -0.2001  0.0552
25018W        W41152   4.766  10.718  15.799  0.0655  0.1898  0.1448
25019W        W41153   8.929   7.296  12.438 -0.1771  0.0291  0.0079
25020W        W41154  12.098  17.103  14.722  0.0818  0.0969 -0.0757
25021W        W41155   7.734  16.251  16.352  0.3545  0.1573  0.0065
25022W        W41156   7.922   7.298   0.378 -0.1322 -0.3154  0.0471
25023W        W41157   0.078  10.278  15.294 -0.2389 -0.2731  0.2279
25024W        W41158  17.084  13.178  16.390  0.1424 -0.0293 -0.0132
25025W        W41159   2.282  12.251   1.792 -0.1300  0.0322 -0.2125
25026W        W41160   4.540  13.843  11.700  0.2463  0.1152  0.1415
25027W        W41161  12.283   7.130  13.283  0.0937  0.0629 -0.3011
25028W        W41162  10.539   6.978  16.625 -0.2453 -0.1843  0.0302
25029W        W41163  16.697  15.112  13.010 -0.4391  0.1696  0.1024
25030W        W41164   4.753   4.170  12.930  0.0465 -0.1204 -0.0211
25031W        W41165   6.873   6.239  16.045  0.1065  0.2341  0.0303
25032W        W41166  15.395  11.457  11.469  0.1621 -0.1167  0.0626
25033W        W41167   7.511   3.876   5.036 -0.0589 -0.0290 -0.0742
25034W        W41168  11.420   7.936   2.617 -0.0558  0.0378  0.0363
25035W        W41169  14.472  13.570  16.150 -0.0457  0.0155  0.0713
25036W        W41170   2.891  13.758   2.299  0.1643  0.1651  0.5549
25037W        W41171   9.135   7.405   4.791 -0.1486  0.0295  0.0096
25038W        W41172  13.734   6.745  15.733 -0.2289 -0.0162 -0.1731
25039W        W41173  17.120  11.484  15.758  0.0514  0.3817  0.1548
25040W        W41174   5.750  14.729  11.785 -0.0188 -0.2035 -0.1989
25041W        W41175   1.518   8.201  13.076 -0.2619  0.1606  0.0007
25042W        W41176   9.380   0.020  12.569  0.0686 -0.1506 -0.0257
25043W        W41177  13.528   6.967   5.131 -0.0049 -0.2298  0.1013
25044W        W41178  17.307  14.462   5.975 -0.1564  0.1489 -0.1648
25045W        W41179   6.643   6.575   2.666 -0.1138 -0.2257  0.0284
25046W        W41180   7.011  14.553   2.042 -0.1031 -0.1586  0.1899
25047W        W41181   5.305   1.596   6.740 -0.0288 -0.1320 -0.1688
25048W        W41182  15.955  10.237   1.266 -0.1498  0.1525  0.2046
25049W        W41183  17.312  17.159  13.036  0.1146  0.3756 -0.0323
25050W        W41184   1.692  11.435   5.342 -0.2109  0.0456  0.0600
25051W        W41185   5.289  12.448  15.898 -0.5315 -0.2408  0.1384
25052W        W41186  14.643  11.924  15.727  0.0785  0.1562 -0.1503
25053W        W41187   3.231   0.067   0.460 -0.3894 -0.3913 -0.2392
25054W        W41188   4.606   6.350  13.713  0.1392  0.1557 -0.0277
25055W        W41189   5.287   5.757  11.640 -0.0760  0.1371  0.0259
25056W        W41190   0.687   1.848  13.822 -0.0556  0.0845  0.3558
25057W        W41191   4.691  10.836   0.270 -0.0874  0.1096 -0.4219
25058W        W41192   2.688   6.324   0.897 -0.0186  0.1418 -0.2293
25059W        W41193  16.234  16.760   3.780  0.2573 -0.2410  0.1053
25060W        W41194   8.206   9.535   4.760  0.0371 -0.1686  0.1649
25061W        W41195   7.033   0.817  12.412 -0.0492 -0.0101 -0.0409
25062W        W41196   3.102   3.328  12.989 -0.1579  0.0364 -0.1403
25063W        W41197   6.416  10.265  15.171 -0.0231  0.1848  0.1262
25064W        W41198   1.392  13.368   3.632  0.3454  0.0258  0.0511
25065W        W41199  13.069   7.878  15.652  0.1946  0.0720  0.2371
25066W        W41200   2.600  13.553   2.695 -0.2539 -0.2086  0.4047
25067W        W41201  13.004   0.690  11.117 -0.0758 -0.3119  0.7204
25068W        W41202   3.619   3.376   3.641 -0.1063 -0.0578  0.0996
25069W        W41203  15.611  15.096   3.451  0.0511  0.2322 -0.0875
25070W        W41204  13.783   2.164  14.196  0.2517  0.0568 -0.3468
25071W        W41205  12.520   5.919  12.348 -0.2017 -0.1033 -0.0016
25072W        W41206  10.051  13.357   6.498  0.0735 -0.1260  0.0263
25073W        W41207  12.116   7.417   1.354 -0.3200  0.3187 -0.2018
25074W        W41208   8.994   4.973   1.080 -0.1971  0.0836  0.0743
25075W        W41209   9.846  14.443  16.210 -0.3320  0.2454 -0.0580
25076W        W41210  13.263  10.824  13.314 -0.0660  0.2296 -0.5390
25077W        W41211  12.796   6.034  15.546  0.0887  0.0247  0.0429
25078W        W41212   4.673   8.505   3.582 -0.0082  0.0269 -0.0122
25079W        W41213  13.461   0.767  14.893 -0.2148  0.3060 -0.1225
25080W        W41214  16.574   2.503   0.667  0.0719  0.0346  0.0802
25081W        W41215   6.746  17.345   0.932  0.1752  0.0413 -0.0258
25082W        W41216  11.866  12.764  15.899 -0.0287  0.3932  0.1793
25083W        W41217   2.348  13.429   1.790 -0.3845  0.3490 -0.1429
25084W        W41218  16.905  14.547  13.035 -0.1469  0.2033 -0.1323
25085W        W41219  17.234  11.985   2.284 -0.1171 -0.0162  0.1718
25086W        W41220  13.554  10.660   1.779  0.2771  0.1076 -0.0124
25087W        W41221   9.797  13.646  12.618 -0.0002 -0.1967  0.4143
25088W        W41222   3.957   0.779  16.611 -0.0932 -0.0433 -0.2984
25089W        W41223   7.811  12.578  12.045 -0.1461  0.5103  0.2974
25090W        W41224   6.876   8.806   1.238  0.2501 -0.0756  0.0823
25091W        W41225  12.872   6.440   3.395 -0.3003 -0.1413  0.1573
25092W        W41226   0.559  16.800   3.109 -0.3505  0.0861  0.0731
25093W        W41227  10.625  16.138  15.677  0.2141 -0.0526 -0.2402
25094W        W41228  17.385   0.216   4.871  0.3126  0.1110 -0.0351
25095W        W41229   0.964   5.758   4.864  0.0809 -0.0888 -0.0785
25096W        W41230  14.521   4.957   2.665  0.1821  0.2030  0.0345
25097W        W41231   1.520   5.645  16.654  0.0628  0.0196  0.1446
25098W        W41232   6.458  10.572   0.878  0.0767 -0.2110 -0.1998
25099W        W41233  15.583   2.884   3.161  0.2253  0.2527  0.0299
25100W        W41234   1.111   9.179   3.528  0.0190  0.1032 -0.1275
25101W        W41235   8.090   2.031  15.594  0.3830  0.1869  0.1063
25102W        W41236  16.304  16.096  16.967 -0.0793  0.1639 -0.0460
25103W        W41237  15.046  17.028  13.879 -0.0210 -0.0213  0.3055
25104W        W41238   0.935   5.907  16.913 -0.1138  0.0465  0.0586
25105W        W41239   1.508  12.168  15.646 -0.2205  0.1864  0.1441
25106W        W41240   9.810   9.492   5.092  0.2076  0.0854 -0.2560
25107W        W41241   6.198   2.104   3.613  0.0259  0.1124  0.0640
25108W        W41242  12.263  14.223   5.134  0.0384 -0.2299 -0.0611
25109W        W41243   9.766  16.835   4.682  0.0333  0.1056 -0.0605
25110W        W41244  12.393  15.636  12.108  0.0516 -0.0019 -0.0361
25111W        W41245   6.914   8.776  14.519  0.0517  0.2667 -0.0748
25112W        W41246   6.033  17.209   5.991  0.0118  0.0598  0.1170
25113W        W41247  11.850  11.186   3.264  0.2840 -0.2493 -0.0858
25114W        W41248   7.108   6.574   4.339 -0.0143  0.0741 -0.0468
25115W        W41249  14.211  13.878   0.728  0.1175  0.0259  0.0034
25116W        W41250  13.730  14.746  14.031 -0.3590  0.1738  0.1421
25117W        W41251   8.694  13.690   2.333 -0.1481 -0.3177  0.0735
25118W        W41252   2.820   8.928  14.791 -0.1449  0.2417  0.0930
25119W        W41253   3.197   5.364  11.662 -0.0741 -0.1596  0.2294
25120W        W41254   9.958   2.135  12.303  0.1973 -0.0882  0.2514
25121W        W41255   5.657  10.938  15.713 -0.0647  0.1610  0.0069
25122W        W41256   9.325  12.214   5.376  0.1888  0.2421 -0.0184
25123W        W41257  11.738   0.208   3.832 -0.1620  0.0138  0.1674
25124W        W41258   2.626   6.076   6.462 -0.2334 -0.2718 -0.1710
25125W        W41259  11.986   1.831   3.009  0.1328  0.1144 -0.0544
25126W        W41260  11.154   4.518   2.849 -0.1527  0.1481  0.1808
25127W        W41261   7.710   6.878  16.647  0.0992 -0.1390  0.1006
25128W        W41262   9.865   6.202   2.147 -0.0532 -0.0253 -0.1689
25129W        W41263  16.210   7.139   1.281  0.1142  0.2036 -0.1888
25130W        W41264  12.369  16.523  16.200  0.2100 -0.0873 -0.0493
25131W        W41265  16.407  17.080  12.766  0.0068 -0.2266 -0.2911
25132W        W41266  11.647   9.042   3.109 -0.2974  0.1516  0.2074
25133W        W41267   7.764   5.391  14.235 -0.2314 -0.3073 -0.0423
25134W        W41268  13.442   3.620  15.992 -0.0689 -0.0483  0.1101
25135W        W41269   9.175  12.301   2.544  0.0502 -0.1741 -0.1019
25136W        W41270   9.555   3.470  13.945  0.1630 -0.2767  0.0543
25137W        W41271  12.217  17.287  13.500 -0.0719 -0.0436 -0.1306
25138W        W41272  14.883   5.212  11.502 -0.1103 -0.0664  0.1041
25139W        W41273   1.737   8.920  15.225  0.2931 -0.1056  0.0799
25140W        W41274   8.681  10.025   4.172 -0.0589  0.0462 -0.1024
25141W        W41275  13.563   4.883  11.773  0.0562 -0.3187 -0.1544
25142W        W41276   9.110   3.890  14.884 -0.2621  0.1176  0.0254
25143W        W41277   7.850   3.293  11.674 -0.0777  0.0853  0.0263
25144W        W41278  13.218   5.612  16.475  0.2626 -0.0825  0.0668
25145W        W41279   0.233  15.355  15.826  0.0058 -0.2570  0.3742
25146W        W41280   8.912  17.134   4.445  0.2212 -0.2417 -0.0992
25147W        W41281   1.482   9.967  15.519  0.0743  0.1296  0.1160
25148W        W41282   3.886   3.599  11.033  0.1598 -0.2459 -0.1813
25149W        W41283  16.750   0.034  15.784  0.2689 -0.1500  0.1087
25150W        W41284   3.304   4.122   2.020  0.4640 -0.2893  0.4227
25151W        W41285   7.735  10.044   2.391 -0.0878 -0.1049 -0.0793
25152W        W41286  15.770   0.096  13.896 -0.1273  0.1947 -0.1971
25153W        W41287   8.360   6.233  11.167  0.2119 -0.2117 -0.2854
25154W        W41288   3.585  14.477   5.095 -0.1877  0.2313  0.0081
25155W        W41289   8.545   4.751  16.357  0.1487  0.1321 -0.1284
25156W        W41290   4.470   6.198  11.996  0.0489 -0.1649  0.0278
25157W        W41291   0.929  15.487  12.349 -0.1273  0.1013  0.1413
25158W        W41292  13.171  13.110  15.741  0.2842  0.0730  0.1746
25159W        W41293   8.051   1.636   5.406 -0.0683  0.3188  0.3908
25160W        W41294   2.676   1.560   5.765  0.0007  0.1543  0.0977
25161W        W41295   6.762   9.339   1.974 -0.1413  0.0888  0.0084
25162W        W41296  11.598  16.872  13.271 -0.2220  0.0194 -0.1109
25163W        W41297   1.511  15.523   2.295  0.0521 -0.1711  0.0079
25164W        W41298   9.962   4.971   1.461  0.0784 -0.2508  0.0608
25165W        W41299   0.853   4.206  16.043 -0.2190 -0.2551  0.1093
25166W        W41300   2.793   2.902  16.375 -0.1971 -0.0834  0.0893
25167W        W41301   4.482   6.574  14.578 -0.1365  0.0096  0.2569
25168W        W41302   9.591   2.648   2.706  0.1088  0.0250  0.2483
25169W        W41303   2.637   5.503   2.608  0.0675  0.0127  0.0426
25170W        W41304  11.167  16.110  13.077  0.0959 -0.0330  0.1184
25171W        W41305  10.386  11.754   1.080 -0.2812  0.0778  0.0857
25172W        W41306  12.003   7.863  12.518  0.0341  0.0115  0.1675
25173W        W41307  13.734   3.356   4.360 -0.2630  0.0798 -0.0662
25174W        W41308   1.023   5.508   0.600 -0.2227 -0.0447  0.1787
25175W        W41309   0.668  16.493   2.597 -0.1338  0.2251  0.1226
25176W        W41310   9.126  13.422   1.586 -0.2230 -0.1367  0.0159
25177W        W41311   8.188  11.873   5.150  0.0408  0.1925 -0.0755
25178W        W41312  17.010   4.052  12.453  0.3147 -0.2341  0.0489
25179W        W41313   5.353  13.462   4.797 -0.0371  0.0808 -0.0913
25180W        W41314   3.946   0.783   0.908  0.0688 -0.2452 -0.3950
25181W        W41315   4.127   4.217   5.076  0.0365  0.1264 -0.1167
25182W        W41316   9.723   3.694   5.504  0.1205 -0.1028  0.1993
25183W        W41317   5.608  16.565   0.497 -0.2075  0.0372  0.0531
25184W        W41318  15.167   7.346  14.289  0.1636 -0.0173 -0.1196
25185W        W41319   5.952  11.462  12.091 -0.1878 -0.0440 -0.0247
25186W        W41320   8.026   0.309   2.758  0.2307 -0.0863 -0.2826
25187W        W41321  14.443  16.635   4.331 -0.4873  0.0149  0.2464
25188W        W41322  16.797   6.739  16.797 -0.1011 -0.0700  0.1324
25189W        W41323  14.253  17.231  16.158 -0.3278 -0.2387  0.0481
25190W        W41324  10.934  13.850  12.178 -0.1977 -0.1760  0.2450
25191W        W41325  11.662   4.798   4.968 -0.3273 -0.2555  0.2488
25192W        W41326   9.714   6.361  16.780  0.0941  0.0562 -0.1150
25193W        W41327  13.666  13.929  11.789  0.1721 -0.0821 -0.1139
25194W        W41328  16.039   0.314   0.524 -0.4186 -0.0241 -0.0130
25195W        W41329  12.389   4.488  16.874  0.4728  0.1358  0.2378
25196W        W41330  10.880   2.511   5.568 -0.2442 -0.0233  0.2223
25197W        W41331   8.004  11.686   0.487  0.1986 -0.0583 -0.0644
25198W        W41332  14.749   9.614  14.316  0.0143 -0.1896 -0.0437
25199W        W41333   1.101  15.545   4.731  0.2324 -0.1049 -0.2511
25200W        W41334   0.029  10.936   4.406 -0.3329 -0.0720 -0.0671
25201W        W41335   0.526  13.743  12.014 -0.0692  0.0002 -0.1172
25202W        W41336   4.764  10.163   0.979 -0.1162  0.2931  0.0317
25203W        W41337   1.417  16.771   4.876 -0.0620  0.0688 -0.0836
25204W        W41338   5.194  10.505   2.795  0.0471 -0.0380  0.0909
25205W        W41339   0.579   0.527  16.013 -0.1692  0.1496  0.2575
25206W        W41340  11.334  14.829   5.625  0.0973  0.0300  0.0441
25207W        W41341   1.148   9.321  14.482  0.1687  0.1466  0.2882
25208W        W41342   0.565   6.262  12.711 -0.2477  0.0587  0.2810
25209W        W41343   2.281   5.039   3.747  0.3506  0.0182 -0.1132
25210W        W41344  11.392   3.332  12.684  0.3424  0.1316  0.1919
25211W        W41345   2.660   2.320  15.001  0.0048  0.0568 -0.1714
25212W        W41346   3.618   3.454   2.030  0.2700 -0.3455  0.2252
25213W        W41347  16.035   9.034   4.376 -0.2178 -0.0603  0.1824
25214W        W41348   6.059   9.050   2.942  0.1527  0.1895  0.0705
25215W        W41349   7.993   2.906  15.817 -0.1326 -0.1008 -0.4605
25216W        W41350  15.339   2.939   2.736  0.1453  0.0992  0.2756
25217W        W41351  15.886  16.738   4.657  0.1007  0.0062  0.0081
25218W        W41352  12.244   4.869  14.687 -0.2242 -0.0282  0.2414
25219W        W41353   2.373   9.466   5.988 -0.1063 -0.4115 -0.1813
25220W        W41354  16.745  14.722   5.751 -0.1749 -0.0964  0.2106
25221W        W41355  17.477  13.186   2.909  0.3412 -0.1181 -0.1973
25222W        W41356  15.258  15.633   1.755 -0.2347 -0.2009  0.1501
25223W        W41357   2.859  15.353   5.669  0.1711  0.1694 -0.0661
25224W        W41358   4.943   3.086   2.650 -0.0022 -0.1323  0.0326
25225W        W41359   1.312   3.488  12.146 -0.0755  0.0597  0.1246
25226W        W41360  12.280  10.864  13.305  0.0346 -0.0515  0.2354
25227W        W41361   9.004   5.227   0.612 -0.1233  0.1930  0.2798
25228W        W41362   1.908   8.511  13.327 -0.2023  0.0424  0.1985
25229W        W41363   4.703   1.116   2.126  0.1032  0.2438 -0.1983
25230W        W41364  12.946   5.043   4.957 -0.1057  0.3774 -0.1425
25231W        W41365  16.008   8.366  11.287 -0.1953  0.0396  0.3191
25232W        W41366  11.512  12.530   5.539 -0.0940  0.0608  0.0033
25233W        W41367  16.874   5.120   2.305  0.0040 -0.1192 -0.1298
25234W        W41368  14.892  11.141  11.826  0.1747  0.0782  0.0613
25235W        W41369  13.623   2.903  12.309  0.0114 -0.0604  0.1345
25236W        W41370   0.365  14.989   0.843 -0.1282 -0.2952 -0.2619
25237W        W41371  13.060   6.493   4.633 -0.2088 -0.0368 -0.0734
25238W        W41372   8.019  10.694  12.247 -0.4154 -0.1013 -0.0025
25239W        W41373  15.478   9.561  11.698  0.1757 -0.1082 -0.1822
25240W        W41374  13.856  11.936   1.148 -0.1707 -0.0211 -0.1234
25241W        W41375  15.542   2.193  13.425  0.0453  0.2591 -0.0122
25242W        W41376  16.796  12.435   4.016 -0.0264 -0.1471 -0.0882
25243W        W41377  11.068  13.578   2.459  0.1104 -0.2616 -0.3290
25244W        W41378   5.398  11.381  13.618 -0.0655 -0.1136 -0.0597
25245W        W41379   9.266  10.815  12.770  0.0070  0.0579  0.1051
25246W        W41380   9.317   2.459   0.087  0.3577  0.1532  0.1447
25247W        W41381  17.078   5.613  13.825 -0.1539  0.0238  0.0810
25248W        W41382  11.210   5.925  13.715  0.2629 -0.1772  0.1339
25249W        W41383   2.127   7.067  14.955  0.0930 -0.1456 -0.0608
25250W        W41384   9.532  14.226  15.862  0.1304 -0.0546 -0.0196
25251W        W41385   7.876  16.593   1.315 -0.0961  0.0702  0.1416
25252W        W41386   1.797   2.950   5.369 -0.2900  0.3256 -0.1395
25253W        W41387   4.174   4.938   5.932 -0.1054 -0.0824 -0.1732
25254W        W41388   8.907  10.412  12.060  0.0376  0.2827  0.1622
25255W        W41389  10.859  12.775   4.299 -0.0242 -0.2714  0.2899
25256W        W41390   8.839   5.827  14.767  0.1679  0.0433  0.3597
25257W        W41391  12.217  12.632   0.116 -0.3885 -0.0151  0.1460
25258W        W41392   1.401  13.114  15.576 -0.1698  0.3070  0.1508
25259W        W41393   2.411   7.946   5.532 -0.1015 -0.2028 -0.1055
25260W        W41394  17.391  16.639  16.445 -0.0132 -0.0979  0.1709
25261W        W41395   8.326   8.327   0.140  0.4851 -0.0429 -0.4069
25262W        W41396   7.728  15.295  16.272 -0.0125 -0.3494 -0.2822
25263W        W41397   2.728   0.130  16.024  0.3074 -0.1918 -0.0831
25264W        W41398   2.376   6.668   3.070 -0.0064 -0.1592 -0.0037
25265W        W41399   7.607  14.337  16.271 -0.1053 -0.0116  0.0699
25266W        W41400   9.626   6.772  12.878 -0.0403 -0.0383 -0.1033
25267W        W41401  16.765  11.687   1.297  0.0037 -0.1324  0.2636
25268W        W41402   6.434  15.226   1.907  0.0054  0.2645  0.2099
25269W        W41403   2.019  10.923  14.311 -0.1537  0.2470 -0.0983
25270W        W41404   0.568  10.222   4.870 -0.2888  0.3253  0.0829
25271W        W41405  15.534   2.920   1.739 -0.2668 -0.0291 -0.2018
25272W        W41406   8.607  11.327   2.808  0.1744 -0.1371  0.1341
25273W        W41407   9.629  11.589   2.045 -0.1167 -0.1148 -0.1201
25274W        W41408   7.594  10.601  16.896 -0.3598  0.3186 -0.1505
25275W        W41409  12.272   9.165   0.695  0.4929  0.1295  0.2701
25276W        W41410  14.114  16.218   6.196 -0.1153 -0.0391 -0.1375
25277W        W41411  16.536   1.434   4.406  0.1701 -0.0304 -0.0934
25278W        W41412  12.578   7.824  15.560 -0.2671 -0.0404  0.1867
25279W        W41413  16.171   5.250   4.467  0.1336  0.1889  0.0438
25280W        W41414   5.561   3.899  14.428  0.0484  0.2303  0.0750
25281W        W41415  15.474   9.618  14.016  0.1376  0.1787  0.0873
25282W        W41416   3.520  11.566  13.489 -0.1610  0.0693 -0.1659
25283W        W41417  13.725  17.554   4.188 -0.0340 -0.2209 -0.0803
25284W        W41418   8.188   8.831  11.746  0.1389 -0.3096 -0.1626
25285W        W41419   7.572  16.163  13.454 -0.0012 -0.1732  0.1486
25286W        W41420  16.391   5.180   2.280  0.2790  0.0197  0.2343
25287W        W41421  13.480   8.617   3.553 -0.1691 -0.0062 -0.2601
25288W        W41422   1.671   2.128  14.906 -0.2299  0.0281  0.1933
25289W        W41423  11.573   8.560  15.063  0.0082  0.0058 -0.1785
25290W        W41424   4.786  13.641   2.164 -0.0521 -0.1983 -0.1245
25291W        W41425  14.021   0.280   0.915 -0.0196  0.0830  0.1030
25292W        W41426   2.474   2.231   4.006  0.0906 -0.3998 -0.3661
25293W        W41427   7.457  13.415  15.226  0.3838 -0.0269  0.1471
25294W        W41428   4.822   5.878  15.740  0.1042  0.0802 -0.3753
25295W        W41429  14.412   2.776  14.574  0.0648  0.0226 -0.1460
25296W        W41430   7.779   6.045  16.742 -0.0890  0.2542  0.2381
25297W        W41431  16.993  12.236   4.524  0.1932 -0.0420 -0.2662
25298W        W41432  13.927  15.286  12.170  0.0355 -0.2187  0.1071
25299W        W41433   9.786   3.864  12.653 -0.1242 -0.3585  0.1281
25300W        W41434   3.263  15.159  13.905  0.2253 -0.1260 -0.2964
25301W        W41435  10.038   9.737   3.107 -0.0264  0.2571  0.2625
25302W        W41436   3.628  15.302   1.951 -0.0304 -0.2116 -0.1093
25303W        W41437   8.461   5.949   1.121  0.3317  0.3122 -0.2398
25304W        W41438   3.816  10.828  12.724 -0.0124 -0.2485  0.1142
25305W        W41439   0.720  11.781  16.335  0.3483  0.4028 -0.1272
25306W        W41440   5.684  10.177  12.272  0.0370  0.1714  0.0242
25307W        W41441  11.737  10.675  17.030 -0.3656 -0.0666  0.0469
25308W        W41442   9.190  17.433  14.833  0.0169  0.2869  0.0640
25309W        W41443   8.311  10.093   2.392  0.0215 -0.0918 -0.2621
25310W        W41444  16.163  11.976   0.093 -0.1171  0.0827 -0.2283
25311W        W41445   1.707  15.974   4.535  0.0224  0.0888  0.1364
25312W        W41446   7.946   5.696   5.649  0.2694  0.3381  0.1936
25313W        W41447   8.897   7.209   2.729 -0.4652 -0.2095  0.2212
25314W        W41448  10.522   0.803  16.751 -0.3093  0.3441 -0.1139
25315W        W41449   0.823  15.149   4.671  0.2174  0.4477  0.1037
25316W        W41450   4.407  12.273   2.952 -0.0883  0.2169  0.0245
25317W        W41451  15.769   9.837  13.463  0.2073  0.0001 -0.0075
25318W        W41452   5.895   8.188   3.178 -0.0401 -0.1586  0.0561
25319W        W41453  15.951   1.676   1.764 -0.0810 -0.0346 -0.0467
25320W        W41454   5.264   0.514  17.133 -0.1283  0.3054 -0.1878
25321W        W41455  15.245  16.866   2.311 -0.0370 -0.2254 -0.1756
25322W        W41456  11.630  16.298  13.303  0.0209  0.1322  0.3915
25323W        W41457  16.982   0.040   2.457 -0.1076 -0.1519 -0.1263
25324W        W41458   9.456   8.461   1.430 -0.1381 -0.1506  0.0392
25325W        W41459   7.710   3.524   2.125  0.3330  0.3190 -0.0140
25326W        W41460  13.525   9.017  10.455  0.0331 -0.0178  0.1057
25327W        W41461   0.383   4.175   4.428  0.0479 -0.0921  0.0881
25328W        W41462  13.340   8.239   5.014  0.0231 -0.0605  0.0443
25329W        W41463  17.330  13.787  14.474  0.1808 -0.3057 -0.3293
25330W        W41464   6.719   9.927  15.481 -0.2375  0.1078 -0.3183
25331W        W41465   4.887   9.218  11.787 -0.2620 -0.0935  0.1066
25332W        W41466  12.956   7.874  11.699  0.3282 -0.1621 -0.2109
25333W        W41467   8.897  11.325   1.007 -0.2732  0.1677 -0.3992
25334W        W41468   8.044  11.398  12.777  0.0490  0.0385 -0.1357
25335W        W41469   9.410   5.969  16.717  0.1645  0.0455 -0.0092
25336W        W41470   6.608  10.270   2.934  0.0848 -0.2127  0.1703
25337W        W41471   4.475   1.324   2.590 -0.1889  0.4922 -0.1035
25338W        W41472   3.167   8.803  14.268 -0.0054 -0.1979  0.0202
25339W        W41473  16.850  16.531   4.280  0.2045 -0.2450 -0.0039
25340W        W41474   2.339   2.126   0.118  0.0141 -0.0241  0.1023
25341W        W41475   8.727   7.562  15.910 -0.2149 -0.1049 -0.0918
25342W        W41476  11.538  13.517   4.586  0.1538  0.2484 -0.0893
25343W        W41477  10.294   9.308   3.968 -0.1445  0.0889 -0.1811
25344W        W41478   6.752   5.313   0.924 -0.0444  0.1776  0.2793
25345W        W41479  11.082  11.327  12.607 -0.1162 -0.1543 -0.4151
25346W        W41480   5.784   7.632   2.209 -0.2696  0.0897  0.0191
25347W        W41481  13.997   7.429   1.090  0.0184  0.2796  0.2401
25348W        W41482   2.140   3.325   2.389  0.0390  0.2186  0.1560
25349W        W41483  10.645  17.657   6.211 -0.2436  0.0169 -0.3170
25350W        W41484  13.978  14.822   5.084  0.1032  0.0213 -0.2099
25351W        W41485   5.568  16.633   1.067 -0.3402  0.0285 -0.0251
25352W        W41486   6.869  12.488  15.248  0.0597 -0.1675  0.0115
25353W        W41487   3.712  11.968   0.411  0.1115 -0.0139 -0.2147
25354W        W41488  16.514   4.178   5.188 -0.3004 -0.1551  0.0825
25355W        W41489  11.210  12.507  16.430 -0.0181  0.1436 -0.4756
25356W        W41490   4.510   3.911  11.262 -0.1472  0.2582 -0.0133
25357W        W41491  11.063  11.359   6.136 -0.0580  0.0875  0.1871
25358W        W41492   8.512   5.474  13.514 -0.2273 -0.0796  0.2004
25359W        W41493  11.952   3.748  16.399  0.3222  0.1672  0.0094
25360W        W41494   6.185   3.776   5.727 -0.2840 -0.0577 -0.0368
25361W        W41495   5.334  16.555  13.729  0.0492 -0.1760 -0.1247
25362W        W41496   5.191   1.833  12.398  0.4047  0.1493 -0.0321
25363W        W41497  17.552  15.209   0.678 -0.0565  0.1116  0.2209
25364W        W41498  14.631   3.078  14.190  0.1697 -0.2259 -0.0855
25365W        W41499   8.948   3.947   2.297 -0.1372 -0.1582  0.1026
25366W        W41500   7.604  17.377   3.910 -0.1211 -0.1964  0.2257
25367W        W41501   8.338   3.416  16.820  0.2271 -0.0520  0.2924
25368W        W41502   8.698  17.513   6.506 -0.0593  0.0421  0.1090
25369W        W41503  15.719   8.402   1.816 -0.0579 -0.1087 -0.0861
25370W        W41504  15.465   0.751   0.483 -0.1025  0.3677  0.1188
25371W        W41505  16.899   5.705   1.770  0.0814  0.1143 -0.2138
25372W        W41506   2.452  13.961  16.819 -0.1438 -0.2224 -0.1797
25373W        W41507   5.995  14.403   4.794 -0.1065 -0.1960  0.1499
25374W        W41508   9.544   0.908  14.483 -0.1197  0.0886  0.1860
25375W        W41509   2.981   4.569   5.221 -0.0699  0.2320  0.0399
25376W        W41510  15.361  13.906   1.876 -0.2230  0.0518 -0.1507
25377W        W41511  14.978   9.907  12.579 -0.1753 -0.1638 -0.0903
25378W        W41512   8.033   0.972  12.298  0.0327  0.0796  0.1239
25379W        W41513  13.449   0.946   4.825 -0.2867  0.2315  0.0140
25380W        W41514   6.385  16.515  12.933 -0.0316  0.2587  0.1283
25381W        W41515   8.755   4.965  11.408  0.1164  0.0643 -0.2427
25382W        W41516  15.965  16.760   2.106 -0.3135  0.2905  0.0778
25383W        W41517   2.483  10.584  16.636 -0.2117  0.0115 -0.2520
25384W        W41518   0.328  13.748  12.755  0.2008 -0.0077 -0.1435
25385W        W41519   5.183   0.920  13.708 -0.0605 -0.0372  0.1153
25386W        W41520   4.703  17.288   6.642  0.1319  0.0133 -0.1083
25387W        W41521   3.515   9.233   5.342 -0.1632 -0.0826 -0.0619
25388W        W41522   1.977   3.047   0.042 -0.0295 -0.1790 -0.3206
25389W        W41523   8.898  12.388  13.107 -0.0964  0.1926  0.0309
25390W        W41524   2.541   0.776   4.313  0.0232  0.0652  0.0151
25391W        W41525   4.188   6.102  12.435 -0.0398  0.0819  0.0561
25392W        W41526   3.785  12.817   2.698 -0.2052  0.1105 -0.1348
25393W        W41527   5.611  10.743   3.749 -0.2078 -0.1661  0.0244
25394W        W41528  14.452   3.736   4.898 -0.0726  0.3127 -0.1912
25395W        W41529   9.315  13.131  11.927 -0.2612 -0.0148  0.0724
25396W        W41530   1.313   0.036   0.730  0.2021 -0.0304 -0.1999
25397W        W41531   1.938   5.234   5.609  0.0979 -0.0182 -0.2797
25398W        W41532   3.020   3.499   0.674 -0.0169 -0.1465 -0.0147
25399W        W41533   1.509   4.182   4.779  0.0263  0.0735  0.1503
25400W        W41534  12.080  14.162   2.900 -0.1858  0.0680  0.0114
25401W        W41535  16.273   8.301   4.886 -0.0208 -0.4844 -0.1063
25402W        W41536   0.981  12.876  15.570 -0.0453 -0.0050  0.0117
25403W        W41537   2.331  12.668   5.704  0.1612 -0.2792 -0.0407
25404W        W41538   2.818   0.631  14.926  0.1046 -0.2814  0.2678
25405W        W41539   5.318   7.569   1.986  0.0926 -0.3926 -0.1794
25406W        W41540   4.336  16.166   2.188  0.0674 -0.2463  0.3765
25407W        W41541  12.517  16.239   3.672  0.2821  0.0596 -0.1852
25408W        W41542   3.598   7.842  13.679  0.2058 -0.2648  0.0551
25409W        W41543  15.972   0.662   0.132 -0.1460  0.0615 -0.2058
25410W        W41544   1.528   0.600   3.022 -0.0117  0.0655 -0.1647
25411W        W41545  13.519   3.298   1.568 -0.0603 -0.0555  0.1166
25412W        W41546   0.498   9.156   3.921 -0.2174  0.2124  0.0527
25413W        W41547   6.938   2.761  12.072  0.4159 -0.0192  0.3642
25414W        W41548  10.815  16.773   5.074 -0.1847 -0.0812  0.1709
25415W        W41549   3.435   6.351   1.918  0.0999 -0.2585  0.0186
25416W        W41550   5.190   4.106  13.148  0.1162  0.2325  0.0015
25417W        W41551  11.549   6.826  11.676  0.0545  0.0109 -0.0619
25418W        W41552   0.711  16.836   2.077  0.0832  0.3998 -0.0606
25419W        W41553  13.656   7.287  14.953 -0.1294  0.2744  0.0690
25420W        W41554   3.712  15.908  16.300 -0.1636 -0.2365 -0.0139
25421W        W41555   1.661   0.251  12.131 -0.1104  0.1084  0.1573
25422W        W41556   0.096   9.368  11.219 -0.4678 -0.1858  0.1903
25423W        W41557  16.974  17.275   4.040 -0.0790 -0.0988  0.2152
25424W        W41558   1.278  13.388   6.020 -0.1160 -0.2053 -0.0793
25425W        W41559   2.443  12.768  12.599  0.0727  0.1086 -0.0917
25426W        W41560  11.623  10.841   0.871 -0.0202 -0.2289  0.2979
25427W        W41561   5.168  15.124  13.041  0.1774  0.1827 -0.3142
25428W        W41562   8.802  12.550   4.806 -0.3618  0.1112 -0.0089
25429W        W41563  16.624   9.573  15.166 -0.1523  0.2153 -0.2986
25430W        W41564  15.771  15.794   6.809 -0.1729 -0.0568 -0.1329
25431W        W41565   5.224   6.510  16.097  0.0279 -0.1717  0.1287
25432W        W41566  16.945  13.466   1.163  0.0501 -0.0304  0.1165
25433W        W41567   7.854   8.093   3.270  0.0338  0.0184 -0.0620
25434W        W41568  12.683  12.789   0.212 -0.0600 -0.3732  0.1336
25435W        W41569  10.840   7.395  15.439 -0.0867  0.0223  0.1787
25436W        W41570  10.884   9.610   1.692 -0.0806  0.0794  0.1057
25437W        W41571  10.332  15.903  13.321 -0.0687  0.0984 -0.1958
25438W        W41572   4.385   0.473  12.667 -0.2263  0.1905 -0.3613
25439W        W41573  12.315   3.217  13.075  0.0654 -0.1574  0.1084
25440W        W41574   2.453   3.353   3.724 -0.2788  0.1504  0.0316
25441W        W41575  16.733   0.660   1.211 -0.0534 -0.0690 -0.3174
25442W        W41576   5.272  16.807  12.034 -0.1297  0.2486 -0.0809
25443W        W41577   0.087  10.547  15.812 -0.1406  0.2557 -0.1363
25444W        W41578   0.226   1.312  13.104  0.1350  0.0396 -0.4222
25445W        W41579  17.090   1.013   1.371  0.2448 -0.0505 -0.1317
25446W        W41580   0.582   5.078   3.180  0.2079  0.0584 -0.0453
25447W        W41581   2.950  10.896   5.193  0.1395 -0.2492  0.0871
25448W        W41582  16.030   4.802  16.341 -0.2704 -0.2358  0.0816
25449W        W41583  16.365   2.937  15.944  0.0957  0.0509  0.0436
25450W        W41584   4.670   0.430   0.647  0.0917  0.0373  0.0176
25451W        W41585   1.516  12.860  14.044  0.4532  0.0709  0.2331
25452W        W41586  12.267  17.109   0.725  0.0706 -0.1274  0.3617
25453W        W41587  11.050   4.749   0.146 -0.1362 -0.0551 -0.5068
25454W        W41588   0.237   1.003  13.733  0.1190 -0.1066 -0.2234
25455W        W41589  12.691  12.781   5.918  0.1296  0.0134 -0.2235
25456W        W41590   9.647   0.727   5.814 -0.0489 -0.0392 -0.0310
25457W        W41591   1.700  15.322  16.330  0.0619 -0.1065  0.0763
25458W        W41592   5.805  14.173  16.514  0.1903 -0.1469  0.1273
25459W        W41593   1.789   8.030  14.053  0.0833 -0.0715 -0.1927
25460W        W41594  16.975   0.011   0.483  0.0421 -0.1081  0.1016
25461W        W41595  16.237  12.697   6.388 -0.0583 -0.1273 -0.3915
25462W        W41596   9.617   5.844   1.132 -0.0422 -0.0632  0.0202
25463W        W41597  12.284  14.240   6.001  0.1623 -0.1494  0.0823
25464W        W41598   7.283   5.103   4.430  0.1051  0.0350  0.1769
25465W        W41599  15.255  10.300   5.794  0.2204  0.1404  0.1269
25466W        W41600   6.823  10.839  15.273  0.1238 -0.1367 -0.0441
25467W        W41601   5.168  10.535   5.560  0.3709  0.0777 -0.1156
25468W        W41602  13.737  11.593   1.563 -0.1076 -0.4247 -0.0340
25469W        W41603  16.618   3.639  15.188  0.0282 -0.0006  0.1476
25470W        W41604  14.146  13.035   0.014  0.2029 -0.2909  0.1774
25471W        W41605   8.660   8.146   5.366 -0.1756  0.2816 -0.2238
25472W        W41606   6.762   6.829  13.300 -0.0236 -0.0053 -0.1558
25473W        W41607  11.993   5.702   0.946  0.1773  0.0727 -0.1162
25474W        W41608  17.468   7.290   4.638 -0.1309  0.0796  0.4272
25475W        W41609   2.253  15.049  12.559 -0.0432 -0.0791  0.1674
25476W        W41610  11.879   6.948   3.947  0.2280  0.1152  0.2867
25477W        W41611  11.826   3.860  14.968 -0.0785 -0.1033  0.0104
25478W        W41612   2.786  13.120  12.530 -0.1726 -0.1106  0.0274
25479W        W41613   4.534  12.770  15.932  0.1090  0.1277  0.2108
25480W        W41614  14.517   0.624   2.258  0.2484 -0.1219 -0.3266
25481W        W41615  16.751  11.051  12.860  0.0544 -0.1948  0.0097
25482W        W41616   9.097   1.273  14.979 -0.0794  0.2022 -0.1185
25483W        W41617   0.348   3.763  15.314  0.1237  0.0688 -0.2783
25484W        W41618   8.919  17.435   1.287  0.1370 -0.1813  0.0669
25485W        W41619  10.684  13.768  13.570 -0.0102  0.1656 -0.0419
25486W        W41620  12.741   1.301   1.960  0.1505 -0.2961  0.0701
25487W        W41621  17.212   8.668   4.819 -0.1517 -0.0676 -0.0618
25488W        W41622   4.210   9.389   0.167 -0.2390  0.0736 -0.3377
25489W        W41623   7.147   1.685  13.754 -0.0931  0.3048  0.4152
25490W        W41624   4.259  11.008   0.700  0.0146  0.0628 -0.0416
25491W        W41625   9.791   8.369   2.857  0.1099 -0.5151 -0.1125
25492W        W41626   8.515  12.401   1.384  0.1966  0.1875 -0.0175
25493W        W41627  11.684  14.489  13.645  0.0687  0.3230 -0.0999
25494W        W41628   4.331   5.241  14.729 -0.2491  0.1904 -0.0024
25495W        W41629   3.752   2.150   3.365 -0.3113 -0.0033 -0.0507
25496W        W41630  14.222   5.202  14.847  0.1421 -0.0295 -0.2842
25497W        W41631   3.474   5.429   2.494 -0.1523 -0.2997 -0.0456
25498W        W41632  12.547   0.853  13.030 -0.1196 -0.0052  0.1494
25499W        W41633  12.917   7.927  16.116 -0.0830  0.0047  0.2553
25500W        W41634   9.449   6.426  16.289  0.0814  0.0310  0.2789
25501W        W41635   1.165  10.952  12.538  0.2456 -0.0271 -0.0670
25502W        W41636  11.257  13.955  14.118  0.1020  0.0461  0.0587
25503W        W41637  16.031   2.762   3.171 -0.0393 -0.0608  0.0943
25504W        W41638  17.597   9.818   0.536 -0.1619  0.1614  0.2113
25505W        W41639   6.269   1.471  15.117  0.0764 -0.0996 -0.1841
25506W        W41640   5.410   5.347   0.034 -0.2183  0.2724 -0.0476
25507W        W41641   7.614   5.982   0.032  0.1856  0.1904 -0.0050
25508W        W41642   3.159   0.666   4.906 -0.1498 -0.3248 -0.2208
25509W        W41643  11.388  14.878   3.383 -0.0467  0.0403  0.0278
25510W        W41644  16.054   4.836  15.072  0.0008  0.1777 -0.0372
25511W        W41645   4.313  16.701   2.667 -0.1579 -0.0732  0.1215
25512W        W41646   2.525  16.116  15.487 -0.2146  0.0161  0.1455
25513W        W41647   8.457   8.365  13.784  0.0136 -0.0511 -0.0815
25514W        W41648   4.842   6.378   1.780  0.0388 -0.0850  0.2702
25515W        W41649   0.133   3.860   1.172 -0.0531  0.2734 -0.1558
25516W        W41650   0.774   7.502  14.578 -0.0041  0.2348 -0.2632
25517W        W41651  16.217   9.076  11.353 -0.0316 -0.1217 -0.1255
25518W        W41652  11.665   1.866  15.527 -0.1708 -0.1199 -0.0533
25519W        W41653   6.153   5.610   3.124 -0.0340 -0.2909 -0.0850
25520W        W41654  17.203   8.953  16.493  0.0190  0.4039 -0.2229
25521W        W41655   5.081   0.516   2.584  0.1790 -0.1229 -0.0906
25522W        W41656   6.122   2.238   5.543 -0.1454 -0.0191 -0.0549
25523W        W41657  13.249  15.822  17.133 -0.0316  0.0524 -0.0164
25524W        W41658   9.604   1.288   4.083 -0.1790 -0.0132  0.0323
25525W        W41659  16.354  15.511  14.642 -0.1959 -0.0674  0.3794
25526W        W41660   5.213   1.766  16.297  0.0353 -0.1154  0.2866
25527W        W41661   8.337   7.473  12.984 -0.2293  0.5780  0.2267
25528W        W41662   9.770  14.990   1.125  0.1253 -0.1313 -0.1077
25529W        W41663  14.343   6.303  12.674  0.0283  0.0464 -0.1658
25530W        W41664   0.149   2.425   0.708  0.1020  0.0421 -0.0753
25531W        W41665   5.393  16.771   2.656 -0.0593 -0.3531  0.2569
25532W        W41666  13.488  10.508   5.122  0.1521 -0.1532 -0.0418
25533W        W41667  13.643  14.778  13.075  0.2384  0.2822  0.2426
25534W        W41668   9.972   8.839  16.255 -0.0096 -0.2171  0.2315
25535W        W41669  12.360  11.354   3.290  0.1535  0.0115 -0.0136
25536W        W41670  16.459   7.892   2.970  0.1354  0.1019 -0.0988
25537W        W41671   8.345   7.380  16.168 -0.2048 -0.1497  0.3462
25538W        W41672   6.633   4.034  16.911  0.0287  0.1655  0.4128
25539W        W41673   3.368   6.573   3.013 -0.1295  0.0543  0.0331
25540W        W41674   1.667   7.067   5.875 -0.0465  0.1601  0.0487
25541W        W41675  12.521  13.306  14.239 -0.0754 -0.3206  0.1312
25542W        W41676   8.979   6.739   0.040  0.2755 -0.0311  0.1525
25543W        W41677  16.978   9.449   1.328  0.2050 -0.0305  0.0107
25544W        W41678  16.072   5.916   1.885 -0.0360 -0.0264  0.2147
25545W        W41679  14.328  14.996   0.203 -0.2376 -0.0953  0.0514
25546W        W41680   4.417  13.716   1.718 -0.2960  0.3906 -0.2906
25547W        W41681   4.331  17.046   1.940 -0.1519 -0.0163  0.1884
25548W        W41682   2.140   0.251  17.071 -0.2613  0.2576 -0.0155
25549W        W41683  15.753  16.878   6.211 -0.0206 -0.1276  0.0683
25550W        W41684   0.038  12.117  13.438 -0.1511 -0.2106 -0.0403
25551W        W41685  11.276   9.851  13.084  0.1343 -0.1319 -0.0661
25552W        W41686   6.862  15.311  15.544  0.1393 -0.1391  0.0967
25553W        W41687  15.282  15.458   0.926  0.2186  0.0627 -0.2237
25554W        W41688   4.809   5.945   5.235 -0.0003  0.0512 -0.2675
25555W        W41689  11.589   9.715   4.814  0.2134 -0.0178  0.2044
25556W        W41690   5.538   0.892   4.174  0.1265 -0.1141  0.0004
25557W        W41691  10.770   7.434  14.823 -0.1254 -0.2717 -0.2683
25558W        W41692  12.792   5.418   4.731 -0.1354  0.1187  0.0397
25559W        W41693   9.197   5.955   0.799  0.1597  0.2864  0.0335
25560W        W41694   7.554   1.938  14.330 -0.1728 -0.1629 -0.1874
25561W        W41695  15.487  14.406   0.705 -0.1563 -0.0776  0.0171
25562W        W41696  16.188  11.187   4.189 -0.1719 -0.0471 -0.2559
25563W        W41697  14.399   6.720  13.146 -0.1774 -0.1044  0.0919
25564W        W41698  10.035   8.274   1.333  0.0006 -0.0315  0.1869
25565W        W41699  14.882  10.893   2.280  0.1485  0.0046  0.0479
25566W        W41700   5.433   7.867   0.435  0.0788 -0.3902  0.2196
25567W        W41701  10.117   0.745  16.012  0.1129  0.1605 -0.0341
25568W        W41702   5.240  16.673  16.437 -0.1174  0.0067 -0.1146
25569W        W41703   4.622   4.391  14.101  0.1883  0.3432  0.0287
25570W        W41704   6.598   7.745  13.413 -0.1018  0.3030 -0.1339
25571W        W41705   8.357  12.141   0.365 -0.0874  0.0127  0.2599
25572W        W41706  10.153   2.456   0.482 -0.2530 -0.0771 -0.0994
25573W        W41707   5.601   3.999   3.616  0.0061  0.2992  0.1169
25574W        W41708   4.907   5.171   5.501  0.3942 -0.1107  0.2897
25575W        W41709   9.457   4.334  13.359 -0.1971  0.0467 -0.0905
25576W        W41710   6.202  16.639   5.419  0.2667  0.1638  0.0468
25577W        W41711   1.143   8.432   5.017  0.1513  0.1727  0.0764
25578W        W41712   8.960   4.444   2.425 -0.0135  0.1876 -0.0557
25579W        W41713   7.223   0.872  15.093  0.1922 -0.2344 -0.3432
25580W        W41714  10.980   3.520   5.402  0.1104  0.2354 -0.2125
25581W        W41715   0.192   1.461  14.727 -0.1096  0.3096 -0.1290
25582W        W41716   5.843   7.311  15.605  0.1543  0.0520 -0.0441
25583W        W41717   3.736  10.224   1.770 -0.2574  0.0735  0.3315
25584W        W41718  10.047   8.839   4.249 -0.1655 -0.1572 -0.0645
25585W        W41719   3.084  17.571   6.422 -0.2580  0.0073 -0.2225
25586W        W41720  14.999  11.148   4.827  0.0668 -0.3631 -0.0353
25587W        W41721  16.693  13.199   0.308  0.1608 -0.2733 -0.4177
25588W        W41722   5.778   6.960   2.219 -0.1443 -0.1318  0.0922
25589W        W41723   3.147  13.895  13.008  0.3525  0.0413 -0.0081
25590W        W41724  11.981   7.581  16.803  0.1485 -0.1103  0.1589
25591W        W41725   9.846   1.463   3.173  0.1167  0.1719 -0.0373
25592W        W41726   1.008   9.507   4.427  0.0886 -0.0533  0.1993
25593W        W41727   7.882  15.309   2.474 -0.1002 -0.1224 -0.2218
25594W        W41728   0.596   6.589   4.824  0.3464 -0.0181  0.1121
25595W        W41729   7.691  14.713  10.829 -0.2094 -0.0583 -0.0925
25596W        W41730  14.968   5.030  15.422  0.2217 -0.3300  0.1635
25597W        W41731   4.977  12.516   2.342 -0.1535  0.2490  0.1340
25598W        W41732  11.839  17.428   0.505  0.0767 -0.0239  0.0987
25599W        W41733  12.290   6.565  11.953 -0.0629  0.1275  0.0562
25600W        W41734   5.072  11.185   0.275 -0.0233  0.0075  0.0404
25601W        W41735   0.661   4.197   3.504 -0.0198 -0.0834 -0.0296
25602W        W41736   4.309  16.346  13.151 -0.2583  0.2677  0.0670
25603W        W41737   6.092  12.438   1.946  0.0046  0.1498 -0.1710
25604W        W41738   3.302   4.887  14.367  0.2796 -0.1044 -0.0788
25605W        W41739  10.638  11.354   2.965  0.2338 -0.2030  0.2201
25606W        W41740   7.266  12.850  16.113 -0.2156 -0.0220  0.1444
25607W        W41741  14.722  11.932  13.487 -0.0254 -0.3030  0.6678
25608W        W41742  11.518  15.108   4.637 -0.1144  0.1110 -0.0419
25609W        W41743   8.310   7.844   3.574 -0.0371 -0.0129 -0.2578
25610W        W41744   7.034  13.151   3.600 -0.3343  0.0436 -0.3730
25611W        W41745  13.500   3.750   0.333 -0.2039  0.1082  0.0783
25612W        W41746  10.860   5.704  15.749 -0.0659 -0.1491 -0.0363
25613W        W41747   5.044   4.701   5.452 -0.1589  0.0566  0.2645
25614W        W41748   4.242   0.994  15.248 -0.0495 -0.2451 -0.1551
25615W        W41749   9.817   1.781  11.896  0.2018  0.0286 -0.1808
25616W        W41750   7.500   6.644   1.677  0.3928  0.2108  0.0034
25617W        W41751   7.304   7.503  14.421 -0.0450 -0.1196 -0.0720
25618W        W41752   1.537   0.367   5.336  0.0853 -0.0040 -0.1915
25619W        W41753   1.313  13.070   4.017 -0.3669  0.1237 -0.1811
25620W        W41754   4.739   3.639   0.807  0.1181  0.0624  0.3376
25621W        W41755   4.524   7.235  13.511 -0.0016 -0.1989  0.2785
25622W        W41756   1.764  11.297  11.604 -0.0086  0.0635  0.1515
25623W        W41757  16.295   8.912  16.309 -0.0444  0.1523  0.2813
25624W        W41758  14.261  10.244   2.519 -0.0206 -0.0286 -0.3880
25625W        W41759  14.107  11.009  14.403 -0.1399 -0.0831 -0.4596
25626W        W41760   8.102   0.404  15.989  0.2198  0.1397  0.0539
25627W        W41761  14.292   5.787  13.534  0.0968  0.0246  0.1655
25628W        W41762   5.968  12.967   4.721  0.0764  0.2479 -0.0814
25629W        W41763  10.853  14.576   5.252  0.0445  0.0520  0.1667
25630W        W41764  15.172  17.110  16.085 -0.0448  0.1429 -0.2395
25631W        W41765  10.237   8.601   2.530 -0.1036 -0.1874  0.1953
25632W        W41766   5.557   0.897  17.147 -0.2033 -0.0060 -0.1375
25633W        W41767  12.974   6.444  14.380 -0.2127 -0.1471 -0.0074
25634W        W41768   5.005   6.006   1.479 -0.0898  0.0749 -0.1317
25635W        W41769  12.997  17.491  12.371  0.3393 -0.1323  0.0595
25636W        W41770   9.305   8.577   3.645 -0.0304  0.0801  0.0473
25637W        W41771   3.031  10.706  15.759  0.2203 -0.1276  0.1667
25638W        W41772   1.484  15.016  15.519  0.0723 -0.3717  0.0848
25639W        W41773   4.019  12.584  12.078  0.0647  0.0871  0.2181
25640W        W41774   7.249   3.410  15.294  0.1022  0.3793 -0.1715
25641W        W41775   9.546  13.151  16.730 -0.1923  0.0433 -0.0231
25642W        W41776  14.009   3.311   1.600  0.0298 -0.2912  0.0784
25643W        W41777  13.833  15.071  12.670 -0.1004  0.4519 -0.3040
25644W        W41778   1.073   8.841  14.794 -0.1658 -0.1795 -0.0095
25645W        W41779   4.974   6.739  12.679 -0.1224  0.3152  0.2301
25646W        W41780   6.182  14.780   2.000  0.1780  0.0245 -0.2761
25647W        W41781  12.239  10.685  11.251 -0.0640  0.1415  0.1418
25648W        W41782  13.183  15.753   6.150  0.1489  0.1374 -0.2168
25649W        W41783   2.359  12.691   2.011 -0.0057  0.0560  0.1230
25650W        W41784   9.413  14.796  13.780 -0.0081  0.2764 -0.0184
25651W        W41785   8.003   1.668  11.892 -0.1996  0.0087  0.2599
25652W        W41786  14.515   3.069  12.230 -0.0538 -0.2226  0.0300
25653W        W41787   4.095   1.251   3.810 -0.0406  0.2278 -0.0652
25654W        W41788   8.420   6.838   1.246  0.2725  0.0969 -0.1059
25655W        W41789  11.167  12.558   0.449 -0.5174  0.0309  0.3113
25656W        W41790  16.681  12.851  11.724  0.0924 -0.1426  0.0737
25657W        W41791  14.944   7.057   4.436 -0.0295  0.3150 -0.1318
25658W        W41792  17.232   6.293   2.766  0.2007  0.1191  0.0808
25659W        W41793   5.131  15.242  12.419 -0.0188 -0.0073  0.1222
25660W        W41794   9.307  10.454  15.072  0.1051  0.4462 -0.3213
25661W        W41795   5.125  15.653  15.160 -0.1430 -0.0334  0.2463
25662W        W41796  12.559   3.413  16.207  0.0305 -0.1848  0.0170
25663W        W41797   9.486  17.535  11.885  0.2382 -0.0936  0.0308
25664W        W41798  14.013  17.644   4.577 -0.3234  0.0548  0.2088
25665W        W41799   2.645   5.980  16.086 -0.4394  0.1671  0.0665
25666W        W41800   1.312  16.078  15.008  0.2969  0.0352  0.4053
25667W        W41801  16.169   3.580   3.329  0.2158 -0.0465 -0.1759
25668W        W41802  15.166   8.731  14.291  0.1774  0.2032  0.0988
25669W        W41803   8.244   5.484   5.282 -0.2197 -0.0325  0.2702
25670W        W41804  15.672   7.760  16.887 -0.0500 -0.0673 -0.2146
25671W        W41805   3.049  10.146   3.787  0.0510 -0.0010  0.1491
25672W        W41806   0.711   1.329  16.432  0.0509  0.2498 -0.1487
25673W        W41807   9.508  10.901  16.934 -0.0313  0.0504 -0.4304
25674W        W41808  14.032   3.464  16.571  0.2720 -0.2860  0.0129
25675W        W41809  17.425   4.651  11.952  0.0183  0.1089 -0.2924
25676W        W41810   0.942   3.444  11.585  0.1760 -0.0120  0.3520
25677W        W41811   5.645   4.277  16.286  0.1880  0.1906 -0.0194
25678W        W41812  13.410   2.817   0.639 -0.2928  0.2827 -0.2553
25679W        W41813  10.834  15.830  16.626 -0.1952 -0.2392  0.1155
25680W        W41814  12.946   4.409  13.180 -0.4112  0.0144 -0.1881
25681W        W41815  12.174  14.665   0.739  0.1718  0.0215 -0.2980
25682W        W41816  14.607   5.293  15.671 -0.1092  0.2241 -0.0914
25683W        W41817   0.765  12.312   3.581  0.0364  0.0712  0.2080
25684W        W41818   5.782  14.879   1.679  0.1468  0.0216  0.1371
25685W        W41819  15.191   7.979  11.455 -0.0636 -0.1182 -0.1050
25686W        W41820   1.468   6.623  15.189  0.1827  0.0726  0.2413
25687W        W41821  11.026   8.937  13.787 -0.1373 -0.0171  0.0262
25688W        W41822   1.900   6.968  12.362 -0.2850  0.4022 -0.0088
25689W        W41823   9.998   1.077   4.790  0.2447  0.0216  0.1170
25690W        W41824   3.549   6.012   2.763 -0.1491 -0.1629 -0.0515
25691W        W41825  14.895   9.173  16.575 -0.0570 -0.1385  0.0879
25692W        W41826   6.413   9.838  16.337  0.1893 -0.4991 -0.1100
25693W        W41827   6.554  15.060   4.257  0.2948  0.2285  0.0641
25694W        W41828  10.715   3.150   3.887  0.0814 -0.1033  0.1833
25695W        W41829   3.181  15.139  11.879 -0.1133  0.1782 -0.2141
25696W        W41830  15.467  11.238   6.046 -0.2036 -0.0299 -0.0078
25697W        W41831   8.944  10.815   1.038 -0.0355  0.0053  0.1039
25698W        W41832  16.093   6.583  16.210 -0.0818  0.1034 -0.0368
25699W        W41833  16.263   1.001  13.196 -0.0704 -0.0461 -0.1743
25700W        W41834  14.468  14.691   1.039  0.1219  0.0233 -0.0767
25701W        W41835   7.949   9.979  14.808 -0.0199  0.1597 -0.2110
25702W        W41836   0.473   0.124   6.788 -0.1482 -0.1933 -0.2538
25703W        W41837  13.511   3.144  16.814  0.1476 -0.1171 -0.0535
25704W        W41838   6.237  12.095   5.331  0.0715  0.0120 -0.2969
25705W        W41839  10.035  10.598  16.320  0.0366  0.3901 -0.0581
25706W        W41840  16.709  17.002  17.117  0.1524  0.0179 -0.2657
25707W        W41841  11.709  14.529   2.500  0.0157  0.1937 -0.0126
25708W        W41842  13.137  10.893   4.225  0.2902 -0.0075 -0.0163
25709W        W41843  17.125  14.861  15.764 -0.3402 -0.0494  0.0646
25710W        W41844  13.983   5.166  12.450 -0.0013  0.0575 -0.2465
25711W        W41845  16.314  11.308  11.609  0.1823  0.3315 -0.1480
25712W        W41846  15.206  15.171   4.334 -0.0758 -0.3509  0.1229
25713W        W41847   5.669   8.261   1.652 -0.1445 -0.0969  0.0824
25714W        W41848   6.713   2.559  16.207  0.0514  0.0435  0.1684
25715W        W41849  14.945  16.282  16.772 -0.0108 -0.0546 -0.2178
25716W        W41850   5.155   1.619   0.390 -0.4553  0.0673 -0.1523
25717W        W41851  11.455  11.631  11.865  0.0717  0.0427 -0.2703
25718W        W41852   6.971  17.253  13.203 -0.0056  0.0728  0.2935
25719W        W41853  13.833  10.119  11.998  0.2427  0.1011 -0.0398
25720W        W41854  13.469  12.245  13.629 -0.0151  0.0021  0.1519
25721W        W41855   2.833   2.308   2.043  0.0596  0.5344 -0.0964
25722W        W41856  16.601  13.822  16.607  0.3286 -0.0860  0.0904
25723W        W41857   8.292   8.361  11.952  0.1216  0.0858  0.3091
25724W        W41858   2.076  11.816  13.392 -0.1317  0.1844  0.0306
25725W        W41859  15.555  10.163  15.140 -0.2907  0.1744  0.2223
25726W        W41860  12.328   1.527  16.115 -0.1504 -0.3418  0.0035
25727W        W41861   8.513  14.709  14.769  0.1276 -0.0783  0.1070
25728W        W41862  13.433  11.188  16.396  0.0067  0.1758  0.0573
25729W        W41863  14.365   5.992   3.638 -0.0384  0.1124 -0.0846
25730W        W41864  14.556   7.226   3.305  0.1786 -0.0429 -0.0904
25731W        W41865  17.648   3.585  13.000 -0.2227  0.1245 -0.2430
25732W        W41866  15.828  17.554   1.420 -0.1876  0.2391 -0.2741
25733W        W41867  15.084  12.457  16.504  0.2261  0.0975  0.2332
25734W        W41868   1.931  10.983  13.341  0.0062 -0.1257 -0.0456
25735W        W41869  15.228   0.120  14.583  0.1209 -0.1152 -0.1098
25736W        W41870  10.377  13.292   5.594  0.0271  0.1468 -0.0228
25737W        W41871  15.205   1.570   6.173  0.1027 -0.3246  0.0064
25738W        W41872   8.167   1.406   2.672 -0.0993  0.2260  0.1019
25739W        W41873   9.601  11.805   2.554 -0.4400  0.0910 -0.0100
25740W        W41874  13.780   7.717   2.250 -0.0830 -0.1910  0.1371
25741W        W41875   3.922  13.392   2.393  0.0795 -0.0614  0.2190
25742W        W41876   5.274  16.022   6.340 -0.0875 -0.1458  0.1009
25743W        W41877   5.087   9.022  15.085 -0.1526 -0.0139 -0.3177
25744W        W41878  15.199   2.253  15.577 -0.0769  0.2864  0.0843
25745W        W41879  12.349  14.922   0.321  0.2928 -0.2522 -0.0222
25746W        W41880  14.299  15.553   5.441  0.1507  0.1859  0.2034
25747W        W41881   2.262   2.093   2.620  0.1438 -0.2051  0.0169
25748W        W41882  16.152  11.131   1.826  0.3263  0.2017  0.2233
25749W        W41883  17.377   5.199   1.135 -0.1790  0.0264 -0.1482
25750W        W41884   2.393   4.229  16.311 -0.1180 -0.1343  0.0172
25751W        W41885   2.452   4.390   4.563  0.2201  0.1464  0.0049
25752W        W41886  10.208   6.772   2.739  0.0160 -0.1107  0.0033
25753W        W41887   2.401   1.896   1.842 -0.0588 -0.2709  0.0274
25754W        W41888   4.776   8.090   2.696 -0.0160 -0.2326  0.0141
25755W        W41889   0.990   2.755   5.919 -0.2109 -0.0578 -0.1212
25756W        W41890  11.410   2.566  14.096 -0.3197  0.2050  0.1380
25757W        W41891   7.565   0.437   2.990 -0.0503 -0.3653 -0.0557
25758W        W41892  17.242   3.956   0.508 -0.1554  0.0996  0.1631
25759W        W41893   4.442   4.468  12.123  0.0836 -0.2822 -0.0324
25760W        W41894  13.585  17.569   4.928 -0.0048  0.0297 -0.0358
25761W        W41895   6.952  14.490   3.825 -0.0589 -0.0522 -0.2887
25762W        W41896  15.287   5.136   4.666  0.1067 -0.0349 -0.0455
25763W        W41897  15.697  13.383   1.128  0.1347 -0.1715 -0.1159
25764W        W41898   7.342   2.652  13.269  0.0787 -0.0273 -0.2174
25765W        W41899   4.983   7.448  15.948 -0.2010 -0.0929  0.2347
25766W        W41900  16.520   1.460   5.210 -0.0825 -0.4101  0.1650
25767W        W41901   5.037  14.321  16.952  0.0721  0.3633  0.0052
25768W        W41902   1.720  10.434   3.329 -0.0488 -0.2589  0.0800
25769W        W41903  16.682  16.535   5.832 -0.0945  0.1439  0.0295
25770W        W41904   7.883   3.061   0.854  0.0041  0.1089  0.0658
25771W        W41905  17.158  16.926  16.066  0.0536 -0.0695 -0.2541
25772W        W41906  13.496  13.840   6.263  0.0657 -0.0994  0.1594
25773W        W41907   3.805   7.490  16.418  0.1673 -0.1899 -0.1001
25774W        W41908   7.258  13.109   2.107 -0.1172  0.1082  0.5371
25775W        W41909  12.779  12.368  14.927  0.0045 -0.1967  0.2202
25776W        W41910  14.064  16.771  12.856  0.2397 -0.0651  0.0643
25777W        W41911   6.253  12.040   0.322 -0.0180 -0.0041 -0.0842
25778W        W41912  15.633  13.634   3.873  0.0717  0.0100 -0.3131
25779W        W41913   1.986   6.612  11.004  0.0817 -0.0848  0.1255
25780W        W41914   9.225   6.668  14.792  0.1214 -0.1777  0.3075
25781W        W41915  11.495   7.819  12.539  0.0827 -0.0794  0.4058
25782W        W41916   4.603   2.662   2.990  0.1251  0.0344  0.3849
25783W        W41917  13.690   9.742  10.955  0.0246 -0.0600 -0.2033
25784W        W41918   5.236   8.435  13.449 -0.2037 -0.3461 -0.2292
25785W        W41919  17.114  16.983  14.079  0.3176 -0.1345  0.2596
25786W        W41920   3.919   3.755   4.318 -0.0532 -0.1704 -0.1373
25787W        W41921  10.820  17.041   1.964  0.0699 -0.2140  0.0424
25788W        W41922   0.107  11.459  12.984 -0.0113  0.0608  0.1706
25789W        W41923   0.064  15.795   0.952  0.0619  0.0450 -0.1103
25790W        W41924  13.043  14.070  16.023  0.3562  0.0461  0.0710
25791W        W41925   4.947  13.081   4.837 -0.0193 -0.0506 -0.0178
25792W        W41926  17.256  11.229  14.386  0.2048 -0.0310 -0.0974
25793W        W41927  16.913  14.714  14.894  0.2295 -0.1123  0.0289
25794W        W41928   1.567   4.603  16.521 -0.0128  0.1785  0.0326
25795W        W41929  13.214   8.307  15.329  0.0475 -0.2965  0.1119
25796W        W41930   7.171  12.443  12.556 -0.0735 -0.0713 -0.0156
25797W        W41931   2.689   6.124  16.696 -0.1218 -0.2806 -0.0827
25798W        W41932   1.465   8.316  15.490 -0.0217 -0.0258 -0.0276
25799W        W41933  13.143   2.714   3.851 -0.2115  0.1857 -0.0372
25800W        W41934   4.425   3.899   4.098 -0.0147  0.1095 -0.1304
25801W        W41935   3.588  12.142  15.358 -0.1160  0.0948 -0.0938
25802W        W41936   1.006  10.138  14.639 -0.5181  0.0149  0.0955
25803W        W41937   5.575  14.479  12.636  0.4213  0.2957 -0.1934
25804W        W41938   5.263  13.821  12.094 -0.0991  0.1026  0.0729
25805W        W41939   8.334  10.377  16.623  0.0397  0.0699  0.0606
25806W        W41940  12.128   9.365   3.059  0.4042  0.0412 -0.1931
25807W        W41941   1.085  12.668  13.158 -0.1484 -0.2521  0.2960
25808W        W41942   5.621   7.013   3.768  0.0006 -0.0837  0.2381
25809W        W41943   0.023  14.877  12.929  0.1502 -0.0316  0.0053
25810W        W41944   1.332  16.133  12.284  0.0926 -0.4298 -0.0023
25811W        W41945   7.944   7.766  13.718  0.3189  0.1864  0.0458
25812W        W41946   2.461   9.870  14.287 -0.4302  0.0633 -0.2018
25813W        W41947   2.294   6.213   5.484 -0.0915 -0.1539  0.0012
25814W        W41948  12.065   7.915   1.174 -0.1738 -0.0929  0.1586
25815W        W41949   1.033  10.525  15.101  0.1775 -0.0252 -0.1147
25816W        W41950   8.722   2.222   4.078 -0.0310  0.0229 -0.1470
25817W        W41951  17.230   5.221  12.970  0.1975 -0.0958  0.1421
25818W        W41952  15.704   6.259  16.610  0.2161  0.2943  0.1526
25819W        W41953   9.579   3.515   2.005 -0.1840  0.2092 -0.2948
25820W        W41954   0.982   3.717  13.256  0.0727 -0.0991  0.3859
25821W        W41955   8.043   9.854  16.443 -0.0919 -0.1874  0.1370
25822W        W41956   8.842   8.660   2.495 -0.0908  0.2549  0.1341
25823W        W41957   2.730   5.584  14.816  0.0208  0.2248  0.0261
25824W        W41958   8.143  13.271   1.138 -0.2694 -0.0387  0.1637
25825W        W41959  15.932   2.544  15.597  0.0117  0.1289 -0.0441
25826W        W41960   5.388  13.922   5.946 -0.1246  0.0929 -0.1286
25827W        W41961   5.376  15.758   2.535  0.0520 -0.3515  0.0822
25828W        W41962   1.397   3.015  13.893 -0.2828  0.1677  0.0513
25829W        W41963  11.843   5.269  13.069 -0.0903 -0.0272 -0.1960
25830W        W41964  14.056   9.612  13.848  0.1030  0.3355 -0.1782
25831W        W41965  10.374  10.985   2.522 -0.2375  0.2526  0.1406
25832W        W41966  15.363   4.579   5.408  0.3342 -0.1028 -0.1370
25833W        W41967   8.347   2.032   1.013  0.1398  0.1282  0.0586
25834W        W41968   6.101  15.175   5.688  0.0936  0.2372 -0.0311
25835W        W41969   6.822   3.355  13.522  0.1478  0.1172  0.2079
25836W        W41970  14.727  15.595   5.141  0.1413  0.2109  0.0276
25837W        W41971  17.045  13.275   0.663 -0.1922  0.3651 -0.0183
25838W        W41972   3.724  10.749  16.372 -0.1348 -0.0794  0.2971
25839W        W41973   6.914  11.574   3.766  0.3230 -0.1444  0.0788
25840W        W41974   2.149  11.996   3.105 -0.0040 -0.1045 -0.2374
25841W        W41975   9.988   1.587   4.795  0.0338 -0.3658  0.0846
25842W        W41976   6.606  13.604   3.118 -0.0402 -0.1057 -0.1347
25843W        W41977  14.007   3.545  11.758  0.2560 -0.0612 -0.2145
25844W        W41978   5.530  17.564   2.209  0.1168  0.0397 -0.2172
25845W        W41979   4.793   9.806  15.313 -0.2498  0.1585  0.3131
25846W        W41980   5.585  14.626   4.953  0.2593 -0.2155  0.0389
25847W        W41981  15.569  12.128  15.110 -0.0135  0.0177  0.1631
25848W        W41982  11.356  13.841   5.645 -0.0639  0.1280 -0.1526
25849W        W41983   1.554  13.584  14.749  0.1709  0.0383  0.1326
25850W        W41984   1.694  11.233   3.574  0.1220 -0.4824  0.2016
25851W        W41985   7.481   4.470   2.292 -0.0916  0.0119  0.0831
25852W        W41986   6.141  14.083  13.968  0.1096 -0.0704 -0.1269
25853W        W41987   0.008  15.466   5.844  0.1223 -0.1447  0.1614
25854W        W41988   5.517   3.426   0.077 -0.0315  0.0609 -0.1206
25855W        W41989   2.422   5.465  10.611  0.0325  0.1101 -0.2820
25856W        W41990  13.880   3.339   3.845  0.3874  0.3186  0.2319
25857W        W41991   9.752  16.594  16.972  0.0317 -0.1321 -0.1200
25858W        W41992   3.639   9.416  13.699 -0.1194  0.2046  0.0205
25859W        W41993  13.675   8.585  10.886  0.4024  0.0750  0.0006
25860W        W41994   8.846  14.222   6.018  0.1934  0.1224 -0.0865
25861W        W41995   2.561   4.082  15.634  0.0409 -0.3460 -0.0624
25862W        W41996   3.828  15.154   0.861 -0.0979  0.0263  0.1569
25863W        W41997  17.147   1.528   1.070  0.1658  0.0902  0.1086
25864W        W41998  12.890   7.342   3.428 -0.2314 -0.2666  0.2571
25865W        W41999  10.923  15.587  15.037  0.1160  0.1972  0.1689
25866W        W42000   1.710   6.545  10.592  0.1510  0.1335 -0.4042
25867W        W42001  11.335  13.352   5.826 -0.0696  0.1292  0.2343
25868W        W42002   7.221   0.124  16.587 -0.0822  0.0711  0.0104
25869W        W42003   1.962  11.093  12.239  0.2688  0.0545 -0.0999
25870W        W42004   2.888   8.064  14.405 -0.0280 -0.1857  0.0640
25871W        W42005   1.345   9.424  13.959 -0.3674  0.2609  0.0099
25872W        W42006  15.184  12.196  13.072 -0.2887 -0.0917 -0.1431
25873W        W42007   5.061   0.225   3.518 -0.1533 -0.1478 -0.2516
25874W        W42008   4.055   9.295  16.422 -0.1488  0.0641  0.1103
25875W        W42009   3.356   2.820  13.013 -0.1361 -0.0852 -0.2584
25876W        W42010   7.822  10.075   3.603  0.3919  0.1194  0.1467
25877W        W42011   0.065   3.511  11.708 -0.0458 -0.2561 -0.1444
25878W        W42012   6.351  12.469  15.203 -0.1290  0.3146  0.3374
25879W        W42013  16.685  16.342   5.108  0.0458 -0.1177 -0.2042
25880W        W42014  17.420   3.727  15.335 -0.1051 -0.0317 -0.2007
25881W        W42015   2.208   2.024  16.773 -0.1208  0.2874 -0.1292
25882W        W42016   3.834   3.337   4.676 -0.1850 -0.1970 -0.1845
25883W        W42017   0.660   7.254  14.989 -0.1778 -0.0706  0.1877
25884W        W42018   1.001   2.891  12.829  0.0392  0.0010 -0.0497
25885W        W42019   7.650   7.597   5.897  0.0639  0.0745  0.1171
25886W        W42020  13.943   6.592  16.512  0.1494  0.1780  0.0322
25887W        W42021   5.335   8.894  12.596 -0.2297 -0.0899 -0.1679
25888W        W42022   8.220  15.885   4.714  0.1855  0.1281 -0.1307
25889W        W42023   6.308   0.866   5.620  0.1195  0.2266  0.0039
25890W        W42024  11.483  12.385  12.434 -0.0873 -0.1366 -0.1529
25891W        W42025   0.837   3.326  12.474  0.0618  0.0439 -0.0107
25892W        W42026   1.464   2.062   5.283 -0.1929  0.0972 -0.0420
25893W        W42027   0.127  15.696  14.460  0.1120  0.0848 -0.0259
25894W        W42028   4.971   6.852   1.660 -0.0177  0.0838  0.0716
25895W        W42029   2.618   1.328  14.214 -0.0256  0.1188  0.0584
25896W        W42030  14.118  17.097   0.721  0.2802 -0.0285 -0.0100
25897W        W42031  14.068   1.741   3.092 -0.0575 -0.2210  0.0472
25898W        W42032  16.323   6.704  11.603 -0.4236 -0.0447  0.2958
25899W        W42033  15.623   9.911   4.686 -0.1638 -0.3667  0.0840
25900W        W42034   6.334  12.902   1.976  0.2855 -0.0936 -0.0239
25901W        W42035  17.440   2.253  16.582 -0.1711  0.0355  0.1166
25902W        W42036  13.880   5.397   1.341  0.2195 -0.0485 -0.0129
25903W        W42037   4.842  10.612   3.107  0.1436  0.2663  0.0391
25904W        W42038   8.298  12.342  15.011  0.1661 -0.1391 -0.0590
25905W        W42039   7.749  17.447  14.729 -0.0383 -0.0474  0.0855
25906W        W42040  11.608   1.323  12.846  0.2877  0.2927 -0.2390
25907W        W42041  11.132   7.335   0.877  0.2664 -0.0303 -0.0147
25908W        W42042   5.104  16.827   4.491  0.2089 -0.1960  0.0637
25909W        W42043   7.852  13.362   2.021  0.2062  0.0326 -0.0891
25910W        W42044  17.537  14.673  14.232 -0.1610  0.2026  0.3890
25911W        W42045   9.924  14.907  13.857  0.5243  0.0760 -0.1600
25912W        W42046   0.982  11.667   5.190 -0.1600 -0.0396 -0.0983
25913W        W42047  14.015  13.758  16.648  0.2387 -0.0262 -0.1696
25914W        W42048   0.677  10.053  12.876  0.0339 -0.0864 -0.2447
25915W        W42049   5.298   3.251  13.870 -0.1146  0.2304 -0.0256
25916W        W42050   7.646  14.246  13.305 -0.2453  0.1066 -0.0939
25917W        W42051   8.007  14.058  16.309  0.1493  0.0236 -0.0286
25918W        W42052  11.135   1.240   4.103 -0.1029  0.3249 -0.1043
25919W        W42053  16.095   4.312  15.189 -0.2712 -0.1236 -0.3222
25920W        W42054  12.234   5.995   2.906  0.0646 -0.3413  0.0881
25921W        W42055   1.185   0.009  14.456  0.0886  0.0748 -0.2983
25922W        W42056   9.133   0.407  16.672 -0.0180  0.0585 -0.0027
25923W        W42057   5.466   7.513  16.593 -0.1813 -0.3984  0.3690
25924W        W42058   8.899   8.030  15.951 -0.1657  0.1030  0.1677
25925W        W42059  16.190   5.445  15.258  0.1303 -0.0830 -0.1231
25926W        W42060   1.775  17.573   5.327  0.1707  0.1141  0.1406
25927W        W42061  12.349  13.494   2.087  0.0304 -0.1977  0.1468
25928W        W42062  11.025  15.336  15.807 -0.0056  0.1509 -0.0571
25929W        W42063  10.218   2.147  13.551 -0.2001 -0.1721 -0.2800
25930W        W42064   1.980   8.497  15.427  0.2797  0.0827 -0.0570
25931W        W42065  12.237   6.343   4.675 -0.1898  0.3608  0.1117
25932W        W42066   1.972  15.134   3.918 -0.0252  0.0536 -0.0701
25933W        W42067   2.205   4.935  11.347 -0.0800 -0.2389 -0.1246
25934W        W42068   6.779  13.669  11.268  0.2144  0.2001 -0.2655
25935W        W42069   9.358   2.558   2.273 -0.1840  0.2232 -0.0813
25936W        W42070  16.037  16.017  13.369  0.0809 -0.1762  0.0339
25937W        W42071  10.271  17.327  17.068  0.2253 -0.1262  0.0701
25938W        W42072  13.722  12.839   3.959  0.0189 -0.1342 -0.1870
25939W        W42073  16.669  15.022   3.972  0.0349  0.2242  0.1086
25940W        W42074   6.380  16.241   3.596 -0.0056 -0.0502  0.1737
25941W        W42075   1.270   8.977   0.450 -0.2789 -0.3447 -0.1452
25942W        W42076  14.919   0.904   4.407 -0.1128  0.1746  0.1387
25943W        W42077   9.878  12.484   5.560 -0.1517 -0.2064 -0.1325
25944W        W42078   3.437   1.051   4.590  0.0239  0.2790  0.2572
25945W        W42079  16.599  14.237  15.410  0.1530 -0.1886 -0.0186
25946W        W42080   3.488   2.346   6.778  0.1939 -0.0313 -0.4002
25947W        W42081  12.464   8.792  15.605 -0.0706  0.4349  0.0834
25948W        W42082  12.128  17.185   2.455 -0.0355 -0.1853  0.3227
25949W        W42083  16.870  16.879  12.783 -0.0148  0.2412 -0.1008
25950W        W42084  13.227  11.373   4.154 -0.0855 -0.1918 -0.0909
25951W        W42085  10.226  13.941   5.079 -0.3845  0.0903  0.2182
25952W        W42086  11.417   2.570   0.515  0.2706  0.0448 -0.0876
25953W        W42087  11.680   0.205   0.334 -0.3287 -0.0909 -0.0283
25954W        W42088   5.147   6.556  13.150 -0.1450  0.1393 -0.0384
25955W        W42089  10.804  17.549  16.791  0.0125  0.2735  0.3371
25956W        W42090   7.340   8.430  14.575  0.0237 -0.0388 -0.1090
25957W        W42091  14.640   3.683   3.986  0.2141 -0.0831  0.0509
25958W        W42092   3.648  17.584  13.839 -0.0782  0.1685 -0.0149
25959W        W42093   9.758   5.650  12.316  0.0261  0.2271 -0.0012
25960W        W42094  13.995  14.608   6.566  0.0444 -0.0652  0.1314
25961W        W42095  11.733   0.603   2.508  0.1487  0.1580  0.0951
25962W        W42096  16.500   0.337   0.266  0.2259 -0.2581  0.3476
25963W        W42097   2.096  11.802   1.711  0.1442  0.1352 -0.1309
25964W        W42098   0.120   3.975   0.163 -0.2232 -0.1696 -0.5263
25965W        W42099   3.091   4.337  15.632  0.0741  0.0396  0.1070
25966W        W42100   4.343  16.620   5.567 -0.2142  0.0264  0.2963
25967W        W42101   3.392  13.342  13.815 -0.3478 -0.0432  0.1747
25968W        W42102  12.990   0.275  12.631 -0.2224  0.0676  0.0304
25969W        W42103  10.086   6.765   3.906  0.0231 -0.0637 -0.3001
25970W        W42104   5.394  12.548   3.808 -0.0543 -0.1374 -0.1912
25971W        W42105  11.892  16.411  14.352  0.0722  0.0952 -0.2727
25972W        W42106  14.911  14.618  13.000  0.1330 -0.0493  0.0692
25973W        W42107  14.607  16.681   1.671  0.1315  0.1283  0.2455
25974W        W42108   9.680  13.788   1.222  0.0905 -0.1511 -0.3917
25975W        W42109   4.793   0.096   0.949  0.3334  0.3046 -0.4048
25976W        W42110   1.858  16.261  15.234 -0.1071 -0.1494  0.1983
25977W        W42111   3.759  12.924  16.258  0.4055  0.3609  0.1983
25978W        W42112  10.437   1.315  16.623 -0.1577  0.3087  0.0115
25979W        W42113   9.460  13.973   4.670 -0.0259 -0.1272 -0.0164
25980W        W42114  10.371   8.601   4.567  0.0210 -0.2881  0.0415
25981W        W42115   0.381  13.253   4.529 -0.2411 -0.0413 -0.1121
25982W        W42116   8.211   9.821   4.287  0.0835  0.3022  0.1519
25983W        W42117  16.773  11.487  14.992 -0.1231  0.0851 -0.0562
25984W        W42118   8.110  13.571   3.993  0.0544  0.1537 -0.1501
25985W        W42119  16.633  10.729   5.416  0.0259  0.1286  0.1938
25986W        W42120   4.480   6.726   5.366 -0.0493 -0.2002  0.1380
25987W        W42121   0.417   9.074  16.703  0.1466  0.0374 -0.4077
25988W        W42122   9.459   7.558  13.795 -0.2119 -0.1089  0.1822
25989W        W42123  17.278  12.618  12.249 -0.0668  0.3972  0.3971
25990W        W42124   7.004   1.326  16.684  0.0927  0.0245 -0.0260
25991W        W42125   4.215   2.542   2.686  0.0447 -0.1644 -0.1383
25992W        W42126  13.737  10.129   2.708 -0.2477  0.1244  0.0259
25993W        W42127  15.703   7.764  14.850  0.0132 -0.0094 -0.2860
25994W        W42128   6.484   0.445   0.525  0.2795  0.2565 -0.1364
25995W        W42129   0.743   9.798   0.500  0.2873 -0.2392 -0.0834
25996W        W42130  12.718   6.218  13.190 -0.6878 -0.1669 -0.1617
25997W        W42131  12.240  12.573  11.459  0.0783 -0.1502  0.2689
25998W        W42132  16.144   0.741  15.860  0.1571 -0.1228 -0.0236
25999W        W42133   2.499   0.466   6.498  0.2501 -0.0037 -0.1447
26000W        W42134   0.838  13.890   5.585  0.1008 -0.1867 -0.3120
26001W        W42135   7.940  13.490  13.825  0.2782  0.3721 -0.1902
26002W        W42136   2.518   8.677   3.820  0.1879  0.0115  0.2291
26003W        W42137   8.362   3.670  16.325  0.1686 -0.1969  0.1729
26004W        W42138   0.095  12.250  17.111  0.1642 -0.1401 -0.0752
26005W        W42139   7.631   9.157   5.183  0.0999  0.1710 -0.0474
26006W        W42140  16.554  13.830   2.062 -0.1253  0.0785  0.1874
26007W        W42141  15.906   9.508  11.388 -0.3482 -0.1885 -0.3234
26008W        W42142   2.487  10.073  17.095 -0.2915 -0.0691  0.0295
26009W        W42143  11.534   3.162  12.078 -0.4444 -0.1805  0.2169
26010W        W42144   1.360  13.387   2.511 -0.0415 -0.0454 -0.0304
26011W        W42145   0.618   8.751  13.754  0.3056 -0.0946  0.2734
26012W        W42146  11.081   5.193   3.794 -0.2689 -0.0533 -0.2336
26013W        W42147  13.678  17.114   4.568 -0.1246  0.0154  0.0291
26014W        W42148  10.391   9.770   2.677 -0.0340 -0.2708 -0.1147
26015W        W42149   6.469  14.458   2.979 -0.1371  0.0374  0.2341
26016W        W42150  13.438  16.291   0.605  0.1728  0.1375  0.0786
26017W        W42151   6.725   5.046  17.078  0.2014 -0.0724  0.0056
26018W        W42152   4.894   0.366   6.180 -0.0607 -0.0890 -0.2157
26019W        W42153   9.277  14.195  16.766  0.5253 -0.3684  0.1855
26020W        W42154   6.968   9.813   0.813 -0.0088  0.0811 -0.2036
26021W        W42155  12.953   4.786   4.485  0.2911 -0.0402  0.1093
26022W        W42156  12.467  15.412   0.458  0.1075 -0.0183 -0.0975
26023W        W42157   6.692   0.718  14.970  0.2513 -0.2205  0.0245
26024W        W42158   5.231   6.088   1.896 -0.1692 -0.1985 -0.1350
26025W        W42159  11.855   5.594  14.022  0.0297  0.1994  0.1089
26026W        W42160  11.103  14.647  15.067 -0.3261  0.0032  0.1766
26027W        W42161  12.733  10.771  13.265  0.1450 -0.0139  0.0871
26028W        W42162  17.464   5.017   4.513 -0.1143 -0.0676  0.0707
26029W        W42163   6.226  16.036   5.395  0.1056  0.1706 -0.2013
26030W        W42164   4.559   2.844   5.194  0.3115  0.2760  0.1247
26031W        W42165  14.298  12.927   1.485 -0.3163 -0.1795 -0.3506
26032W        W42166   4.049   2.841  12.386  0.0402  0.2983  0.0681
26033W        W42167  10.479  10.502  15.157  0.1666 -0.2864  0.1593
26034W        W42168   2.452   4.457   1.546 -0.1046  0.1379  0.0625
26035W        W42169  10.192   5.728   1.095  0.1196  0.1830  0.1034
26036W        W42170  12.694   4.088   3.478  0.1072  0.0580 -0.2159
26037W        W42171  17.549   5.589  13.626 -0.0481  0.2653  0.1682
26038W        W42172   6.727   9.985   2.512 -0.1784  0.1344  0.0532
26039W        W42173   8.949   2.088  11.966 -0.3218 -0.0832 -0.1923
26040W        W42174   0.772  10.733   0.195 -0.0384  0.0258 -0.3450
26041W        W42175   6.110  12.903  15.140  0.0143  0.0189 -0.0227
26042W        W42176   0.853  15.484   0.846  0.0185  0.2706  0.0244
26043W        W42177  12.531   2.249  12.896  0.0073 -0.1458 -0.1372
26044W        W42178  11.685   2.952   4.928  0.4378 -0.0602 -0.1207
26045W        W42179   7.834   6.144  12.368 -0.2181  0.0986 -0.2984
26046W        W42180  11.723   4.793  11.131  0.1347 -0.3639 -0.0856
26047W        W42181   0.137  16.097   4.307  0.1730  0.0704 -0.4149
26048W        W42182   5.437   2.616  14.431  0.2212 -0.0346  0.2606
26049W        W42183   7.369  14.180  12.812 -0.0485  0.0601  0.1932
26050W        W42184   7.087  16.282   0.427  0.0280  0.1211 -0.0907
26051W        W42185   8.965   4.957   3.418  0.1241 -0.2189 -0.2379
26052W        W42186   3.388  13.075   2.329 -0.0710 -0.3370 -0.0317
26053W        W42187  10.382   3.485  13.553 -0.0291 -0.3676  0.0300
26054W        W42188   5.327   7.393   5.357 -0.1308  0.1466 -0.2583
26055W        W42189   5.852  15.462  14.690  0.2610 -0.0308 -0.0855
26056W        W42190   2.844   1.690   0.704 -0.0367  0.0735  0.0737
26057W        W42191  16.239   0.791  14.129 -0.0238 -0.2309  0.1907
26058W        W42192   9.151  13.963   2.918 -0.0172 -0.0278  0.1641
26059W        W42193  14.803   5.826   1.040 -0.0281  0.1632  0.0011
26060W        W42194  11.748   7.294  11.663 -0.4032  0.0305 -0.1763
26061W        W42195   1.557  16.509   2.452 -0.3052  0.0991 -0.2759
26062W        W42196   1.053   8.431  13.763 -0.0438 -0.0508 -0.0130
26063W        W42197  14.344   7.126   1.246 -0.0484  0.0928 -0.0338
26064W        W42198   8.014  13.641   3.456  0.2816 -0.2069  0.0846
26065W        W42199  16.919   1.827  14.918  0.1348 -0.0368 -0.1647
26066W        W42200  12.591   5.672  15.244 -0.0898  0.0447  0.0310
26067W        W42201   9.333   8.661   2.678  0.0178  0.1161 -0.2295
26068W        W42202  11.822  14.321   4.944  0.2919 -0.3761  0.3534
26069W        W42203  10.564   3.515  17.177 -0.3444  0.0837  0.3072
26070W        W42204   3.384  17.284  16.600  0.1837 -0.2743  0.0828
26071W        W42205   8.776  12.767  11.629 -0.1155 -0.1830 -0.1431
26072W        W42206   2.591  17.192   3.153  0.4525  0.3107  0.2815
26073W        W42207   4.526   8.403  16.375 -0.0315 -0.0406  0.1231
26074W        W42208   7.627  17.221  16.054 -0.1211 -0.0360  0.1981
26075W        W42209  10.399   2.073  15.996 -0.2451  0.1845 -0.1335
26076W        W42210   4.582   2.810  13.703 -0.2610 -0.1124 -0.1524
26077W        W42211   8.101   9.181  12.102  0.2606  0.0219 -0.1389
26078W        W42212   9.671   2.037  15.910  0.0360  0.0424  0.0788
26079W        W42213  13.355   2.202  13.863 -0.0844 -0.2394 -0.2996
26080W        W42214   4.610  17.381  14.808  0.2170 -0.4202  0.0253
26081W        W42215   4.519   1.922  15.003  0.4012 -0.1344 -0.1125
26082W        W42216   3.550   6.669   4.083  0.0421 -0.0943  0.1877
26083W        W42217   5.740   5.368   4.439  0.1784  0.0064 -0.0736
26084W        W42218  12.074  10.238  12.135 -0.1101 -0.3423 -0.2043
26085W        W42219  15.978  13.787   1.906  0.1608  0.1141 -0.0730
26086W        W42220  12.238   4.697   4.961  0.2363  0.0278 -0.0612
26087W        W42221  13.685  15.279  15.648 -0.0599 -0.0556 -0.0579
26088W        W42222  14.766   8.369  14.396  0.2232  0.0913 -0.0869
26089W        W42223  10.393   0.154   2.274  0.1084  0.5057  0.1430
26090W        W42224   5.659  10.618   5.676 -0.1805 -0.0501 -0.0031
26091W        W42225   5.196  15.724  12.304 -0.0244 -0.0873 -0.2851
26092W        W42226   4.277   7.923   4.807  0.1798  0.0451 -0.0072
26093W        W42227  11.457   5.442   5.699 -0.2483  0.1557 -0.0438
26094W        W42228   0.315   2.138   3.912 -0.0654 -0.2902  0.2023
26095W        W42229  10.466   3.041  17.043 -0.1286  0.1845 -0.0726
26096W        W42230  17.339  11.022   3.562 -0.1993  0.1503  0.2762
26097W        W42231   3.952  17.302  15.460 -0.3657  0.0366  0.2345
26098W        W42232   8.077   6.675  13.644  0.1737  0.0082 -0.1315
26099W        W42233  14.357  10.071   5.359  0.0297  0.0025  0.2013
26100W        W42234  12.755   6.952  15.065 -0.0315  0.0907  0.0533
26101W        W42235   0.921   5.732  11.447  0.0771  0.3650  0.0112
26102W        W42236  15.728   8.605   4.280 -0.1504 -0.0774  0.1943
26103W        W42237   3.566  14.757  11.944  0.1212 -0.3205  0.0597
26104W        W42238   9.407   1.887  16.458  0.0284  0.0506 -0.1011
26105W        W42239  11.691   8.564   1.565 -0.1910 -0.1483  0.4305
26106W        W42240   3.702  14.060   3.369  0.1302 -0.0366 -0.0346
26107W        W42241   3.227   1.614   2.849 -0.3057 -0.0321 -0.0950
26108W        W42242  11.686   8.110  12.906  0.0928 -0.0515 -0.0631
26109W        W42243   4.958  10.249  16.373  0.2000 -0.1590  0.1153
26110W        W42244   9.872  16.069   3.719  0.3007 -0.3476 -0.2117
26111W        W42245   4.964   8.227  17.012 -0.0348  0.1172  0.2823
26112W        W42246   3.628   9.293  13.030  0.2481 -0.2572  0.2843
26113W        W42247   0.464  12.974  11.738 -0.1219  0.2156  0.1977
26114W        W42248  15.031   5.598  15.385 -0.3136 -0.0438 -0.0082
26115W        W42249  17.195  13.646  13.338  0.1347  0.1730 -0.0575
26116W        W42250  13.902   6.617  13.422 -0.1571 -0.0606 -0.0797
26117W        W42251  15.935   0.896   1.181 -0.1925  0.0797 -0.2191
26118W        W42252   6.166   0.903  13.604  0.1891 -0.1234 -0.0093
26119W        W42253   1.549  11.333   2.243  0.2761 -0.1988 -0.2512
26120W        W42254   8.562   3.591   3.300 -0.2655  0.0922 -0.1564
26121W        W42255   2.657  14.363  14.625  0.0663 -0.1913 -0.0365
26122W        W42256  12.090   4.918   2.933 -0.0898  0.0460  0.2679
26123W        W42257  14.745  16.213   4.304  0.2356 -0.0294  0.0563
26124W        W42258   6.588  11.157   3.873 -0.0696  0.1497  0.2808
26125W        W42259   5.547   2.444  15.202  0.1890 -0.0007 -0.0702
26126W        W42260   2.684  12.243  13.939 -0.0989  0.2474 -0.2215
26127W        W42261  11.694   0.091  16.624  0.0557  0.2970 -0.0688
26128W        W42262  17.265   4.659  15.121 -0.0231  0.0214  0.1243
26129W        W42263   1.500  16.890  14.739 -0.0752 -0.1188  0.1037
26130W        W42264  16.522   2.172  13.779  0.1294  0.2804 -0.0106
26131W        W42265  10.291  15.323   2.479 -0.1081  0.2513 -0.0592
26132W        W42266   7.636   7.996  14.655 -0.0949  0.2675 -0.3710
26133W        W42267   7.537   9.796  16.105  0.2918  0.1027 -0.1132
26134W        W42268   5.470   2.512  13.567 -0.1193  0.0250 -0.0108
26135W        W42269   0.840  16.205   0.252  0.1842  0.0553  0.0895
26136W        W42270   5.892   2.644  14.608 -0.0651 -0.4115 -0.3869
26137W        W42271  17.615  16.950  14.130 -0.1152  0.0916 -0.0921
26138W        W42272  17.078   4.707   2.478  0.1982  0.3371 -0.0263
26139W        W42273  16.816   6.068   2.512  0.0895 -0.1184  0.0171
26140W        W42274   2.742  16.966  15.587 -0.0884  0.0937 -0.0898
26141W        W42275   9.449   3.316  12.533  0.5147 -0.3445  0.0192
26142W        W42276   6.563  13.884   3.663  0.1296 -0.1068  0.2850
26143W        W42277   2.997  12.733  12.910 -0.1028 -0.0151 -0.1982
26144W        W42278   6.380  12.381  17.177  0.2225 -0.2479 -0.0412
26145W        W42279  15.206   4.552   1.002  0.2300 -0.1635 -0.2562
26146W        W42280  12.824  15.178  16.436  0.1498  0.0537  0.1812
26147W        W42281  11.151  14.351  15.819  0.3157 -0.0424  0.0939
26148W        W42282  10.177   5.337  13.299 -0.0644 -0.0796  0.0191
26149W        W42283  11.225   5.401  16.522  0.2698  0.1396 -0.3741
26150W        W42284   4.941   0.896   6.030  0.1274  0.1126 -0.1147
26151W        W42285   4.671  11.675  16.864 -0.1165 -0.0627  0.2178
26152W        W42286   0.704   9.747  14.679 -0.0966 -0.0096 -0.0652
26153W        W42287  14.488   2.686   5.785  0.2135  0.3019  0.0534
26154W        W42288   2.722  11.406   0.910 -0.0161  0.0251  0.1687
26155W        W42289   7.280  14.432  14.715 -0.1052  0.1235  0.1971
26156W        W42290  12.846   8.411   0.846 -0.1059 -0.2358  0.0271
26157W        W42291  10.222  10.438  14.703 -0.0743 -0.1065 -0.0599
26158W        W42292   2.370  10.763  12.437 -0.1167 -0.1957 -0.0459
26159W        W42293   7.195  17.310  14.132  0.0543  0.0112  0.2123
26160W        W42294  15.474   2.185  12.476 -0.5139 -0.2042  0.0473
26161W        W42295   2.832   5.580   0.770  0.0091 -0.1976 -0.1517
26162W        W42296  12.025  14.790   5.120  0.2510  0.0933 -0.2174
26163W        W42297   5.493   5.339   5.703  0.3148 -0.0245 -0.0351
26164W        W42298   6.101  12.941  16.661  0.1370 -0.0864  0.0452
26165W        W42299  10.541   3.278   5.191  0.3713  0.0972  0.2394
26166W        W42300   2.279  13.440   3.232  0.0467  0.1408 -0.2491
26167W        W42301   1.393   8.597   1.984  0.1252 -0.0983 -0.1077
26168W        W42302   4.432  16.911   4.488 -0.0797 -0.0108 -0.0127
26169W        W42303  14.713  11.484   4.041 -0.1587 -0.0617  0.0114
26170W        W42304   8.098   1.596   4.899 -0.2497  0.1695  0.1779
26171W        W42305   4.362   6.005  15.938  0.0138  0.0927 -0.1589
26172W        W42306   1.362   0.473   1.119  0.0021  0.1596  0.2252
26173W        W42307  14.586  16.814   3.443 -0.3285  0.0367 -0.2295
26174W        W42308  14.637  13.199   3.325  0.2290 -0.3061 -0.1948
26175W        W42309   2.353   5.672  11.474 -0.4271  0.0788  0.0238
26176W        W42310   4.368  11.823   2.660  0.1909 -0.0606  0.1604
26177W        W42311   8.541   4.422   4.543 -0.1403  0.2180  0.0630
26178W        W42312  11.998   1.529  15.515  0.3165  0.1592 -0.0059
26179W        W42313  14.776  15.570   0.774  0.1861 -0.0848 -0.0998
26180W        W42314   8.849   2.716  12.506 -0.0198  0.2000  0.1001
26181W        W42315   0.203  11.735   0.644  0.0096 -0.0343 -0.1911
26182W        W42316  13.414   7.522  13.809  0.0190 -0.1898 -0.0233
26183W        W42317   0.956   9.251   4.907  0.2307  0.2149 -0.1897
26184W        W42318  10.900   6.828  16.919  0.1238 -0.0838 -0.4866
26185W        W42319   7.294  11.338   5.348  0.2667 -0.0560  0.0858
26186W        W42320   2.179   3.526   4.790 -0.1344  0.1541  0.1445
26187W        W42321   0.317   2.900   0.825  0.2235  0.1228 -0.2209
26188W        W42322  11.224   6.761  13.555  0.0201 -0.0743 -0.3439
26189W        W42323  13.672  10.257  17.090  0.0391 -0.0059 -0.0703
26190W        W42324  16.823  12.871  12.964  0.2923  0.0322 -0.1038
26191W        W42325  10.154  16.099  15.071 -0.1188  0.0186 -0.0931
26192W        W42326   0.534  15.843  12.455  0.2952  0.0547  0.0143
26193W        W42327  16.715   5.326  12.355 -0.1140 -0.0628  0.0165
26194W        W42328  11.010  13.528  13.980 -0.0130 -0.0607  0.0967
26195W        W42329  11.655  12.246  15.489 -0.0307 -0.1083 -0.0044
26196W        W42330   5.189  14.904  15.132 -0.0131  0.2077  0.0781
26197W        W42331  13.798  13.763  15.343  0.0206 -0.3357  0.1971
26198W        W42332  17.211  13.030   1.224 -0.3262 -0.1615 -0.0205
26199W        W42333   8.458   7.817  12.076 -0.0033  0.2503  0.1078
26200W        W42334  16.975   1.618  13.251  0.0807 -0.0006  0.0484
26201W        W42335   6.854  16.889   4.663 -0.0499  0.0263 -0.0328
26202W        W42336  16.987  14.153   2.233  0.1840  0.0803 -0.0204
26203W        W42337  12.880  12.912   1.673  0.0579  0.1243  0.0730
26204W        W42338  10.951   5.183  14.421 -0.2096  0.1174 -0.0967
26205W        W42339  11.991   8.927   5.298 -0.1970  0.0760 -0.1056
26206W        W42340  11.016   2.077   1.410  0.0811  0.1444 -0.1658
26207W        W42341  12.287   7.493  11.031  0.0980  0.0973  0.2089
26208W        W42342  16.021   6.498   3.750  0.0123 -0.1552 -0.0008
26209W        W42343   7.211   2.921   3.513  0.0487 -0.1582  0.1790
26210W        W42344   6.554  11.680   5.163 -0.2591 -0.3467 -0.1373
26211W        W42345   9.770   3.736   3.861  0.2281 -0.0867  0.1024
26212W        W42346   4.170   4.102   2.378  0.1019 -0.0214  0.1591
26213W        W42347   6.986  15.008   3.954  0.0174 -0.3061  0.4098
26214W        W42348  13.897  15.231   1.246 -0.2956  0.2286 -0.1460
26215W        W42349   2.501   0.426   4.886  0.2991 -0.1361 -0.1938
26216W        W42350   9.438   1.316   5.111  0.1689 -0.3607  0.1362
26217W        W42351  13.245  14.370   2.526  0.0820 -0.0696  0.1462
26218W        W42352  12.899   1.517   4.693  0.2091  0.1742 -0.0819
26219W        W42353   2.132   3.291   3.263 -0.0488 -0.2006  0.3877
26220W        W42354  10.777  15.355  14.468  0.4621 -0.0598 -0.1329
26221W        W42355   9.914  13.775   1.928 -0.0688 -0.1492  0.2881
26222W        W42356  16.084  11.332  13.694  0.2461  0.0384 -0.1823
26223W        W42357  11.002  12.635  12.483  0.1571 -0.0512 -0.1777
26224W        W42358   9.790   8.026  15.689  0.0600  0.2450  0.2687
26225W        W42359   5.780  13.774  12.916  0.0573  0.2152  0.1922
26226W        W42360   5.443   3.702   2.543 -0.0256  0.0253  0.1378
26227W        W42361   9.041   2.704   5.290  0.1568  0.3331  0.0650
26228W        W42362  14.636   2.429  12.999 -0.1382 -0.0647 -0.3330
26229W        W42363   8.742   0.726   4.065 -0.2764 -0.0157  0.0530
26230W        W42364   0.868  11.662  14.709 -0.0296  0.0791 -0.0209
26231W        W42365   1.077   3.407   2.041  0.0616  0.2943  0.0182
26232W        W42366  14.290   8.078  12.972  0.2948  0.0932 -0.1678
26233W        W42367   7.756   5.024  12.946 -0.2425 -0.0672  0.1015
26234W        W42368   3.702  15.885  16.888  0.1596  0.0952  0.1333
26235W        W42369   5.477  17.616  12.710  0.1472 -0.1521 -0.0367
26236W        W42370  12.217   7.684  14.762 -0.0472  0.1957  0.2713
26237W        W42371  16.948   7.977   2.974  0.1772 -0.0090  0.1888
26238W        W42372   1.989  11.151  13.852 -0.1627  0.1676  0.1308
26239W        W42373   0.127  13.417  16.598 -0.0897  0.1795  0.1378
26240W        W42374   7.026   5.927   3.200 -0.4873  0.4702  0.1020
26241W        W42375   9.546  17.271   0.763  0.2380  0.0929  0.2070
26242W        W42376  16.434  16.089  16.467 -0.0729 -0.4164 -0.1660
26243W        W42377   9.453  12.797   0.015 -0.2519 -0.1456  0.1569
26244W        W42378   3.468   4.944   0.445  0.0169 -0.1530 -0.0318
26245W        W42379   5.856  17.048   0.406  0.1068  0.0249  0.0001
26246W        W42380  10.130   6.167  16.455  0.1198  0.0524  0.1116
26247W        W42381  13.978   8.784  13.244  0.0935 -0.1384  0.1036
26248W        W42382   3.712  10.536   5.807  0.1705 -0.0689 -0.1298
26249W        W42383  14.912   6.747  16.833  0.3287  0.2369 -0.2915
26250W        W42384  15.087   4.185   5.144 -0.1291 -0.2017 -0.0141
26251W        W42385   9.596  10.431   3.473 -0.3097 -0.0696  0.0080
26252W        W42386   7.737   7.068  11.723 -0.0128  0.0500  0.0907
26253W        W42387   3.771   2.196   0.593 -0.0499  0.0882  0.0578
26254W        W42388  10.520  11.506   4.840  0.1286  0.1227 -0.0262
26255W        W42389  10.580  14.012   2.999 -0.0026  0.2588  0.2953
26256W        W42390   0.044   6.299  10.564  0.0384  0.1846  0.0066
26257W        W42391  15.068   0.045   4.132  0.2336 -0.2596  0.4855
26258W        W42392   6.300   4.157  16.493  0.0803 -0.2825 -0.0177
26259W        W42393  12.446  16.569  15.254 -0.2884  0.0400 -0.2500
26260W        W42394   0.560  17.612   6.376  0.2225  0.2701 -0.0903
26261W        W42395  13.701   0.484  16.815 -0.2449 -0.3807 -0.1113
26262W        W42396   9.078  17.005   5.249  0.1771 -0.1438  0.2167
26263W        W42397   7.281  16.428  16.273  0.0663  0.1057 -0.1815
26264W        W42398   9.118   9.831  13.820  0.1128 -0.1907  0.2919
26265W        W42399   6.687   3.590   3.169  0.2585  0.1921  0.0803
26266W        W42400   2.575  13.252  16.219 -0.0013  0.1875 -0.1256
26267W        W42401  13.617  12.102   3.004 -0.1650  0.1206 -0.0685
26268W        W42402  14.901   2.376   3.898  0.0038  0.2268  0.0034
26269W        W42403   4.555   9.982   5.657 -0.1636  0.2403  0.1207
26270W        W42404   0.693  10.994   1.477 -0.0241  0.1481 -0.0370
26271W        W42405  14.834   5.941  13.145 -0.1780  0.1092  0.1041
26272W        W42406   2.029   4.571   2.018 -0.0155 -0.0566  0.1770
26273W        W42407   2.638  14.926  15.355 -0.1941 -0.1530 -0.1156
26274W        W42408   1.832   3.892   5.008  0.1729 -0.0638  0.4717
26275W        W42409  10.394  17.091   1.666 -0.0410  0.2287  0.3040
26276W        W42410   0.450  12.883   4.870  0.2167 -0.2742  0.1680
26277W        W42411  17.133   2.704  13.144 -0.0749  0.1855 -0.3401
26278W        W42412   7.008   0.745   1.510 -0.1227 -0.0309 -0.0572
26279W        W42413  13.496  11.263   1.862 -0.2805 -0.1935 -0.1918
26280W        W42414   9.554   8.033   0.285  0.0392  0.0538 -0.0175
26281W        W42415   8.589  13.439   3.241  0.2290  0.0661  0.0241
26282W        W42416  14.273   5.897   1.012  0.0772  0.2662  0.2112
26283W        W42417   4.975   6.918   5.357  0.0521  0.0542  0.0577
26284W        W42418   8.968  10.439  14.723  0.0606  0.1887 -0.0280
26285W        W42419   7.779  16.155  16.891  0.1058 -0.0361  0.4629
26286W        W42420  12.935  13.114  14.455 -0.0100 -0.1857 -0.2790
26287W        W42421   4.617   7.038   3.586  0.2742 -0.0401  0.0403
26288W        W42422   1.143  11.348   3.424  0.2156  0.1893  0.0776
26289W        W42423   0.512   3.012  12.632 -0.4003 -0.0499 -0.1505
26290W        W42424   9.016  13.583  15.412 -0.0230 -0.3054 -0.0496
26291W        W42425  12.190   5.355   2.151  0.2570 -0.3212  0.0833
26292W        W42426   6.390   2.782  16.649  0.1195  0.1127  0.1292
26293W        W42427   6.214  15.701   3.597  0.0686  0.0124 -0.1913
26294W        W42428   2.880   2.561   4.239 -0.2652  0.2621  0.0117
26295W        W42429  16.892  15.134   5.441  0.1078 -0.1969 -0.0368
26296W        W42430  12.807   0.249  15.411  0.1043  0.0703  0.0376
26297W        W42431  13.012  13.112   2.417 -0.1043 -0.1806 -0.2135
26298W        W42432  14.915  17.090   2.576  0.1656  0.1792 -0.0919
26299W        W42433  10.665   8.798   2.666 -0.1118 -0.2122  0.0469
26300W        W42434  15.382  13.909  13.572 -0.1188  0.0519  0.0028
26301W        W42435   7.348  12.327  12.085 -0.2529  0.5494  0.0938
26302W        W42436  12.993   8.492   1.765 -0.0562  0.1667 -0.2754
26303W        W42437   4.686  11.815  12.685 -0.0217  0.3758  0.1646
26304W        W42438  10.042   6.228  13.581  0.1090  0.1609 -0.0993
26305W        W42439  12.538   3.230   3.973 -0.2675  0.0292 -0.0440
26306W        W42440   6.941  10.005   0.195  0.0937  0.0192  0.1358
26307W        W42441  10.195  16.670  15.180  0.3224 -0.0418 -0.2929
26308W        W42442   1.717  13.969  16.748  0.1007 -0.1441  0.1540
26309W        W42443   2.267  12.129   3.586 -0.0269  0.0914 -0.3187
26310W        W42444   6.640   5.155  14.226  0.2088  0.0042 -0.0769
26311W        W42445  16.347  14.973   5.217 -0.0457 -0.0421 -0.1205
26312W        W42446  12.977  14.603   4.169 -0.3412  0.0685  0.2555
26313W        W42447  15.733   0.186  16.362  0.0479 -0.0665  0.1712
26314W        W42448  14.345   0.784   3.288 -0.1729 -0.0300 -0.3021
26315W        W42449   8.504  14.208  12.384 -0.1684  0.2464 -0.0196
26316W        W42450  13.559   4.107   2.442 -0.1880 -0.0306 -0.0652
26317W        W42451   8.425  15.812  14.972  0.3259 -0.2655 -0.1724
26318W        W42452   7.796   5.429  14.766 -0.0103  0.2827 -0.0611
26319W        W42453   1.400  14.223   2.548  0.0869 -0.1512 -0.1170
26320W        W42454   5.518   1.113   6.616 -0.1981 -0.2649 -0.1504
26321W        W42455   1.542   4.375   3.642  0.0054 -0.1291 -0.0437
26322W        W42456   5.797   8.602  12.149 -0.1979 -0.1981 -0.0694
26323W        W42457  17.099   3.049  14.394  0.3952  0.1267 -0.5003
26324W        W42458   8.075   3.085   2.043 -0.3742  0.0814 -0.2154
26325W        W42459  16.942   4.321   0.229  0.0292  0.1633 -0.1506
26326W        W42460   8.346   7.810   3.035 -0.2542 -0.0817  0.1624
26327W        W42461   3.377  12.040   0.028  0.1892 -0.0715 -0.0829
26328W        W42462  16.288   2.340   1.429 -0.4041 -0.4785  0.0846
26329W        W42463  17.473  15.978   3.996 -0.1200  0.0615  0.1575
26330W        W42464   7.927   4.402  16.941 -0.2368  0.1442  0.3442
26331W        W42465   1.917   8.348  15.903 -0.2282  0.1639 -0.0708
26332W        W42466  10.362  11.187  14.146  0.2014 -0.1358  0.0433
26333W        W42467   8.117   6.266  17.052 -0.1354 -0.0911  0.0816
26334W        W42468  11.248   6.582   4.995 -0.0958  0.1468 -0.3600
26335W        W42469   6.027   3.131  13.913 -0.1281 -0.0215 -0.0368
26336W        W42470   3.768   6.241  14.340  0.0405  0.0700  0.5087
26337W        W42471   9.121   5.589  14.389  0.0039  0.0728 -0.0071
26338W        W42472  13.778   8.341  13.297 -0.1738  0.0180  0.0022
26339W        W42473   9.090   8.437   4.633  0.1179  0.0212 -0.0937
26340W        W42474  12.816   2.273  12.436  0.2332 -0.1623  0.0131
26341W        W42475   8.298   4.251   3.584 -0.2849  0.2826 -0.0468
26342W        W42476  17.261   7.306   1.400  0.2408  0.6304  0.3122
26343W        W42477   9.882   3.879   2.677 -0.0124 -0.2044  0.0529
26344W        W42478  10.406   1.708  16.339  0.0616  0.0562  0.0474
26345W        W42479  14.781   6.811   1.414  0.0199  0.1147  0.2516
26346W        W42480  10.920  13.775   6.282  0.0450  0.0502 -0.2399
26347W        W42481   1.434   3.031  14.659 -0.1241 -0.0780 -0.1823
26348W        W42482   3.626   1.607  14.481  0.0882  0.0244  0.1004
26349W        W42483  15.527   9.624   2.041 -0.1404 -0.2091 -0.1497
26350W        W42484   9.739   6.740   1.276  0.0952 -0.0553 -0.1314
26351W        W42485   4.730   3.568  14.258  0.1264 -0.1429 -0.1714
26352W        W42486   3.478   4.173   1.105  0.1549  0.4845  0.0601
26353W        W42487  16.272   8.214   5.368  0.0139  0.0892 -0.0735
26354W        W42488   0.190  16.824   1.820 -0.2585  0.1082 -0.0805
26355W        W42489   2.363  14.205  15.907 -0.0657 -0.1818 -0.0878
26356W        W42490  15.323   0.289   0.425 -0.0516 -0.0006 -0.1204
26357W        W42491  11.621  10.760  12.902  0.1074  0.0496 -0.1771
26358W        W42492  13.021   8.511  11.728  0.2779 -0.1110 -0.0542
26359W        W42493   0.485   4.380  15.778 -0.0423  0.0168  0.0513
26360W        W42494  12.699   2.757  11.288 -0.2093 -0.0647 -0.1295
26361W        W42495  13.934   8.106  15.029 -0.1578  0.0998  0.2009
26362W        W42496   1.140   2.481   2.155 -0.3049 -0.1847  0.3761
26363W        W42497  16.886   6.253  14.878  0.4931 -0.1874 -0.3230
26364W        W42498   7.524   9.416   5.747 -0.0276  0.1544  0.2723
26365W        W42499   5.610  15.301  13.807  0.0634  0.0155  0.1014
26366W        W42500  15.508  16.942  14.726 -0.1684  0.0830 -0.1712
26367W        W42501   5.705  15.810   4.199  0.3903  0.1801 -0.2497
26368W        W42502  12.156  10.197  16.463 -0.0008  0.2453 -0.0568
26369W        W42503   6.127   7.369  12.773 -0.1515  0.0375  0.2127
26370W        W42504  16.794   6.530  11.731  0.1550 -0.2544  0.1711
26371W        W42505   4.869   2.501   0.294  0.1174  0.0175  0.4852
26372W        W42506  17.376  14.777   0.987  0.1313 -0.3132  0.2110
26373W        W42507   8.451   0.495  11.841  0.0427  0.0744 -0.0668
26374W        W42508  17.566   9.675   1.805 -0.1614 -0.0179  0.0429
26375W        W42509  17.652   2.990   5.172 -0.0623 -0.0422  0.0145
26376W        W42510  12.953  14.668   1.994 -0.0714  0.1725  0.0561
26377W        W42511   2.404  13.459  14.472  0.1153 -0.2827 -0.0641
26378W        W42512  11.544   8.858  15.701  0.0576 -0.0717 -0.2478
26379W        W42513   3.577   6.452  15.145 -0.1776 -0.0267 -0.0185
26380W        W42514   3.777   9.895  13.820 -0.0380 -0.3665  0.0112
26381W        W42515  14.667   5.927   3.257 -0.2190 -0.3017 -0.1798
26382W        W42516   5.469   6.124  13.125 -0.1737  0.0419  0.0577
26383W        W42517   7.529   0.934  13.150 -0.0440 -0.1574 -0.0688
26384W        W42518   8.918  10.544   4.211  0.0405 -0.0294 -0.1147
26385W        W42519   7.143  13.021  13.704  0.0880 -0.0848  0.1224
26386W        W42520   6.050  14.119   3.685 -0.0356 -0.0138  0.0344
26387W        W42521   3.890  15.648  14.672 -0.1600  0.2768  0.4015
26388W        W42522   5.253  12.220   5.751 -0.2602 -0.3028  0.1792
26389W        W42523   5.992   2.910   1.770 -0.0060  0.0914  0.0834
26390W        W42524   8.269  13.918   2.567  0.1273  0.0820 -0.0736
26391W        W42525  13.401  13.492  15.585  0.0118  0.0121 -0.2136
26392W        W42526  13.215  16.432  16.661 -0.0802  0.1909 -0.0839
26393W        W42527   7.857  12.225   3.116 -0.1924  0.0410  0.0396
26394W        W42528   8.187   7.903  13.281 -0.0313 -0.0869  0.2779
26395W        W42529  16.084  14.723   2.528  0.4548  0.1486 -0.1693
26396W        W42530   2.427   6.437   2.651 -0.0576 -0.0083  0.0915
26397W        W42531  15.213   0.647  15.843 -0.4060  0.1879  0.1158
26398W        W42532   8.815   4.395  14.186 -0.1517 -0.0377 -0.0721
26399W        W42533   7.777   4.201   4.807 -0.0872 -0.1011  0.1537
26400W        W42534   6.551   8.867   2.102  0.2813 -0.3228 -0.1211
26401W        W42535  16.410  10.161  13.108 -0.5066  0.2832 -0.0221
26402W        W42536  13.172  10.801  16.795 -0.2852 -0.0571 -0.1086
26403W        W42537   3.921  13.457   3.630 -0.1963  0.1413 -0.1024
26404W        W42538  17.242   3.161  14.842  0.0603 -0.1369  0.2349
26405W        W42539   7.664   5.824   6.052  0.0864 -0.2165 -0.0320
26406W        W42540   5.949  15.697   5.766 -0.0593  0.2839 -0.1086
26407W        W42541   3.269   9.149   0.756  0.1574  0.0641  0.0084
26408W        W42542   8.999  14.470  13.836 -0.0304 -0.0382  0.1280
26409W        W42543  15.884   7.430  16.083  0.1881 -0.0056 -0.0344
26410W        W42544   5.142   3.246  16.063  0.1886 -0.0995 -0.0625
26411W        W42545   1.859   4.605   3.960 -0.0090  0.2494  0.4456
26412W        W42546  12.148   1.003  13.383 -0.0745  0.1552  0.2546
26413W        W42547   0.775   9.865   5.203 -0.1872  0.0328  0.2202
26414W        W42548   9.599  16.301  13.865  0.1922  0.4589  0.0141
26415W        W42549   5.504   0.414  13.712  0.1567 -0.0810  0.1683
26416W        W42550   2.180   3.359   0.470  0.0756 -0.0813 -0.5245
26417W        W42551   2.403   2.933   4.055 -0.0725  0.2666  0.2397
26418W        W42552   4.902  16.429   5.523  0.0595  0.0594 -0.0762
26419W        W42553   9.166   3.452   2.980 -0.2090 -0.0025  0.0999
26420W        W42554   0.128   6.979   4.186 -0.0889 -0.2431 -0.5449
26421W        W42555   4.600  12.929   5.325 -0.0026 -0.0287 -0.1291
26422W        W42556   9.399   8.950   2.271  0.1291  0.0329 -0.1504
26423W        W42557  11.869   2.109   5.488 -0.3034 -0.2878 -0.1178
26424W        W42558   2.319   6.643  17.013  0.0634 -0.0313  0.3043
26425W        W42559  16.676   7.272  13.377  0.0006  0.0103 -0.2805
26426W        W42560   9.126   7.883   4.609  0.2642 -0.2288  0.1417
26427W        W42561   8.688   7.491   4.548 -0.0682 -0.1121  0.0411
26428W        W42562   4.922   6.433  12.294  0.0019  0.0587 -0.2911
26429W        W42563  12.080   1.960  16.043 -0.1602 -0.1458  0.2775
26430W        W42564  13.371  16.192   3.300 -0.1796  0.3086 -0.1419
26431W        W42565   9.599  12.974  14.640  0.2048 -0.1168  0.0296
26432W        W42566  15.398   8.807   2.730  0.1463 -0.0177  0.0963
26433W        W42567   3.475  16.015   1.091 -0.0055 -0.0814 -0.0710
26434W        W42568  15.382   3.914   2.332  0.2078 -0.4392  0.0883
26435W        W42569   2.919   1.080   3.054  0.0366 -0.0428  0.1662
26436W        W42570  14.579   6.212   1.340 -0.0924 -0.2874  0.1847
26437W        W42571   1.113   6.495  12.714 -0.2364  0.2716  0.1574
26438W        W42572   3.111   0.374   3.513 -0.2348 -0.0331 -0.0675
26439W        W42573   1.705  15.460   4.804  0.3699 -0.3109  0.2264
26440W        W42574   8.257  16.776   5.542  0.0410 -0.1584 -0.1239
26441W        W42575   4.482   8.336  16.878  0.0076 -0.1562 -0.1315
26442W        W42576   8.914  10.902  16.819 -0.1272  0.1249 -0.3194
26443W        W42577   7.502  11.841  12.071 -0.1583  0.0815  0.2340
26444W        W42578  13.689   7.113  11.897 -0.0926 -0.1279 -0.0850
26445W        W42579   1.806   6.089  15.539  0.0881 -0.0143 -0.1231
26446W        W42580  14.346   8.944  11.869  0.2555  0.1480  0.1326
26447W        W42581   8.865  13.275   4.462 -0.0765  0.0965 -0.1803
26448W        W42582   2.058   3.907  15.381  0.1084 -0.0014  0.0297
26449W        W42583  14.419   4.023   6.265 -0.1559 -0.0754 -0.1395
26450W        W42584  13.966  13.430   0.841  0.1595  0.0975 -0.0135
26451W        W42585  12.111   3.838   0.864 -0.2510  0.0820 -0.3192
26452W        W42586  10.807   5.099  15.759  0.0364 -0.0432  0.0691
26453W        W42587  14.520   1.487  13.882 -0.1710  0.3565 -0.0740
26454W        W42588  17.580  12.999  12.274  0.1488  0.0410 -0.2089
26455W        W42589  10.684   4.048   4.388 -0.0827  0.3350 -0.2606
26456W        W42590   2.012  11.334   0.409  0.2012 -0.1153  0.2028
26457W        W42591   0.679  10.495   1.716  0.1743 -0.0882  0.0386
26458W        W42592   9.941  12.699  12.795  0.0260 -0.1367  0.0593
26459W        W42593  11.206   5.687   2.196 -0.0932  0.1770 -0.1075
26460W        W42594  11.423   0.140  13.922 -0.2594  0.0345 -0.0039
26461W        W42595   6.321  11.552   0.378 -0.0824 -0.1851 -0.2349
26462W        W42596  16.136   7.022  16.001 -0.0263  0.0432  0.0568
26463W        W42597   0.526  12.553  16.719 -0.0876 -0.1389  0.2080
26464W        W42598  15.098   4.940  13.610  0.0816 -0.3428  0.2947
26465W        W42599  16.134  16.033  14.489 -0.2633  0.2041  0.2273
26466W        W42600  11.176  16.613  13.265  0.0006  0.0597 -0.0240
26467W        W42601   8.535   3.224  16.073 -0.0954 -0.0097  0.0481
26468W        W42602   6.064   1.663   5.481 -0.0405  0.1450 -0.0460
26469W        W42603   6.063   4.816   2.209 -0.0465 -0.0435 -0.0251
26470W        W42604   1.166  17.123  17.158 -0.1014  0.0116 -0.1723
26471W        W42605   5.201   7.039   2.926 -0.3440  0.1888  0.0412
26472W        W42606   8.498   1.437  16.085 -0.0595  0.2141  0.0128
26473W        W42607   5.749   2.377  14.107  0.1588 -0.2116 -0.1045
26474W        W42608   2.720   9.101   0.756  0.1763  0.1968  0.3404
26475W        W42609  15.197  16.590  14.568 -0.2630  0.1265 -0.0376
26476W        W42610   9.185  13.008   4.854 -0.1947 -0.3671 -0.1290
26477W        W42611  10.856  11.112  11.929 -0.2176 -0.0340 -0.0311
26478W        W42612   8.744  10.391  16.267  0.0096  0.0562  0.7001
26479W        W42613   5.753  15.856  14.362 -0.0964  0.1342 -0.4089
26480W        W42614   1.837   4.095   1.891 -0.2060  0.0825  0.0955
26481W        W42615  16.649  11.528   4.125 -0.1351 -0.1725 -0.3398
26482W        W42616   5.426   6.473  12.737  0.1500 -0.0241 -0.1817
26483W        W42617  13.442  11.224  16.916  0.1400  0.2580 -0.1338
26484W        W42618   0.698   3.476  15.592 -0.2456 -0.0514  0.0773
26485W        W42619  16.324   3.973  12.499  0.1050 -0.2161  0.0235
26486W        W42620  11.628  14.693  16.805 -0.0206  0.0344 -0.2248
26487W        W42621  10.602  12.003   3.538 -0.0335  0.2348 -0.3391
26488W        W42622  17.489  10.161   0.930  0.1015 -0.0267 -0.1628
26489W        W42623  15.170   5.763  12.616  0.2661  0.2656 -0.1336
26490W        W42624   2.677   6.436  16.264 -0.2675 -0.0788 -0.2491
26491W        W42625   1.142   5.509  11.921 -0.1530 -0.1329 -0.0184
26492W        W42626  14.220  14.953  14.861 -0.1958  0.1522  0.1644
26493W        W42627  12.624  17.402   5.945  0.1969  0.0406  0.1950
26494W        W42628  14.515   1.276   5.416  0.0839 -0.1039 -0.1676
26495W        W42629   9.667   4.703  12.200  0.1036  0.2294 -0.0915
26496W        W42630   6.515   5.375  14.781 -0.1353 -0.0186  0.1686
26497W        W42631   9.784  13.177   0.095 -0.0096 -0.3562 -0.1878
26498W        W42632  12.093   6.948  12.311 -0.0576 -0.0750  0.1311
26499W        W42633  17.245   9.629  15.253  0.2766  0.3661  0.0743
26500W        W42634  14.401   3.718  16.855  0.0199 -0.0687  0.0358
26501W        W42635   4.820   1.707   1.318 -0.1024  0.0988  0.0257
26502W        W42636   5.035   5.509  16.006  0.2087 -0.0491  0.0311
26503W        W42637  11.164   7.577   4.084 -0.1520 -0.0383  0.1206
26504W        W42638  13.260   9.525   0.570  0.0386 -0.1532 -0.2624
26505W        W42639   9.402   6.416  15.225  0.1510 -0.3052 -0.3126
26506W        W42640  11.203   2.213  15.487 -0.0385 -0.4001  0.0387
26507W        W42641   7.878   4.915  16.660  0.0027  0.1271  0.2758
26508W        W42642  10.778  13.562  16.468  0.0575 -0.0034  0.1772
26509W        W42643  12.020   9.591  15.756 -0.2131  0.1062  0.1466
26510W        W42644   7.840   9.418  14.609  0.1423  0.0966 -0.0470
26511W        W42645  12.426   9.951  14.996  0.4084 -0.3207  0.0024
26512W        W42646   8.587   9.718  13.674 -0.4020  0.3364  0.2995
26513W        W42647   3.999   9.812   3.732 -0.0330  0.0905 -0.0682
26514W        W42648  15.413  16.901  14.174 -0.0883  0.3061  0.0746
26515W        W42649   1.257   2.671   0.282  0.2356 -0.1791 -0.2127
26516W        W42650   9.571  16.103   0.169  0.0926  0.1972  0.1276
26517W        W42651  14.837   8.190  16.004 -0.1858 -0.2182 -0.0900
26518W        W42652   3.338   0.139   2.555 -0.0065 -0.1592  0.0386
26519W        W42653   1.965   5.776  11.764  0.0841  0.1492 -0.0019
26520W        W42654  13.233   0.572  15.391  0.0696 -0.1121  0.0907
26521W        W42655   4.600   8.373   5.100  0.0988  0.2526  0.1524
26522W        W42656  11.205  13.833   1.129 -0.0109  0.2043  0.1297
26523W        W42657  14.117   1.047  13.408  0.0439  0.1240  0.1125
26524W        W42658  13.156   1.737   0.601  0.0535  0.1326  0.0098
26525W        W42659   6.393   2.689   0.611  0.2379  0.0033  0.1946
26526W        W42660  10.176   4.668  16.762  0.0625 -0.0296  0.2037
26527W        W42661   0.321   4.047  12.736 -0.0444  0.1506 -0.0141
26528W        W42662   4.030   2.647  11.888 -0.0154  0.0777  0.2469
26529W        W42663   0.757  15.842   2.916  0.1287  0.0868 -0.0599
26530W        W42664  15.534  14.242  16.811  0.1482 -0.2430 -0.3197
26531W        W42665   4.210  13.260  15.911  0.1437 -0.1951  0.1399
26532W        W42666   8.126   7.971  16.946 -0.1289  0.0461  0.2286
26533W        W42667  12.792   2.506   0.144 -0.1231  0.0888  0.0193
26534W        W42668  15.877   3.996  13.809  0.1786  0.1005  0.0416
26535W        W42669  14.706   6.296   0.873  0.3868  0.2156 -0.0486
26536W        W42670  16.154   1.372   2.623 -0.0031 -0.1736 -0.0803
26537W        W42671   6.168   9.520   1.333  0.0101  0.1477  0.1776
26538W        W42672   7.263  12.487  13.535  0.0814 -0.0555 -0.0001
26539W        W42673   8.374  11.157   4.037 -0.0970 -0.0067 -0.2716
26540W        W42674  15.774  12.328  12.095  0.0997 -0.3872  0.2392
26541W        W42675  17.075  17.086   1.309 -0.0063 -0.1771  0.0202
26542W        W42676   3.964  14.383  16.385  0.1190  0.3795 -0.3479
26543W        W42677  11.321  11.667  12.940  0.1265  0.1243 -0.4356
26544W        W42678  12.809  14.529   6.621  0.2015 -0.0525  0.0040
26545W        W42679   0.861   9.477  15.905 -0.2835 -0.3074  0.0180
26546W        W42680  16.053  14.475   0.467  0.0182  0.0597  0.0603
26547W        W42681  16.953   0.171   1.070 -0.0280  0.1983  0.0165
26548W        W42682   0.056   3.556  14.952 -0.0990  0.3712  0.1005
26549W        W42683  16.016   7.589  16.614 -0.0789  0.0526  0.0595
26550W        W42684   0.622   0.229   2.650  0.1696 -0.2375 -0.0023
26551W        W42685   8.708  12.398  16.822  0.1295 -0.0464 -0.1070
26552W        W42686   3.574  15.461  15.032 -0.0737 -0.3645  0.1669
26553W        W42687   9.740   5.562   0.173  0.0235 -0.2577 -0.5251
26554W        W42688  11.733   7.698  14.528 -0.2367 -0.2356 -0.0019
26555W        W42689   4.474  15.152   0.234 -0.0481  0.0114 -0.0559
26556W        W42690   3.747  13.274   4.077  0.2416 -0.0538 -0.1571
26557W        W42691  16.305   1.841   1.392 -0.1079 -0.0057 -0.1110
26558W        W42692  15.685   8.320  12.781  0.0937 -0.2509 -0.1031
26559W        W42693  15.534  10.067  17.011 -0.4035  0.0766  0.0657
26560W        W42694   4.675   2.908  16.050 -0.1264  0.1368 -0.1488
26561W        W42695   4.973   6.046   4.235  0.2183  0.0471  0.2489
26562W        W42696   2.604   4.741   4.953 -0.0768  0.1338 -0.4332
26563W        W42697  11.122   4.130   3.565  0.0269  0.2002  0.0455
26564W        W42698  15.505   7.277   3.560  0.1775  0.3213  0.3061
26565W        W42699  15.462   2.679  15.778  0.2741 -0.1392  0.1295
26566W        W42700   9.933   3.043   0.955 -0.1538 -0.1176  0.0312
26567W        W42701   9.163   0.921  16.468  0.0209 -0.1516 -0.0455
26568W        W42702   8.425   8.966   1.208 -0.2917  0.0848  0.4474
26569W        W42703  11.386  13.089   1.304  0.0624  0.1551  0.3079
26570W        W42704   4.081   4.222   3.937 -0.1390  0.2819 -0.0148
26571W        W42705   1.105   5.451  16.940  0.0932  0.2885  0.1871
26572W        W42706  12.933   0.890  16.705  0.2956  0.0252  0.0650
26573W        W42707  16.843   0.727   1.720  0.1395  0.2460 -0.1852
26574W        W42708  13.869   8.004  12.619  0.0555  0.0800 -0.1397
26575W        W42709   4.316  10.855   1.686 -0.1082 -0.1226 -0.0051
26576W        W42710  16.622   5.509  15.028 -0.0392 -0.2755  0.1451
26577W        W42711   5.686   0.913  13.822  0.0564  0.2825 -0.0133
26578W        W42712  14.026   5.661  12.551 -0.1878 -0.0109  0.0613
26579W        W42713   4.802   8.565   0.248 -0.0161  0.2169  0.0130
26580W        W42714  14.287   3.082   1.272 -0.0490 -0.0300  0.0828
26581W        W42715   1.246  10.319   1.172 -0.4133  0.0743 -0.2153
26582W        W42716   9.070   9.909  14.613  0.3289 -0.0843 -0.0873
26583W        W42717  14.767   1.944   2.548  0.1119 -0.0545  0.0904
26584W        W42718  13.366   9.941  14.419  0.2749 -0.3118 -0.4143
26585W        W42719   6.319  16.266   4.918  0.2377 -0.0000  0.2127
26586W        W42720   3.544   4.164   3.629 -0.1454 -0.0227  0.1719
26587W        W42721   6.335  13.065  13.828 -0.0536 -0.0376 -0.2658
26588W        W42722   0.088   4.337  13.682  0.1045  0.2098  0.1972
26589W        W42723   7.335   8.992  14.182 -0.2446  0.0157  0.1273
26590W        W42724  14.042   7.098   1.803  0.0479  0.0017  0.0321
26591W        W42725   1.508  11.667   1.021 -0.2114 -0.1828 -0.1121
26592W        W42726   5.233  14.407   0.314 -0.4889  0.3657 -0.0502
26593W        W42727   3.180   2.140   0.778 -0.2653  0.2411 -0.0598
26594W        W42728   2.922   6.418  11.008 -0.4759 -0.0134 -0.3144
26595W        W42729  12.635  12.279  15.853  0.1296 -0.1702  0.0246
26596W        W42730   2.211   6.112   3.201 -0.0912 -0.0137 -0.0868
26597W        W42731  12.730  10.496   2.840 -0.1940  0.1670 -0.1217
26598W        W42732   0.306   7.851   1.671  0.0750 -0.1498  0.2091
26599W        W42733  14.600   6.313   2.268  0.0296  0.1390  0.0018
26600W        W42734  16.357  12.804   4.800 -0.2994 -0.0916 -0.0063
26601W        W42735  15.217  12.908  12.580  0.0775 -0.4755 -0.3557
26602W        W42736   3.086   0.083  12.374 -0.1050  0.0456  0.0078
26603W        W42737  16.660   8.821  11.456 -0.2367  0.0103 -0.1232
26604W        W42738   2.684  12.854  16.585 -0.0509  0.1390  0.1765
26605W        W42739  15.241   4.340   1.448  0.0043 -0.5143 -0.2524
26606W        W42740   3.367   5.311   6.313 -0.3405 -0.0061 -0.1880
26607W        W42741   3.748  11.634  16.481 -0.3139  0.2776  0.0283
26608W        W42742   7.257  11.095   1.416 -0.0947  0.2073  0.0840
26609W        W42743  11.626   2.281   2.194 -0.0512  0.0529  0.1435
26610W        W42744   6.928   1.783   3.074  0.1740  0.3653  0.0613
26611W        W42745   4.549  11.179   1.445 -0.2486 -0.1667 -0.1500
26612W        W42746   4.120   5.163   3.785  0.0230  0.0417  0.2017
26613W        W42747   0.593  12.713  13.075 -0.1453 -0.0432 -0.0083
26614W        W42748   6.818  10.322   2.153 -0.3021  0.1241 -0.1055
26615W        W42749  14.525  11.011   4.317  0.0198 -0.0898  0.0246
26616W        W42750   2.545  11.752   3.689 -0.0628  0.5757 -0.0409
26617W        W42751  15.460   6.213  15.666 -0.0217  0.3164 -0.2393
26618W        W42752   9.709   1.523  14.431  0.4731  0.1612  0.1906
26619W        W42753   4.929   6.444   5.392  0.0457 -0.2289 -0.0451
26620W        W42754   1.499  14.434  13.018  0.0221  0.2664 -0.4633
26621W        W42755  15.393   4.122  13.503 -0.1547 -0.2499  0.1326
26622W        W42756   5.944   2.632   5.206 -0.1379 -0.1798  0.0083
26623W        W42757   8.516   4.963   3.041 -0.1571  0.0464 -0.0773
26624W        W42758   9.693   3.928  16.994 -0.0332  0.1904 -0.1132
26625W        W42759   6.936   3.720  14.977  0.0107 -0.0202 -0.0920
26626W        W42760   5.812   1.690   0.260 -0.1199  0.2131 -0.3576
26627W        W42761  14.462  12.219  13.871  0.0781 -0.3573 -0.2167
26628W        W42762  12.160  12.965   1.940  0.2507 -0.3150 -0.1571
26629W        W42763  11.440   8.123  14.893  0.0409  0.0926  0.2941
26630W        W42764  12.104   8.500  13.255  0.2053  0.0413 -0.0310
26631W        W42765   7.794  15.002   3.626  0.0168 -0.0049  0.1283
26632W        W42766   9.150  11.462   2.587 -0.1515  0.2743  0.0726
26633W        W42767   8.995   8.051  14.651  0.0671 -0.0870 -0.1178
26634W        W42768   2.228   8.300   2.429  0.0252  0.1930 -0.1334
26635W        W42769   8.890   5.575  13.097 -0.2342 -0.2649  0.1493
26636W        W42770   3.334   9.904  10.888 -0.0973 -0.1657 -0.0328
26637W        W42771  12.659   8.891  16.660  0.3181  0.1228  0.4275
26638W        W42772   2.007   5.915   3.808 -0.1843 -0.2456 -0.0811
26639W        W42773   0.532  15.119   1.311 -0.0112 -0.1531  0.1711
26640W        W42774  14.655   4.351   5.332 -0.0499 -0.1084  0.0236
26641W        W42775   8.468   2.218  13.358 -0.0819  0.0147  0.1992
26642W        W42776   6.811   6.997   4.274 -0.0318  0.0042 -0.1032
26643W        W42777  16.505   3.003  16.407 -0.0380  0.0112  0.1251
26644W        W42778  11.810  17.429   4.034  0.2003  0.0054 -0.2290
26645W        W42779   6.373   5.698   1.928 -0.0975  0.4890 -0.0271
26646W        W42780   4.524   4.665  13.059  0.0091 -0.0613 -0.1796
26647W        W42781  16.428   6.522   0.095 -0.1873 -0.1463 -0.0420
26648W        W42782  10.666  13.676   3.770  0.2064 -0.0472  0.0911
26649W        W42783  14.881   6.357  14.303  0.1678 -0.0857 -0.0663
26650W        W42784  14.510   0.729   2.784 -0.0597 -0.2887  0.1689
26651W        W42785   3.998   6.997  12.067 -0.2817 -0.0181  0.2385
26652W        W42786  17.153  13.767   2.462 -0.0445  0.1221  0.0391
26653W        W42787   6.064  14.659   3.734  0.0515  0.2144  0.2029
26654W        W42788   7.589  11.553   4.355  0.0636 -0.0978 -0.0128
26655W        W42789   6.198  14.712   1.239  0.0965 -0.0346  0.2666
26656W        W42790   5.493   6.796   1.697 -0.1579  0.3884  0.1458
26657W        W42791   7.262   9.530   0.264  0.1135  0.0834 -0.0463
26658W        W42792  15.591   2.390   2.684 -0.0428  0.0220  0.1210
26659W        W42793   3.889   8.249   2.362  0.0495  0.1894 -0.0322
26660W        W42794   8.061   2.029  16.736  0.1660 -0.0586  0.0325
26661W        W42795   1.108  15.987  13.116  0.2430  0.1549 -0.3157
26662W        W42796   9.079  12.778  16.847 -0.1113 -0.1928 -0.0514
26663W        W42797   0.286   0.092  14.662 -0.1527  0.0453 -0.0207
26664W        W42798  16.395  12.340  14.473  0.2102 -0.2943 -0.0168
26665W        W42799   7.469   1.932  13.004 -0.3821  0.1242  0.0527
26666W        W42800  12.761   5.390  16.478  0.1046 -0.1735  0.0559
26667W        W42801  10.342   1.544   0.776  0.2041 -0.0895 -0.1078
26668W        W42802  15.362   2.071   3.467  0.4516 -0.2239 -0.2667
26669W        W42803   8.354   2.647  12.479  0.1597  0.3339  0.0219
26670W        W42804   6.384  14.946   6.029  0.0479  0.0470 -0.1403
26671W        W42805  14.831   6.839   0.894  0.0850  0.0791 -0.4562
26672W        W42806  15.365   2.651  16.262 -0.1161  0.0703 -0.0158
26673W        W42807   4.946   0.967   0.730  0.2111 -0.1919 -0.1485
26674W        W42808   0.295   4.492   0.097 -0.1318  0.2843 -0.3171
26675W        W42809   7.469  10.880   3.806 -0.0322 -0.1571  0.1446
26676W        W42810  10.748  10.039  15.305 -0.0615 -0.0874  0.1188
26677W        W42811   9.121  12.954  16.201  0.1657  0.0495  0.1252
26678W        W42812   0.050  17.213   2.766 -0.0172  0.1670 -0.0669
26679W        W42813  13.753   8.690   1.863  0.1642  0.0542 -0.1409
26680W        W42814   6.316   1.917   3.095 -0.0046  0.1483 -0.1048
26681W        W42815  13.930   9.284  16.626  0.2278  0.1553  0.3282
26682W        W42816   9.788  16.476   1.107  0.0057  0.2107 -0.2975
26683W        W42817   5.638  14.295  13.933  0.0619  0.1766 -0.0862
26684W        W42818   0.976   6.630   4.487  0.0714 -0.1600 -0.3778
26685W        W42819   4.062   8.490  16.677  0.0535 -0.6354 -0.0853
26686W        W42820  12.263  11.329  13.077 -0.0643 -0.0568  0.1654
26687W        W42821   5.212  16.310  17.165 -0.0173 -0.2111  0.0916
26688W        W42822  14.619   9.812   3.835  0.2378 -0.0718 -0.1477
26689W        W42823  13.831   2.885   1.367 -0.0632 -0.0164  0.1979
26690W        W42824   4.930  10.862   1.408  0.2990 -0.2355 -0.2522
26691W        W42825  15.071   6.433   3.699  0.2287  0.0724  0.0085
26692W        W42826  17.398   1.189   0.476 -0.2924  0.2524  0.0008
26693W        W42827  10.411  13.004   0.031  0.0010 -0.1633  0.0280
26694W        W42828   4.122   2.170  16.909  0.2171  0.0300  0.1128
26695W        W42829  14.109  17.265  13.005 -0.0477 -0.3118  0.1641
26696W        W42830   2.650  17.542  12.218 -0.1624 -0.1077 -0.1957
26697W        W42831   5.664   9.082   3.834 -0.2128  0.1485  0.2033
26698W        W42832   4.499  17.644  12.610 -0.0341 -0.0957  0.1227
26699W        W42833   9.999   4.868  15.696  0.0059  0.1984 -0.0860
26700W        W42834   1.494  10.652  13.407  0.4211 -0.1962 -0.0894
26701W        W42835  10.672  13.221   2.225  0.2341 -0.0402 -0.0531
26702W        W42836  11.415   3.614   3.433  0.0692 -0.0879 -0.1794
26703W        W42837   0.511  11.223  15.539 -0.1124  0.0731  0.0738
26704W        W42838   7.247   3.732   0.459  0.3766 -0.1435  0.1520
26705W        W42839   2.167  17.098   0.295  0.1506  0.1691  0.1296
26706W        W42840   2.820   2.866  16.902 -0.1857 -0.0240 -0.2207
26707W        W42841  16.728   4.708   0.425  0.3703 -0.0111  0.0555
26708W        W42842  14.353   5.381  17.080 -0.0664 -0.0075  0.0702
26709W        W42843   7.093  17.369   2.143 -0.1651  0.1387  0.0590
26710W        W42844  13.844   1.658   6.645 -0.1337  0.0277 -0.1875
26711W        W42845   6.200   7.780  14.641 -0.1058 -0.3830  0.1518
26712W        W42846  16.073   0.516   5.463 -0.0463  0.0799  0.2280
26713W        W42847  13.139   1.997  16.097 -0.0272  0.3165 -0.0652
26714W        W42848   5.869  15.047  13.016  0.0419 -0.2450  0.0232
26715W        W42849  12.764   0.569   1.359 -0.0932 -0.0610 -0.1988
26716W        W42850   5.031  10.015  13.071  0.1213 -0.1076  0.0953
26717W        W42851  16.262  12.949  15.603 -0.1918  0.1091 -0.0496
26718W        W42852   9.370   2.428   4.495 -0.3358  0.0686  0.0454
26719W        W42853   0.367   9.644  16.606 -0.0024 -0.0717  0.1196
26720W        W42854   7.537  17.156   3.005 -0.0336  0.0521 -0.1797
26721W        W42855  12.896   8.117  12.657 -0.2539  0.0770 -0.4542
26722W        W42856  15.620   7.474   3.052 -0.2321 -0.1304  0.2112
26723W        W42857   9.569  11.683  13.828 -0.3833  0.0783  0.2308
26724W        W42858   0.102  15.561  15.417 -0.4895 -0.0078 -0.1265
26725W        W42859   4.314   6.604   0.311 -0.0465  0.1654  0.0004
26726W        W42860  12.145   4.951   1.287 -0.1761 -0.3659 -0.0025
26727W        W42861   2.277   9.748  13.818 -0.2242  0.2112 -0.1211
26728W        W42862   2.985   3.379  16.612 -0.0738  0.0775  0.1117
26729W        W42863  14.821   2.319   2.293 -0.3564 -0.0886  0.2026
26730W        W42864   2.215  12.014  11.951  0.0391 -0.4350 -0.0340
26731W        W42865   3.789   0.849   4.167  0.2463  0.0969 -0.0074
26732W        W42866   7.242  13.591   0.455 -0.0072 -0.3069 -0.0866
26733W        W42867  14.527   7.768  16.009 -0.1354  0.0282  0.3212
26734W        W42868  10.609   0.717  16.281 -0.3022  0.2497 -0.0821
26735W        W42869   8.746   6.484  12.118  0.1151  0.1463  0.1182
26736W        W42870   5.803  11.353   1.187 -0.2946  0.2321 -0.3055
26737W        W42871  17.123   1.927   2.920  0.1860 -0.0508 -0.0964
26738W        W42872  16.791   9.951   1.588  0.1034  0.1072  0.1026
26739W        W42873  15.146   7.823  16.747 -0.1394  0.0987 -0.1352
26740W        W42874  16.557  15.131   6.665  0.0902 -0.1575 -0.1411
26741W        W42875  13.253  16.617   5.101 -0.0524 -0.0031  0.4635
26742W        W42876  17.542  15.407  13.188  0.2010 -0.0627  0.1073
26743W        W42877  17.227   2.526   1.389  0.1224 -0.0515  0.0640
26744W        W42878   2.052   3.974   1.403 -0.0312  0.0285 -0.1509
26745W        W42879  14.933   3.034  14.682 -0.1958  0.1427  0.0307
26746W        W42880   0.131   6.533  16.915 -0.0663 -0.0665 -0.0085
26747W        W42881   1.073  16.729   2.411 -0.1461  0.0790  0.1434
26748W        W42882  12.612  11.027   1.935  0.0928 -0.0451 -0.0079
26749W        W42883  10.993   9.713  14.950  0.3392 -0.2360 -0.0569
26750W        W42884  17.529   8.855  14.273  0.2612 -0.0827 -0.2513
26751W        W42885   4.470   9.671  14.929 -0.0693 -0.0532  0.1477
26752W        W42886   1.012   9.772   1.019  0.4593 -0.1345 -0.3296
26753W        W42887   4.349   7.909  15.527 -0.2539  0.1200 -0.1767
26754W        W42888   2.112   1.259  16.267  0.2385 -0.2719  0.0465
26755W        W42889   6.029  13.300   5.461 -0.1672  0.1221  0.1193
26756W        W42890  11.462   3.629  16.588  0.0583 -0.1068 -0.2855
26757W        W42891  10.700   9.712  13.596 -0.0499 -0.1565  0.1305
26758W        W42892  14.249   7.616   3.122  0.0948 -0.0883  0.3384
26759W        W42893  15.432  13.744   5.261  0.2309 -0.2611  0.1625
26760W        W42894   1.675   3.182   1.787  0.0163 -0.2020 -0.3310
26761W        W42895  13.677  16.468  14.245 -0.3473 -0.0919 -0.1612
26762W        W42896   6.100  11.839  14.253  0.1110 -0.1761 -0.0306
26763W        W42897   2.806   2.100  14.169 -0.1806 -0.0283 -0.2543
26764W        W42898   6.453   7.243  14.237  0.1763 -0.2465  0.1461
26765W        W42899  12.984   7.713   2.402  0.0071  0.0018 -0.1691
26766W        W42900   5.293   2.191   5.991  0.0797 -0.2428 -0.0544
26767W        W42901  11.486   6.492   3.982  0.3702 -0.1460  0.1898
26768W        W42902   1.852   4.799  16.972 -0.3010  0.0380 -0.0592
26769W        W42903  15.419  11.025   3.972 -0.1533  0.0550  0.0454
26770W        W42904   9.921  13.003   0.974  0.0064  0.0672  0.2173
26771W        W42905   3.213   1.604  14.795 -0.0363 -0.1989 -0.0749
26772W        W42906   0.238   8.140  16.670  0.1290 -0.0277  0.0705
26773W        W42907  16.571   6.298  16.120  0.1384  0.0291  0.1553
26774W        W42908   8.816  16.937  12.393 -0.0453 -0.1166 -0.2760
26775W        W42909  15.822  16.275  12.909 -0.1241 -0.1370  0.2138
26776W        W42910   4.619  13.108   1.383  0.3167  0.1256 -0.1314
26777W        W42911  11.756  12.848  11.633  0.1266 -0.0060 -0.0345
26778W        W42912   4.410  11.666   4.155 -0.0097  0.0711 -0.1526
26779W        W42913   5.652   6.769  16.232  0.1114  0.0602  0.0747
26780W        W42914   5.943   6.153   0.084  0.0337 -0.1249  0.1774
26781W        W42915   1.680  14.706   2.634  0.1545  0.0387  0.3734
26782W        W42916   0.261  15.472   2.719 -0.1734 -0.0999 -0.0418
26783W        W42917  10.979   3.671   3.751  0.0513 -0.1297  0.0446
26784W        W42918  12.393  16.631   1.428  0.0729 -0.0469  0.0185
26785W        W42919  17.601  10.865   5.262  0.1454  0.0109 -0.0631
26786W        W42920   6.686   2.820   4.859 -0.4447 -0.2454 -0.0202
26787W        W42921   9.724   0.927   1.218  0.2811  0.1549 -0.1288
26788W        W42922  12.897  10.172   2.524  0.0128  0.0322 -0.0105
26789W        W42923   2.386   2.749  16.072  0.2732 -0.0114  0.0497
26790W        W42924  10.732   9.947  16.556 -0.1694  0.4280  0.0247
26791W        W42925   6.027   6.474   1.426 -0.1100  0.2251  0.2947
26792W        W42926  10.578  16.183  13.677 -0.1871 -0.0155 -0.0032
26793W        W42927   5.541   2.849  14.874 -0.0095  0.2439 -0.4195
26794W        W42928   8.288   7.332   2.193  0.0696 -0.0144  0.0374
26795W        W42929   6.149   0.706   1.631  0.0494 -0.1390  0.0997
26796W        W42930  12.508  10.200  12.389  0.0363 -0.2494  0.1300
26797W        W42931   8.721   0.044   3.756 -0.0176  0.2346  0.0091
26798W        W42932  16.117  15.873   5.391  0.2314  0.0274  0.1494
26799W        W42933   3.324  10.925  12.915 -0.1932  0.2026  0.1249
26800W        W42934   5.098  10.050  14.871 -0.0595  0.0864 -0.0673
26801W        W42935   3.502  13.361   4.545 -0.3151 -0.0167  0.0151
26802W        W42936  10.066  12.569   0.626  0.2070  0.2268  0.1511
26803W        W42937  13.194  15.507  16.347 -0.3750  0.0574  0.0531
26804W        W42938   1.363  10.255  11.365  0.1495 -0.0973 -0.1602
26805W        W42939   3.240   9.459   2.002  0.0601 -0.1096 -0.1034
26806W        W42940   3.167  16.125  13.204  0.0409 -0.0433  0.1799
26807W        W42941  13.357   8.687  16.207  0.2173  0.0658  0.0754
26808W        W42942   8.946   6.709   2.641 -0.0809 -0.0659  0.1285
26809W        W42943  12.893   6.923   4.275  0.2418  0.0014  0.0753
26810W        W42944   0.198   5.684   0.220 -0.0414  0.2557 -0.2759
26811W        W42945   6.693  12.975  14.387 -0.0703 -0.0956 -0.4612
26812W        W42946   8.956  17.157   0.859 -0.0532  0.0462  0.0091
26813W        W42947   1.604  12.981  13.444  0.0086  0.0648  0.0292
26814W        W42948   7.628   8.433   5.640  0.2798  0.3281 -0.2536
26815W        W42949  15.003   8.304   1.659  0.2320  0.2164  0.0504
26816W        W42950   4.749   2.663  14.352 -0.0971 -0.0671 -0.0587
26817W        W42951   9.660   6.955   3.663 -0.0807  0.0259  0.0513
26818W        W42952  13.784   5.867   3.510  0.1357  0.1197  0.3047
26819W        W42953   3.419   7.163  12.480 -0.1263  0.0158  0.3601
26820W        W42954   8.842   7.400   0.784 -0.2319  0.1170  0.0445
26821W        W42955  11.458   6.099   4.910 -0.1714 -0.1929  0.1623
26822W        W42956   8.624   0.170  15.426  0.3406 -0.2227  0.3057
26823W        W42957  16.903   1.485   0.631 -0.2379  0.6897 -0.2799
26824W        W42958   5.731   8.453  13.552 -0.1530 -0.0057  0.0355
26825W        W42959   6.007  15.136   1.071  0.2800 -0.0403  0.2330
26826W        W42960  13.332   6.348   0.762  0.2898  0.3365 -0.0459
26827W        W42961   8.351   4.403  14.454 -0.0913 -0.2216 -0.0642
26828W        W42962  14.483   7.526  14.506  0.4818  0.2914 -0.0606
26829W        W42963  10.401   6.144  12.655 -0.1509  0.1484  0.1478
26830W        W42964   4.803   9.201   4.128 -0.0885 -0.0016 -0.2236
26831W        W42965   4.746   5.473  16.795  0.2571 -0.1043 -0.2066
26832W        W42966  15.451   5.387   4.281 -0.2682 -0.1375  0.0688
26833W        W42967   4.888   1.023   2.583 -0.1387 -0.0154  0.0105
26834W        W42968  15.330   9.423  16.499  0.2138 -0.2651  0.1720
26835W        W42969  10.092   2.011   0.827 -0.2234  0.0257 -0.0726
26836W        W42970  15.287  11.951  14.253  0.2818 -0.0356  0.1521
26837W        W42971   9.407   2.453  12.023  0.1968 -0.0491  0.0349
26838W        W42972  14.547   8.438  13.839  0.3080  0.0124  0.1601
26839W        W42973   1.917  12.016  16.945 -0.1701 -0.0084 -0.0917
26840W        W42974   1.799  14.917  12.372  0.0608 -0.3515  0.0562
26841W        W42975   1.671  15.019   5.278 -0.1714  0.0075 -0.3599
26842W        W42976  13.591   1.805  14.677  0.0386 -0.0131 -0.0913
26843W        W42977   6.057  10.452   4.050 -0.0335  0.0887 -0.2242
26844W        W42978  15.939   0.943   5.787 -0.4258  0.3079  0.1325
26845W        W42979   2.352   5.098   6.578  0.0607  0.1191 -0.1226
26846W        W42980   5.722   1.347  16.977  0.3386  0.0275 -0.1369
26847W        W42981  11.689   2.983   0.630 -0.0651  0.0580 -0.2266
26848W        W42982   3.742   2.192  16.339 -0.2949  0.3267 -0.0298
26849W        W42983  12.329   9.201   5.576 -0.0865  0.0918 -0.2689
26850W        W42984   3.494   3.134  12.584 -0.0968 -0.0000  0.1587
26851W        W42985   0.720   0.918  14.992  0.2093 -0.1117  0.3072
26852W        W42986   8.925  14.518  15.896  0.1692  0.1755 -0.0353
26853W        W42987   0.874   9.241   2.569 -0.1199  0.1861  0.0528
26854W        W42988  15.077   7.890   0.110 -0.3725 -0.1474 -0.0280
26855W        W42989   9.694  11.068  11.071 -0.3747 -0.0765 -0.1740
26856W        W42990   6.968   7.845   5.297 -0.0723 -0.1289 -0.0913
26857W        W42991   4.994   0.797   3.575 -0.1834  0.0309  0.1811
26858W        W42992  13.333   6.013   1.147 -0.2963 -0.0677  0.0746
26859W        W42993   6.712  12.783   0.932  0.1861  0.0314 -0.0588
26860W        W42994   8.684  12.123   2.274 -0.0221 -0.0316 -0.2039
26861W        W42995   1.952   1.729  13.095  0.5012 -0.0259  0.2412
26862W        W42996   5.276   6.551   2.054  0.0894  0.0564 -0.1133
26863W        W42997   9.153   8.086  16.398  0.1542 -0.0907  0.0572
26864W        W42998   6.529  13.760  15.422 -0.1875 -0.1012  0.1864
26865W        W42999  13.075   2.429  12.872  0.3267  0.0051 -0.2480
26866W        W43000  12.707  10.637  16.744 -0.0948 -0.0831 -0.1002
26867W        W43001   0.396  17.242  16.012  0.1105 -0.2577 -0.0538
26868W        W43002   1.732   9.168  12.473 -0.0650 -0.0987  0.2139
26869W        W43003   5.044  14.294  12.800 -0.3332 -0.0345 -0.1331
26870W        W43004   3.652   3.422  14.436  0.1603 -0.0744 -0.1338
26871W        W43005   1.561   9.069   3.791 -0.2058  0.2727 -0.1174
26872W        W43006  14.334  15.318   3.779 -0.3602  0.0720 -0.1563
26873W        W43007  17.453   9.658  15.765  0.1585 -0.1704 -0.0657
26874W        W43008   9.867   9.313  14.622  0.3202 -0.0898  0.0112
26875W        W43009   5.511  15.822   1.724  0.3093 -0.1260 -0.0608
26876W        W43010  10.410   1.572   3.567 -0.2066 -0.0743 -0.2480
26877W        W43011   1.882   0.293  15.700 -0.0569 -0.0743  0.3371
26878W        W43012   2.096  17.079   2.909 -0.1609  0.2853 -0.3012
26879W        W43013   8.840   1.318  16.555  0.1233  0.1485 -0.0272
26880W        W43014  12.207   4.773  15.950 -0.1025 -0.3514  0.0691
26881W        W43015   0.508   0.697   5.654  0.2142  0.1025  0.0846
26882W        W43016  11.120   1.662  13.633  0.0069 -0.1384  0.0589
26883W        W43017  17.598   5.680   0.887 -0.0688  0.1391 -0.0761
26884W        W43018   6.763   4.610   0.431 -0.0786  0.3419 -0.4099
26885W        W43019   2.014   4.944  11.926  0.0281 -0.2757 -0.2296
26886W        W43020   5.070   4.604   2.360 -0.0714  0.0303  0.1039
26887W        W43021   6.920  11.672   2.006  0.1104 -0.1792 -0.1014
26888W        W43022  12.073   5.093  16.326 -0.3677 -0.0804 -0.2447
26889W        W43023   8.344   6.339   1.419 -0.4503  0.0452 -0.0877
26890W        W43024  13.428   6.801   1.233 -0.4989  0.1825 -0.0324
26891W        W43025   6.567   7.862  15.597 -0.4085  0.0937  0.0815
26892W        W43026  17.592   7.504  15.004 -0.1062 -0.2484  0.3654
26893W        W43027   0.439   6.987   0.729  0.4844 -0.3431 -0.0136
26894W        W43028   3.036  11.927  11.816 -0.2061 -0.1486  0.1119
26895W        W43029   9.783  16.593   5.315 -0.4438  0.2390 -0.1197
26896W        W43030  17.213   3.458   1.482 -0.0018 -0.1121  0.0351
26897W        W43031  12.516   5.576   0.430  0.1399  0.0212 -0.1719
26898W        W43032  15.562  13.093  15.424  0.1445 -0.0404  0.2429
26899W        W43033  10.705  16.933   3.467 -0.0060  0.1687 -0.3052
26900W        W43034   2.018   8.840  15.944  0.0510  0.1506  0.1342
26901W        W43035  13.139  14.888   3.665  0.0610  0.1480  0.1758
26902W        W43036   7.644   5.702   6.557 -0.2410  0.1367  0.1367
26903W        W43037   8.911   1.715   3.973  0.0096  0.0450  0.4012
26904W        W43038   2.860   1.148   3.925 -0.1242  0.1573 -0.1303
26905W        W43039   8.712   3.717  12.797 -0.1278  0.1559  0.0493
26906W        W43040   4.510   1.679   3.180  0.0142  0.0522 -0.0132
26907W        W43041   1.322  13.578  16.007 -0.0369  0.1985 -0.0265
26908W        W43042   5.260   5.706   2.343  0.0055 -0.1245 -0.0970
26909W        W43043   5.074   2.727  15.200 -0.0451  0.0141  0.0433
26910W        W43044   8.105  17.133   0.660 -0.0116 -0.2164 -0.2150
26911W        W43045  17.265   9.241  14.515 -0.1091 -0.1027 -0.0334
26912W        W43046  17.136   6.752   5.349  0.0490 -0.1617 -0.0356
26913W        W43047  16.331   4.097   4.672 -0.2463  0.1842  0.1184
26914W        W43048  11.219   2.523   1.391 -0.1847  0.2822 -0.1722
26915W        W43049   6.710  17.613   0.533 -0.1616 -0.0382  0.0355
26916W        W43050   5.563   8.980   2.114  0.1589 -0.1859  0.0231
26917W        W43051  11.807  10.972   5.513  0.0164  0.3906  0.0691
26918W        W43052  17.513  17.386   6.058 -0.0518  0.1473 -0.2723
26919W        W43053   6.440  15.824  12.763  0.1343 -0.1272 -0.0449
26920W        W43054   9.150  10.733   3.340 -0.1871  0.0527  0.4563
26921W        W43055   1.405   2.580   6.328 -0.0909 -0.1342  0.1179
26922W        W43056   1.522  10.956  14.271 -0.0671 -0.0054  0.1821
26923W        W43057   1.154   8.601  12.921 -0.2104  0.0406  0.1723
26924W        W43058  12.927   7.177   2.543  0.1198 -0.0711  0.0094
26925W        W43059  13.022  14.411  12.734 -0.0079  0.0728  0.0009
26926W        W43060   2.785   1.648  13.836  0.0431  0.1082 -0.1565
26927W        W43061  16.220   9.518   4.488 -0.0264 -0.0747 -0.1142
26928W        W43062  15.918   6.041  11.480 -0.0235 -0.3573 -0.0194
26929W        W43063  16.587   3.776  17.006  0.1089  0.1028 -0.2123
26930W        W43064   1.901  14.560   6.224 -0.0781  0.0673  0.0117
26931W        W43065  16.049   2.739   0.453  0.0430 -0.2782  0.0547
26932W        W43066  15.032  13.821  13.158  0.0482  0.0030 -0.1970
26933W        W43067   2.679  13.704   1.363 -0.1639 -0.2879 -0.0277
26934W        W43068   2.996   5.580   3.341 -0.0574 -0.1506 -0.1685
26935W        W43069   0.023  12.490   4.011 -0.0420 -0.2754 -0.2119
26936W        W43070   2.020  14.171  14.678  0.3098  0.0482 -0.0618
26937W        W43071   1.533   7.685  10.838  0.0317 -0.0150  0.1756
26938W        W43072  16.145   0.259   1.645 -0.0853  0.0412 -0.1479
26939W        W43073   1.306  11.455  11.692 -0.0342 -0.1094 -0.1517
26940W        W43074   9.045   0.155  17.059 -0.1765  0.0064 -0.2082
26941W        W43075   5.064  10.129   5.012  0.3172 -0.3545  0.1619
26942W        W43076   5.319  15.225  15.492 -0.1492 -0.1512  0.0152
26943W        W43077  11.461   5.897  14.162  0.1824  0.1370  0.2633
26944W        W43078  11.150  17.067   1.147  0.0597 -0.0686  0.2265
26945W        W43079   1.196   6.092  11.861 -0.3027  0.3460 -0.0062
26946W        W43080  16.508  15.693   0.706  0.2786  0.0490  0.1012
26947W        W43081  13.652   5.703   4.755  0.1542 -0.0416 -0.1218
26948W        W43082   5.394   9.360   1.737 -0.1230  0.0857 -0.1358
26949W        W43083   5.361  12.933   4.551 -0.0245  0.2340  0.0233
26950W        W43084  13.881   5.908   1.322 -0.0616 -0.4076 -0.1995
26951W        W43085  11.483   4.744  17.129 -0.0614  0.1969  0.1925
26952W        W43086  12.512   8.669   5.360 -0.0018 -0.1820 -0.0884
26953W        W43087  14.981   8.648  15.841 -0.2457  0.0367 -0.1312
26954W        W43088  13.513   1.656  13.718 -0.0016 -0.2546 -0.0210
26955W        W43089   7.047  14.752   5.381 -0.0565  0.4019 -0.0354
26956W        W43090  15.527  11.296   0.041 -0.0165  0.0034 -0.0781
26957W        W43091  13.915   7.285  14.020  0.3419 -0.1563 -0.0554
26958W        W43092  11.825  10.746   5.007 -0.1052 -0.2831 -0.1727
26959W        W43093   6.740  12.597   5.853  0.0496 -0.5028  0.0984
26960W        W43094  10.952  10.145  12.807  0.1710  0.4494 -0.1908
26961W        W43095  15.725  13.929  16.464  0.0817  0.2649 -0.0459
26962W        W43096  12.617  17.364   5.413  0.0730  0.0649 -0.1552
26963W        W43097  14.506   1.221  15.583  0.1583 -0.0200 -0.0660
26964W        W43098   8.696  14.600   2.143 -0.0211 -0.0689  0.0844
26965W        W43099   5.393   6.857  13.882  0.0506 -0.0123  0.2748
26966W        W43100  10.708   5.119   1.108 -0.1964 -0.0989  0.1751
26967W        W43101  17.548  16.601  17.054 -0.2400 -0.0602  0.2211
26968W        W43102   4.616   4.126   2.713  0.2389 -0.1109 -0.0412
26969W        W43103  15.310   3.440   1.637  0.0147  0.1127 -0.0641
26970W        W43104  11.039  16.201  14.372  0.0306  0.3476 -0.0473
26971W        W43105  14.480   8.939  15.526  0.0708 -0.1887  0.0289
26972W        W43106   7.874  12.134  15.172  0.2008  0.0414 -0.0529
26973W        W43107   5.456   1.124  12.936 -0.4766 -0.0860 -0.1314
26974W        W43108   9.823  15.874  14.228  0.1795  0.1814  0.2299
26975W        W43109  16.191   0.384  16.964  0.1429 -0.0841  0.0564
26976W        W43110   5.904  16.262  12.283 -0.1972  0.2157  0.2862
26977W        W43111  13.127   4.914   6.005 -0.0848  0.3445 -0.0558
26978W        W43112  10.250  14.663  14.178  0.1545 -0.0491 -0.0169
26979W        W43113   2.835   2.040  13.529  0.1231 -0.1289 -0.0926
26980W        W43114   3.424  11.637  16.852  0.3284  0.1618 -0.4070
26981W        W43115   9.544  13.188   1.884 -0.0293 -0.1642  0.0052
26982W        W43116   2.190  11.569  15.632  0.0238 -0.1476 -0.2147
26983W        W43117  11.526   7.245  12.914 -0.0280 -0.0694  0.0943
26984W        W43118   3.412   6.911  14.510  0.0340 -0.1033 -0.1576
26985W        W43119  16.135  11.167  16.699  0.2980  0.1867  0.1215
26986W        W43120  11.259  13.976  16.135  0.3243  0.2191  0.0736
26987W        W43121   3.265   2.060  16.462 -0.2588  0.0360 -0.1976
26988W        W43122   2.458  12.441   3.205 -0.0476  0.1497 -0.2093
26989W        W43123   3.716   8.725  14.412  0.0112 -0.4311  0.0011
26990W        W43124  11.139  13.778  15.058  0.1639  0.1843 -0.0491
26991W        W43125   3.932   1.616  12.524  0.2079  0.2196 -0.1336
26992W        W43126  15.665   7.447  14.145 -0.2958 -0.3101  0.1564
26993W        W43127   9.350  12.524  13.390 -0.1459  0.2460 -0.1679
26994W        W43128  10.401   1.233   1.204  0.1879 -0.0589  0.0648
26995W        W43129   2.110   6.058  12.196 -0.0422 -0.0579 -0.1847
26996W        W43130  15.928   1.311   4.412 -0.2316 -0.0905 -0.1552
26997W        W43131  13.262  10.018   0.274 -0.2557  0.0156 -0.0240
26998W        W43132  17.611  15.322  12.620  0.2287  0.1145 -0.0999
26999W        W43133   5.183  13.263   2.261 -0.0406 -0.1585  0.0469
27000W        W43134   4.848   4.731   3.648 -0.2852 -0.0995  0.1553
27001W        W43135  15.391  10.959  14.168  0.0851 -0.1493 -0.1585
27002W        W43136   8.720  15.692   0.577  0.0303 -0.0269  0.0690
27003W        W43137  16.785   0.254   4.813 -0.2016 -0.1969 -0.1385
27004W        W43138  14.809   1.107   2.191  0.0871 -0.0523 -0.1983
27005W        W43139   6.230  12.442   3.446  0.0262  0.0808 -0.0259
27006W        W43140   4.627  10.136  14.919 -0.0949  0.2687 -0.2909
27007W        W43141   4.695  12.075   3.813 -0.0031  0.1785 -0.1293
27008W        W43142   5.024   4.962   4.118 -0.1139  0.1989 -0.2405
27009W        W43143   6.797   5.795  16.417 -0.2081 -0.0048 -0.2001
27010W        W43144  10.534   5.725   1.547  0.0764 -0.2257  0.0217
27011W        W43145   9.438  17.199  16.380  0.0196 -0.2431  0.0805
27012W        W43146   5.587   1.875   2.976  0.2251  0.1964  0.1217
27013W        W43147   5.743  14.893  13.544 -0.0443  0.1963 -0.1480
27014W        W43148   5.568   3.844   0.380 -0.1871 -0.3082 -0.1706
27015W        W43149   5.275   4.344   3.742  0.0581 -0.3698  0.0773
27016W        W43150   1.032   4.961  17.072  0.3174 -0.0968 -0.0036
27017W        W43151   9.690   7.746  14.247 -0.0231  0.0624  0.1665
27018W        W43152   6.983  10.725  14.779 -0.1379  0.0241  0.0722
27019W        W43153  14.195  13.141  14.942  0.1860 -0.2311  0.3757
27020W        W43154   2.950   0.994  15.579 -0.1272  0.0496 -0.0444
27021W        W43155  13.841   9.802   4.385  0.1068  0.1336  0.0923
27022W        W43156   0.157   2.027  13.115  0.0140  0.2232  0.2964
27023W        W43157   8.919  13.274  11.722  0.2521 -0.2193  0.2938
27024W        W43158   3.544  10.476   1.209  0.1899 -0.0526 -0.0937
27025W        W43159   5.589  15.362   5.612  0.0625 -0.0127 -0.1293
27026W        W43160  10.719   8.743  14.132  0.0201 -0.0857 -0.4565
27027W        W43161   3.041  15.623  13.249 -0.0566 -0.1488  0.0751
27028W        W43162  14.190   6.388   0.170  0.1918  0.0524  0.1808
27029W        W43163   0.632   6.040   0.165 -0.2933  0.2047 -0.0101
27030W        W43164  13.263  10.950  13.805  0.1023  0.0252 -0.0664
27031W        W43165  12.205   6.334  13.873 -0.0666  0.2859 -0.1434
27032W        W43166   6.466   7.129   3.271 -0.1065  0.0605  0.0954
27033W        W43167   0.462  12.597   0.035  0.0717 -0.0482 -0.2023
27034W        W43168  11.256   0.352  16.771  0.1727  0.1162 -0.0295
27035W        W43169  16.017  14.773   6.066 -0.0033 -0.0219 -0.0722
27036W        W43170  14.092  10.187  14.091  0.0858 -0.0443 -0.0798
27037W        W43171  11.807  15.665   4.022  0.3677  0.0021  0.2067
27038W        W43172   8.257  15.589  13.680  0.1286  0.1543 -0.1278
27039W        W43173   0.252   1.235   1.019 -0.3260 -0.3695 -0.0321
27040W        W43174  13.302  13.694   4.262  0.1034 -0.1809 -0.1670
27041W        W43175   3.744   0.115   2.939  0.0085 -0.0572 -0.0479
27042W        W43176   2.437   8.542   4.717  0.0436 -0.0988  0.0415
27043W        W43177   6.741  10.348   0.477  0.0898  0.0362  0.0141
27044W        W43178  15.996   5.590  12.757  0.1867 -0.0304 -0.0053
27045W        W43179   0.220  13.967  15.303 -0.2265  0.3483  0.2307
27046W        W43180  16.271  14.664  15.348  0.0997 -0.2360  0.1289
27047W        W43181   7.280  10.620   4.776 -0.1235 -0.0535 -0.0713
27048W        W43182   9.938  10.111   2.688  0.0098  0.0676  0.0975
27049W        W43183  12.438   1.028  16.808  0.1113  0.3603  0.0946
27050W        W43184   7.773   7.919   4.585 -0.2153 -0.1738  0.0588
27051W        W43185  16.993   6.445  13.396 -0.2470 -0.1735 -0.1054
27052W        W43186  10.191  10.916  12.339  0.0895  0.1290 -0.3039
27053W        W43187   0.548  11.077   4.112  0.0464 -0.1008  0.0316
27054W        W43188  14.817   9.655  11.653 -0.2194 -0.0249  0.0791
27055W        W43189   2.690  16.892   1.042 -0.3224  0.1561  0.1414
27056W        W43190   1.414   6.271   3.835  0.0318  0.2001  0.3512
27057W        W43191   0.351   6.377  11.943 -0.0248  0.1344 -0.1319
27058W        W43192   6.497   4.607  16.386  0.1276 -0.1630  0.2885
27059W        W43193  12.007  12.334   5.444 -0.1021 -0.2142  0.2944
27060W        W43194   6.100   5.370   4.926 -0.1574  0.2384  0.1267
27061W        W43195   2.876   8.725  16.198 -0.0139 -0.0802 -0.0301
27062W        W43196  12.195   9.028  11.986 -0.1947  0.1167  0.2064
27063W        W43197  12.708   1.024   1.524 -0.1809 -0.0684 -0.0062
27064W        W43198  15.466  15.947   0.829  0.0304 -0.2228  0.0790
27065W        W43199   8.756   9.270  13.894 -0.3053 -0.0393 -0.0640
27066W        W43200  12.424   5.703  13.240 -0.0029 -0.1577  0.2529
27067W        W43201  16.603  11.481  16.555 -0.1064 -0.0702 -0.3419
27068W        W43202   2.996  16.365   1.778  0.4044 -0.0213  0.2150
27069W        W43203   7.495   6.693  14.428 -0.0484 -0.2209  0.2789
27070W        W43204  17.018   2.233   3.358 -0.1145 -0.1346  0.4835
27071W        W43205   0.155  15.291  13.597 -0.1161  0.1875  0.1624
27072W        W43206  10.969   7.660  11.647 -0.1904  0.0164  0.0341
27073W        W43207  10.496   0.925   5.882 -0.0009  0.3903  0.3001
27074W        W43208   3.869  15.366  16.982 -0.1536  0.2030  0.0133
27075W        W43209  11.607  15.932  14.325 -0.2175  0.2311  0.2598
27076W        W43210  13.555   0.213  15.659 -0.1936  0.2345 -0.0781
27077W        W43211   0.453   6.853  13.352  0.0618 -0.3350 -0.0806
27078W        W43212   5.709  15.743  16.574 -0.0269  0.3453 -0.0441
27079W        W43213  16.310   9.969   4.355 -0.0053 -0.3319  0.1499
27080W        W43214  16.996  15.907  11.939  0.1756  0.0070  0.1193
27081W        W43215   5.979   7.320   5.448  0.0233  0.1729  0.0087
27082W        W43216  12.506   9.760  13.305 -0.2205  0.3228  0.1024
27083W        W43217   0.612  13.614   2.462 -0.0593 -0.0858  0.0392
27084W        W43218  14.505   6.596  14.493  0.2511  0.2718  0.2361
27085W        W43219  15.552   5.465   2.177  0.0729 -0.1656  0.1962
27086W        W43220  10.658   6.207   5.772 -0.0436  0.1675 -0.0542
27087W        W43221   0.323   1.677   7.165 -0.0765  0.2351 -0.0746
27088W        W43222  12.924   6.784   5.009  0.0538  0.2688 -0.3128
27089W        W43223  13.645   4.967  12.807  0.0011  0.0536  0.0883
27090W        W43224   6.509  12.205  12.365  0.2555  0.2678 -0.2051
27091W        W43225   8.181   3.484   0.118  0.0943 -0.1418 -0.1011
27092W        W43226  16.457   1.478  13.005 -0.2700 -0.0414  0.0641
27093W        W43227  13.269  11.288   3.194 -0.2461 -0.2119  0.1991
27094W        W43228   1.308  12.705  12.148 -0.1141 -0.1709 -0.1595
27095W        W43229   6.677   0.430   0.043  0.2969 -0.0718 -0.0367
27096W        W43230   5.603   0.502  14.229  0.0933  0.0164  0.2513
27097W        W43231  15.413  17.246   1.363 -0.1459 -0.1710  0.1474
27098W        W43232   7.242  17.355   0.763 -0.2833 -0.2957  0.2073
27099W        W43233   0.581   2.372   4.521 -0.0883 -0.1148  0.3786
27100W        W43234   8.934   1.423  13.245 -0.1509 -0.1392 -0.0484
27101W        W43235  10.533   6.045   0.296  0.1684 -0.0305  0.1886
27102W        W43236   1.846  16.120   0.278 -0.0584  0.0097 -0.0219
27103W        W43237   5.508   5.911   2.867 -0.0470 -0.1187  0.1982
27104W        W43238  14.789  17.370  15.259  0.1354 -0.0740  0.1973
27105W        W43239   2.249   1.054   1.199  0.0128  0.0298  0.1923
27106W        W43240   0.283   2.746   2.260  0.1688 -0.0543  0.0831
27107W        W43241  10.276   2.850  11.566  0.1718  0.0569 -0.1117
27108W        W43242  17.479   2.808   0.642  0.1114  0.2502 -0.1145
27109W        W43243   6.531   2.196  12.701 -0.2006 -0.1522  0.3961
27110W        W43244  15.286   0.127  15.851 -0.2377 -0.1066  0.2145
27111W        W43245   7.180   5.621   1.525 -0.3962  0.0046 -0.1474
27112W        W43246   1.560   2.133   3.429  0.0813 -0.1118  0.3904
27113W        W43247   8.750   8.224  12.350 -0.2345  0.0909 -0.1126
27114W        W43248  15.488   3.936   4.307 -0.0382  0.3357  0.1171
27115W        W43249  10.561   1.837   1.992 -0.0404 -0.2002 -0.1299
27116W        W43250  12.402   5.046   0.262  0.2979 -0.1638  0.1874
27117W        W43251  14.396   4.510   1.355 -0.0441  0.3990 -0.7583
27118W        W43252   4.474   1.634  12.817 -0.0872 -0.2386 -0.1936
27119W        W43253   6.549  16.517   3.154  0.0364  0.3318 -0.0388
27120W        W43254   1.242   7.502  11.738 -0.1529  0.1005  0.1842
27121W        W43255  11.596   4.849   4.166 -0.0592 -0.0722  0.0084
27122W        W43256   3.046   0.349   5.229  0.2846  0.1656  0.3416
27123W        W43257   5.733   1.675  12.283  0.0958 -0.1113 -0.0915
27124W        W43258   9.527  14.165   3.142 -0.0516  0.3643  0.1011
27125W        W43259   2.688   8.368  12.660  0.0450 -0.0713  0.0770
27126W        W43260   9.622  12.746  15.192 -0.0596 -0.2613 -0.0732
27127W        W43261   0.282  13.927  14.719  0.1394  0.0209 -0.2654
27128W        W43262   5.694   5.879  15.619  0.4349  0.1169 -0.1236
27129W        W43263  11.617  14.018   0.421 -0.0401  0.1515  0.0778
27130W        W43264   1.907   7.884   5.191  0.0741  0.2692  0.0789
27131W        W43265   7.095  14.002  12.388  0.0343 -0.2348  0.2943
27132W        W43266   3.303  10.711   4.395 -0.2042  0.0345  0.2687
27133W        W43267  15.246   6.098  14.552  0.0718  0.0895 -0.0313
27134W        W43268  15.977  14.440  12.409  0.0568 -0.1818 -0.1745
27135W        W43269   4.969   1.281  13.999 -0.1715  0.1411 -0.2005
27136W        W43270   2.255  11.537  13.037 -0.1266  0.2032  0.4054
27137W        W43271   8.655  15.600  15.380  0.1123 -0.0937  0.0422
27138W        W43272   1.112   0.834   1.386  0.1626  0.0998 -0.0538
27139W        W43273   5.267   9.977  16.666 -0.0343  0.1876  0.0007
27140W        W43274  14.270  11.857  12.186  0.0722 -0.1739  0.2430
27141W        W43275  11.142  12.220   0.848 -0.2284  0.0991 -0.2418
27142W        W43276  11.617   7.489  15.906 -0.1837 -0.1264 -0.2812
27143W        W43277   1.923   6.735   1.660  0.0809  0.0519  0.0566
27144W        W43278  12.820   8.129   5.322  0.1018 -0.2915  0.2751
27145W        W43279  11.763  10.599   1.542 -0.1754 -0.2193  0.1776
27146W        W43280  14.212  16.665   3.006  0.3343  0.0936 -0.3539
27147W        W43281  16.039   2.270   2.923 -0.1127  0.2587 -0.0350
27148W        W43282   4.857   9.466   3.626  0.2016  0.0779 -0.0085
27149W        W43283   0.905   2.237  12.110 -0.4325  0.2726  0.1760
27150W        W43284  11.084   4.959   3.149 -0.0917  0.1823  0.0785
27151W        W43285   4.717   2.241   6.507  0.5670 -0.0358  0.0278
27152W        W43286  13.775  13.509   2.589  0.0727 -0.1553 -0.1617
27153W        W43287   3.463   8.376   0.036  0.1842  0.2001  0.1065
27154W        W43288   7.906  14.151   1.413 -0.2574  0.1540  0.0616
27155W        W43289   5.829   6.824   4.905  0.1475  0.0076  0.0891
27156W        W43290   0.069   3.577   2.989  0.0798  0.0656 -0.1287
27157W        W43291   6.384   3.475  15.414 -0.0814 -0.1489 -0.0329
27158W        W43292   4.221   0.440   3.657  0.2493 -0.1331 -0.0769
27159W        W43293  13.247   3.938  11.441  0.2960  0.1383  0.1343
27160W        W43294   4.526   1.319  13.748  0.1032  0.1239 -0.3511
27161W        W43295   3.392   5.823   6.112 -0.0783 -0.1406 -0.1027
27162W        W43296   2.586  16.815   5.354 -0.0640  0.1637 -0.1690
27163W        W43297  10.438   7.791   0.174 -0.0615  0.0086  0.3503
27164W        W43298   4.981   9.037   0.290  0.2488  0.0887  0.1328
27165W        W43299   7.006  16.426   4.935 -0.4007  0.1693  0.0719
27166W        W43300  15.145   9.202   4.369  0.0150  0.1229 -0.0254
27167W        W43301   1.464  11.206  15.899 -0.1820  0.1164  0.0005
27168W        W43302  14.236   5.283  15.345 -0.3454 -0.1780  0.2433
27169W        W43303   8.673   7.857   0.571  0.1506 -0.0439  0.0429
27170W        W43304  12.752  14.313   5.732 -0.1226 -0.1239  0.0215
27171W        W43305  11.659   0.179  13.135 -0.0020  0.3012  0.0602
27172W        W43306  11.501  17.373  12.125 -0.1389 -0.0703 -0.3016
27173W        W43307   1.926   9.327   0.015 -0.1738  0.0778 -0.0594
27174W        W43308  12.094  13.368  14.470 -0.2161 -0.3349  0.2077
27175W        W43309  10.022   5.855   5.499 -0.2428  0.2924 -0.1674
27176W        W43310  11.219   0.106  12.069 -0.1386 -0.1407 -0.2580
27177W        W43311  17.167  14.442   3.153  0.1075 -0.2152 -0.1482
27178W        W43312  14.988   8.186  11.971 -0.1056  0.0306 -0.2873
27179W        W43313  17.238  16.936  12.432 -0.2654  0.0831 -0.1759
27180W        W43314   1.350  16.082   0.100 -0.4453  0.3306  0.2552
27181W        W43315   0.648   3.946   1.239  0.0833 -0.0860 -0.3434
27182W        W43316  17.065   3.510  12.852  0.1606 -0.0816 -0.2638
27183W        W43317  16.437   1.043   0.959  0.3834  0.1077  0.2303
27184W        W43318   0.205  16.380  15.051 -0.2012  0.0368  0.1898
27185W        W43319  14.834   3.458  13.868  0.0519 -0.1242  0.0691
27186W        W43320  16.242  11.651   2.220 -0.1510  0.0022 -0.1224
27187W        W43321  14.804   5.465  12.309 -0.2663  0.1972  0.0437
27188W        W43322   2.139  14.286  13.246  0.2259 -0.3270  0.5081
27189W        W43323  16.960   4.940  15.345  0.3744 -0.0743 -0.1410
27190W        W43324   1.989   2.661  15.730  0.1336 -0.1274  0.0667
27191W        W43325   0.421  12.248  12.589  0.0457  0.1474 -0.1930
27192W        W43326  11.656   5.246   2.979  0.0035  0.0354 -0.0424
27193W        W43327   2.244   4.772  12.698 -0.2878  0.2399 -0.1185
27194W        W43328  10.117   0.635   4.502 -0.0353 -0.1243 -0.0288
27195W        W43329   6.232   9.950  15.674  0.1488 -0.1039 -0.2817
27196W        W43330   8.885  15.978  15.643 -0.1107  0.2303 -0.0962
27197W        W43331   0.820   9.291  14.057 -0.0778 -0.0730  0.0783
27198W        W43332   4.691  12.693  16.419  0.1450  0.0123  0.0221
27199W        W43333   8.927   9.695   6.436  0.1752 -0.3097 -0.0208
27200W        W43334  15.964   1.300  16.040  0.0280 -0.1154 -0.0282
27201W        W43335   1.460  15.631  12.323 -0.0482  0.0428 -0.0486
27202W        W43336   6.960   9.852  16.432 -0.0818 -0.1602 -0.2661
27203W        W43337   0.906   6.086   1.383 -0.1806 -0.3871  0.0684
27204W        W43338   0.007  13.252  16.029  0.3635  0.3006  0.0410
27205W        W43339  15.133   4.093  15.331 -0.0578  0.0882  0.1029
27206W        W43340  10.987  15.163   3.181  0.1573 -0.1642  0.4464
27207W        W43341   9.979  12.729  12.237 -0.1867  0.4166 -0.0130
27208W        W43342  11.388  17.164   5.987 -0.1995 -0.1777 -0.4808
27209W        W43343   1.709   8.757  12.901  0.4374 -0.0681  0.1919
27210W        W43344   5.010   8.283   4.293  0.0356  0.4418 -0.3337
27211W        W43345   2.890   7.955   5.261 -0.0306  0.0674  0.0726
27212W        W43346   7.124   2.035   4.968 -0.2190 -0.1609 -0.1456
27213W        W43347   3.101  10.016  15.064 -0.1389 -0.3595  0.1387
27214W        W43348   4.474   2.605   3.464  0.1285 -0.0984  0.0759
27215W        W43349   0.012  14.001   1.716  0.1084 -0.4037  0.1115
27216W        W43350   2.322   3.728   2.861  0.0787  0.4837  0.0088
27217W        W43351   6.406   7.787  16.141  0.1812 -0.0027  0.1044
27218W        W43352   2.356  11.844  16.768 -0.0146 -0.0172 -0.2310
27219W        W43353  10.330  11.784   0.394 -0.0418 -0.2087 -0.0954
27220W        W43354   8.614  16.910   1.266  0.0105 -0.1576 -0.0978
27221W        W43355   4.671  15.606   3.090 -0.0664 -0.2207 -0.2459
27222W        W43356   5.802  16.690  14.741 -0.0574  0.2134 -0.2755
27223W        W43357  13.126   5.743  16.004  0.1466  0.1805 -0.1913
27224W        W43358  14.586  17.403   2.103  0.0300  0.2306 -0.2883
27225W        W43359  13.787   1.794  15.663  0.2263 -0.1246 -0.1859
27226W        W43360   6.814  11.942   1.568  0.1405 -0.0370 -0.0640
27227W        W43361  14.875  13.928  11.798  0.2124  0.2209 -0.4444
27228W        W43362   4.617   5.208  15.944  0.0148  0.0073 -0.2227
27229W        W43363   2.388   2.200  12.465 -0.0966  0.0535  0.2390
27230W        W43364  17.174   0.500   5.888 -0.0241 -0.2442  0.1246
27231W        W43365   1.776   7.497   3.913  0.0183  0.3229  0.0611
27232W        W43366  15.102  10.009  14.282 -0.0460  0.2456  0.1468
27233W        W43367   2.829   6.816  11.373  0.0484 -0.2932  0.0222
27234W        W43368   3.118   2.353  12.674 -0.1753 -0.1491 -0.0053
27235W        W43369  11.818  14.482   0.411  0.0729  0.0160  0.1872
27236W        W43370  12.700  16.037   5.364  0.2179  0.1114  0.2195
27237W        W43371  12.403  11.796  15.974  0.0665  0.1226 -0.2096
27238W        W43372   6.472   3.889  15.807  0.1418  0.0970  0.0530
27239W        W43373   7.159  16.895   6.386 -0.0719 -0.1341  0.0441
27240W        W43374   7.265  14.865  12.087 -0.0497 -0.0033 -0.2373
27241W        W43375  16.618  13.965   5.514  0.1674 -0.2014  0.1271
27242W        W43376  12.437   8.243   5.550  0.1636 -0.1069 -0.1255
27243W        W43377   1.686  13.390   2.926 -0.3546 -0.0705 -0.0636
27244W        W43378   0.434  15.761   3.380 -0.3314 -0.1274  0.1728
27245W        W43379   0.670  11.823   2.013  0.0537 -0.0457  0.2312
27246W        W43380   0.394   0.092   1.976  0.2175 -0.0815  0.2569
27247W        W43381  10.357  10.513  14.051  0.2743  0.2823  0.1994
27248W        W43382  14.826   3.836  12.662 -0.0685  0.1519  0.1330
27249W        W43383  10.249   9.109  13.493 -0.0267  0.4852  0.1911
27250W        W43384  17.427  14.110  16.880 -0.3403  0.0641  0.1315
27251W        W43385   3.437  15.816   2.027  0.2199  0.3302 -0.0487
27252W        W43386  15.430  13.186   5.355 -0.0931  0.3428  0.1748
27253W        W43387   7.619  12.646   4.254 -0.2307  0.0623 -0.0319
27254W        W43388   5.135   4.105  15.143  0.1584 -0.2525  0.0159
27255W        W43389   3.413   8.148  15.265  0.0446 -0.1036 -0.0475
27256W        W43390   1.374   0.783   3.494 -0.0382 -0.2098 -0.0009
27257W        W43391  14.196  11.027  11.686  0.1679  0.1342  0.0855
27258W        W43392   0.787   0.399   6.543  0.2254 -0.2425 -0.1202
27259W        W43393  13.435   7.088   2.763 -0.1263  0.3491 -0.1120
27260W        W43394  12.577   2.780  12.953 -0.0848 -0.1381  0.0599
27261W        W43395  11.676   7.690   3.014 -0.0181  0.3842 -0.0553
27262W        W43396   5.100  12.557  12.697  0.0627  0.1947 -0.0461
27263W        W43397  12.476   1.708   1.914  0.1167 -0.0679  0.2322
27264W        W43398  10.071   7.998   0.418  0.1674  0.2162 -0.1404
27265W        W43399   9.740   9.965  16.734  0.0367  0.2393 -0.0391
27266W        W43400  11.180   8.093  11.827  0.4744  0.3013 -0.1859
27267W        W43401   8.920  14.789   1.737  0.1440  0.0466  0.0548
27268W        W43402   4.657  13.178   6.284 -0.1236  0.5073 -0.0014
27269W        W43403  15.078   7.283  11.416  0.0947 -0.3637  0.0001
27270W        W43404   7.636  17.327  17.023  0.1282  0.2495 -0.1778
27271W        W43405   4.689   3.878   4.508  0.1246 -0.0637  0.0557
27272W        W43406   3.415   2.343   1.989 -0.1771  0.0354 -0.1093
27273W        W43407  14.271  10.142  16.157  0.1063  0.1305  0.0733
27274W        W43408   2.214   8.945   0.171 -0.2353 -0.0616  0.0484
27275W        W43409  12.413   7.193   5.500  0.0933  0.2335 -0.1830
27276W        W43410   2.708   6.553   5.140 -0.2511  0.1937 -0.2153
27277W        W43411  10.343  15.734   1.170  0.0039  0.0347  0.0118
27278W        W43412   1.166  15.375  16.799 -0.3987 -0.0720  0.1112
27279W        W43413   1.244  17.350   2.932  0.0224  0.0509 -0.0246
27280W        W43414  10.844  10.829   5.418  0.0725 -0.0868 -0.1089
27281W        W43415   7.643  13.744  16.155 -0.0998  0.0576 -0.1804
27282W        W43416  17.040   9.563   3.649 -0.3009  0.1203 -0.1501
27283W        W43417   6.979  11.917  12.512  0.0328  0.3786  0.2601
27284W        W43418   8.477  13.668   0.838  0.4990  0.2872 -0.0283
27285W        W43419  10.029  10.507   1.351 -0.0743  0.0900  0.3309
27286W        W43420  10.317   0.636   0.175 -0.3012 -0.0822  0.1766
27287W        W43421   7.962  16.292   0.139 -0.0930  0.2320  0.1319
27288W        W43422  11.389  16.558  14.167  0.2048  0.2320  0.0289
27289W        W43423  12.743   4.041   0.344  0.3148 -0.0965 -0.0940
27290W        W43424   0.283  16.825  13.783  0.0038  0.1677  0.0893
27291W        W43425   9.053  10.826  16.050  0.0542 -0.2160 -0.0640
27292W        W43426  16.536  15.143  17.025  0.1205 -0.0183  0.1044
27293W        W43427  13.174  14.682  13.213 -0.0828  0.1576 -0.0671
27294W        W43428   2.663   2.146   4.493 -0.3485  0.0014  0.1594
27295W        W43429  17.430   6.451   1.351 -0.1905  0.0002  0.0820
27296W        W43430  12.848  14.425   1.021  0.1244  0.3769  0.1698
27297W        W43431  16.060   9.289  15.937 -0.2861 -0.4991 -0.1377
27298W        W43432   8.565  12.587  15.528 -0.1263  0.1931 -0.0346
27299W        W43433   2.118  15.045   6.067 -0.1148 -0.0143 -0.0042
27300W        W43434  12.954  14.743   1.468 -0.2795  0.0927 -0.0833
27301W        W43435  14.003   6.919   4.961 -0.0814  0.2612  0.0882
27302W        W43436   1.712   2.348  15.419 -0.1117 -0.5082 -0.0047
27303W        W43437   0.754   3.236  17.029  0.1130 -0.3311  0.0087
27304W        W43438  15.530  15.528   5.619 -0.0113  0.1873 -0.3702
27305W        W43439   5.957  12.699  16.272  0.0311 -0.0019 -0.0617
27306W        W43440   4.490  11.189   3.749  0.1973  0.2315 -0.2015
27307W        W43441   8.314  14.126   4.835  0.1136 -0.0200  0.1488
27308W        W43442   3.216  15.686   5.539 -0.2081 -0.3802 -0.0096
27309W        W43443  17.068  10.113  16.608 -0.0974 -0.2215 -0.1836
27310W        W43444  10.969  14.686  12.537 -0.0477 -0.0333  0.0476
27311W        W43445  11.130  10.505  14.744 -0.2616 -0.2026 -0.4291
27312W        W43446  10.199   7.188   2.407 -0.1748  0.4787 -0.4347
27313W        W43447  15.851  11.034  12.921  0.0531 -0.2783  0.0040
27314W        W43448   0.947   3.150   4.592  0.0298  0.0652 -0.5047
27315W        W43449   1.310   8.465  11.332  0.1227  0.1449 -0.1794
27316W        W43450  16.116   6.070   3.301 -0.2211 -0.0377  0.0260
27317W        W43451   7.871  12.644   6.187  0.0453  0.1200 -0.0267
27318W        W43452   5.987  13.789   4.019  0.0096  0.2025 -0.1030
27319W        W43453   4.913  15.222   4.905  0.0605 -0.0077  0.1202
27320W        W43454  17.561   8.378  15.192  0.1905 -0.3139  0.2305
27321W        W43455   6.471  16.948   5.860  0.1471  0.1479 -0.1042
27322W        W43456   2.842   0.855  13.092  0.1716 -0.0257  0.1622
27323W        W43457   7.777   1.279  14.957  0.0274  0.0236 -0.2208
27324W        W43458  13.004   7.862   4.884  0.2808 -0.1380 -0.0671
27325W        W43459   6.800  15.016  17.023 -0.0781  0.0610  0.4029
27326W        W43460  17.374  16.639  15.042 -0.1315 -0.1773 -0.0032
27327W        W43461   7.371  11.708  16.941  0.2293 -0.1767 -0.1768
27328W        W43462   3.358   4.606   2.322 -0.2775  0.0144 -0.0065
27329W        W43463  14.187  10.313  15.095  0.0377  0.1411 -0.0156
27330W        W43464   3.542   9.286  16.218  0.2377 -0.3767 -0.0582
27331W        W43465  10.096   1.944  14.483 -0.0304 -0.2756  0.1599
27332W        W43466   7.750   5.074   4.589  0.3625  0.0306 -0.3893
27333W        W43467   0.921  11.611  11.170  0.1409  0.1864 -0.0730
27334W        W43468  11.341   1.185  15.204 -0.4746 -0.2897  0.0111
27335W        W43469   1.619   9.169  11.628  0.0476  0.2672  0.2151
27336W        W43470   1.826   1.282  14.897 -0.2072 -0.1690 -0.1825
27337W        W43471  15.844  14.570  13.064 -0.3695 -0.2767 -0.0940
27338W        W43472   6.798   3.109   2.330 -0.0117  0.1548 -0.0137
27339W        W43473   1.935   7.846   1.735 -0.1672  0.0907 -0.0316
27340W        W43474  16.855  17.484   1.467  0.2501  0.0008 -0.2255
27341W        W43475  16.937   3.935   1.369 -0.2711 -0.1820  0.0337
27342W        W43476  16.778  13.850  13.056  0.2358  0.0772  0.0562
27343W        W43477   3.871  11.702  12.994 -0.0268 -0.0116 -0.1319
27344W        W43478  10.447  10.863   3.781 -0.2096  0.1429 -0.0992
27345W        W43479   9.158  11.073  11.417  0.1988  0.0492 -0.1257
27346W        W43480   8.494  11.659   0.307 -0.2235  0.1827 -0.0161
27347W        W43481   1.326   2.152   2.938 -0.2105  0.1464  0.1330
27348W        W43482   0.918   6.774   0.034  0.1829  0.1626  0.2944
27349W        W43483  14.346   6.230  13.180  0.1406 -0.2003 -0.1178
27350W        W43484  17.458   8.054  16.482 -0.1056 -0.1479 -0.0835
27351W        W43485   2.481  16.636   6.353  0.1766  0.3067 -0.0284
27352W        W43486  15.581   7.051   4.896  0.0277 -0.0729 -0.1006
27353W        W43487   3.073   8.402  13.946 -0.3513  0.2735 -0.3060
27354W        W43488  14.276  14.228   5.740  0.0498  0.0988  0.0404
27355W        W43489   8.399  10.566  13.709  0.0324  0.2325  0.0293
27356W        W43490  16.037   5.057   3.673  0.0465 -0.1098 -0.0822
27357W        W43491  15.978   5.336  12.365  0.3209  0.0759 -0.2429
27358W        W43492  11.310  11.596  14.089  0.0596  0.1617 -0.0347
27359W        W43493  11.847   2.514  15.522  0.1027 -0.1003  0.1904
27360W        W43494  15.541   3.182   1.274 -0.1105  0.2899 -0.0858
27361W        W43495   6.026   1.459   1.046  0.0843 -0.2586 -0.0974
27362W        W43496  14.488  17.413   4.652  0.0076 -0.1123 -0.4510
27363W        W43497  14.557   7.168  13.295 -0.3255  0.0747  0.1746
27364W        W43498   3.662   2.232   1.097 -0.0333  0.0367  0.0173
27365W        W43499   8.979  12.562  13.889 -0.0533 -0.0868  0.0342
27366W        W43500   0.220  13.891   5.835 -0.0718 -0.0790 -0.0616
27367W        W43501  12.533   8.455   3.368 -0.3933  0.0020 -0.1780
27368W        W43502   8.635  11.272  17.093 -0.0092 -0.0763 -0.4190
27369W        W43503   5.040   6.662  11.407 -0.0492 -0.0112  0.2448
27370W        W43504  15.171  11.995   4.501  0.1436  0.1314  0.1510
27371W        W43505  10.628  16.062  12.322  0.1055 -0.1052  0.2855
27372W        W43506  16.362  13.205   5.299  0.0661  0.2018  0.0871
27373W        W43507   5.286  17.259  15.520 -0.0400  0.0048 -0.1211
27374W        W43508  11.626  15.203   2.045  0.0081 -0.0538  0.1246
27375W        W43509   9.087   7.058  13.796 -0.1447 -0.0841  0.1460
27376W        W43510   3.581   0.477   5.186  0.0056 -0.3162 -0.3099
27377W        W43511  10.839   0.799   0.299  0.1418 -0.0806 -0.0044
27378W        W43512  11.637   1.431   0.956 -0.0962 -0.0728 -0.0636
27379W        W43513  13.719   4.340   2.900  0.0939 -0.0538 -0.0961
27380W        W43514   7.060  13.695  14.823 -0.3189  0.0127  0.0452
27381W        W43515  11.153  17.096  14.218  0.0022  0.0772 -0.2235
27382W        W43516  12.281  12.572  15.648  0.0804  0.2131 -0.0317
27383W        W43517  16.945   4.243  11.059 -0.2093 -0.0257 -0.1396
27384W        W43518  15.601   8.883   1.924 -0.0896 -0.1692  0.2220
27385W        W43519   9.443  17.145  12.738  0.0122  0.0696  0.1279
27386W        W43520  10.217  16.370  17.015  0.0034 -0.0478 -0.0278
27387W        W43521  14.361   4.091   3.898  0.2488  0.0086  0.0992
27388W        W43522  12.502  10.555   4.181  0.0302 -0.4295  0.0255
27389W        W43523   0.169   3.115   1.885 -0.0730  0.0486  0.0553
27390W        W43524   8.175   2.667   0.785 -0.0187  0.0380 -0.2375
27391W        W43525   3.633   6.228   5.389  0.1439  0.1152  0.1757
27392W        W43526  12.892  13.964  13.638 -0.0583 -0.2057 -0.0594
27393W        W43527  11.617   9.175   3.663 -0.0768  0.0358  0.0198
27394W        W43528  10.066  13.577   1.460 -0.1925  0.0845 -0.0920
27395W        W43529   5.227   4.440  14.418 -0.0398 -0.0798 -0.1215
27396W        W43530  17.038   4.165   5.942 -0.1417 -0.1477  0.2400
27397W        W43531  17.131   3.604   3.661  0.0147 -0.1371  0.0931
27398W        W43532   2.583   1.466   2.061 -0.1187 -0.0016  0.1285
27399W        W43533  11.881   8.139  15.168 -0.0490 -0.1016 -0.0182
27400W        W43534   3.720   2.596   3.623 -0.0208  0.1154  0.0774
27401W        W43535  10.636  14.989   4.033  0.0989 -0.1612  0.1759
27402W        W43536  15.855   5.095   0.537 -0.2342 -0.1025 -0.1380
27403W        W43537   1.144   3.699   5.593  0.2280 -0.1735 -0.0009
27404W        W43538   3.994   6.384  13.856 -0.0007 -0.1400 -0.0649
27405W        W43539  13.013  11.329  13.684  0.2469 -0.1455  0.0562
27406W        W43540   3.686   7.548  12.321  0.1203 -0.2300 -0.1551
27407W        W43541   1.096  13.534   4.022  0.1768  0.2251 -0.1113
27408W        W43542  10.903   9.922   3.913 -0.0846 -0.0837  0.0634
27409W        W43543  17.572  16.372   5.602  0.3120  0.2468 -0.3236
27410W        W43544   0.864   5.309   4.646 -0.0468 -0.0783  0.0917
27411W        W43545  15.141   4.796   1.851  0.2292 -0.0094  0.1262
27412W        W43546   7.197  15.153   5.920  0.0129  0.3332  0.0570
27413W        W43547  12.917  17.131   6.324 -0.0090  0.0462 -0.2628
27414W        W43548   4.557  15.398   1.435  0.0131 -0.0977 -0.3066
27415W        W43549   4.384  17.079   1.443 -0.0583  0.1354  0.2090
27416W        W43550   2.603  15.013  12.949 -0.1344  0.3267 -0.1869
27417W        W43551   6.849   6.210  15.565 -0.2682  0.2888  0.1281
27418W        W43552  13.993  16.728  16.304 -0.0903  0.1538 -0.0408
27419W        W43553  14.522  16.511  16.871  0.1131 -0.0151  0.1206
27420W        W43554   4.346   6.572  15.557  0.2067  0.1726 -0.2756
27421W        W43555   4.437  16.699  12.625 -0.0991 -0.2221 -0.0417
27422W        W43556  11.615   7.550   0.022  0.0097 -0.0984  0.0558
27423W        W43557   5.012  12.507  14.325 -0.0002  0.0604  0.1772
27424W        W43558  12.829   3.673  11.418  0.0133 -0.0390 -0.2956
27425W        W43559  13.847  17.154   6.661  0.0289 -0.0880  0.1452
27426W        W43560   2.407  15.815  16.896 -0.0640  0.0946  0.1936
27427W        W43561   6.304   0.245   5.095 -0.1949  0.0131  0.2526
27428W        W43562   1.293   4.349  15.802 -0.2648  0.0134 -0.2643
27429W        W43563   1.021  13.373   2.143 -0.2315 -0.1631  0.0950
27430W        W43564  11.957   3.295  15.695  0.2954 -0.3891 -0.1470
27431W        W43565   1.990   4.529  11.583 -0.1370 -0.0967 -0.2845
27432W        W43566  11.120   7.717  17.104 -0.1628 -0.1258 -0.1429
27433W        W43567   8.001   8.190  15.090 -0.2215 -0.1927 -0.0644
27434W        W43568   5.800   5.636   3.531 -0.0211  0.1844 -0.3531
27435W        W43569  17.281  12.270   2.741 -0.1779  0.0379  0.1091
27436W        W43570  16.292   6.487   0.642 -0.2807  0.0298 -0.1786
27437W        W43571   1.439  10.765  12.911 -0.0162  0.0090 -0.1027
27438W        W43572  16.181   8.146  15.052 -0.1211 -0.2478 -0.2107
27439W        W43573  13.018   1.267   1.099 -0.3929 -0.0587 -0.1904
27440W        W43574   7.151  17.084   4.311  0.0792 -0.1530  0.1523
27441W        W43575   2.930   4.912   2.019 -0.0424 -0.0481 -0.2935
27442W        W43576  13.516  10.835  11.720  0.1124  0.0428 -0.2039
27443W        W43577  11.940  15.571   2.228 -0.2209  0.0992 -0.1177
27444W        W43578  13.010  11.643   5.390 -0.1665  0.0286 -0.1925
27445W        W43579   7.241   7.069  11.994 -0.1908  0.2255 -0.3630
27446W        W43580   2.362  13.710   2.220  0.1875  0.0926 -0.3191
27447W        W43581   8.728  11.307  16.552 -0.3588  0.0208 -0.1591
27448W        W43582   0.304  10.215  12.442 -0.2855 -0.0064 -0.0108
27449W        W43583   6.483  15.988  16.769 -0.4336  0.0822 -0.1723
27450W        W43584  13.446   7.826  10.469 -0.1297 -0.0171 -0.1094
27451W        W43585   4.168   8.609   4.993 -0.2261  0.0868 -0.0994
27452W        W43586   3.257   2.904  16.637  0.0035  0.3657 -0.2099
27453W        W43587  16.733  14.109   6.470  0.0089  0.2105  0.3749
27454W        W43588   6.618   8.313   1.999 -0.0457 -0.2314  0.1136
27455W        W43589   2.020  11.109  15.763 -0.2899 -0.0501  0.2450
27456W        W43590   4.699   5.622   1.663 -0.3795 -0.0691 -0.0765
27457W        W43591   1.149   0.307  13.657  0.0190  0.0069  0.0415
27458W        W43592   1.947  10.612   2.902  0.2092  0.0147 -0.3303
27459W        W43593  17.425  11.504  16.484 -0.1410  0.2864  0.1311
27460W        W43594  10.041  12.528  15.418  0.1079 -0.2135  0.0288
27461W        W43595   5.747  13.033   3.098  0.3461 -0.1756  0.1119
27462W        W43596  13.057  15.443  16.875  0.2664  0.1264  0.2506
27463W        W43597   0.770  14.786   4.218  0.1665  0.2142  0.2430
27464W        W43598   7.663   5.312   0.926  0.3527  0.0511  0.1426
27465W        W43599   0.711  17.098  16.827  0.1603 -0.2974 -0.0783
27466W        W43600   5.443   1.812   5.532  0.1271 -0.0066  0.5358
27467W        W43601   5.837  15.827   0.377 -0.0348 -0.0795  0.0883
27468W        W43602   3.112  11.237  12.579 -0.0589  0.0320  0.3235
27469W        W43603  16.678  17.332   4.793 -0.2124 -0.2836 -0.0295
27470W        W43604  14.486   5.433  13.223  0.1199 -0.0190  0.3341
27471W        W43605   3.275   5.642   1.854  0.2012  0.1844 -0.0265
27472W        W43606  17.311   8.077   3.351  0.1549  0.0100  0.1563
27473W        W43607   0.653   6.588  14.760 -0.0468 -0.1630  0.3881
27474W        W43608  11.508   8.249   4.646 -0.0198  0.1377  0.1617
27475W        W43609   3.303  13.839   3.090 -0.0860  0.1200 -0.0420
27476W        W43610   5.089  17.436   1.894  0.1532  0.2284  0.1623
27477W        W43611  15.857   4.786  12.302 -0.0747  0.0072  0.0288
27478W        W43612   3.517  12.834   1.664  0.0333 -0.0192 -0.1886
27479W        W43613  14.272   7.228   5.238  0.1611 -0.0949 -0.1973
27480W        W43614  17.167   4.954   2.964  0.0688 -0.1979  0.2757
27481W        W43615  16.356  10.783  12.688 -0.1774  0.0218 -0.0817
27482W        W43616  14.305   5.544  12.149  0.3163  0.0994 -0.0496
27483W        W43617  13.916  14.420   2.234 -0.0243 -0.2743  0.0833
27484W        W43618   5.037   9.564  12.782  0.4131  0.2189 -0.0327
27485W        W43619   9.840  13.665   4.314 -0.1343  0.1351 -0.5949
27486W        W43620  13.550   5.520  12.319 -0.3018  0.0483  0.3712
27487W        W43621  15.627   7.824  13.540 -0.2291  0.0711 -0.1167
27488W        W43622  10.880  13.481   0.897 -0.0758  0.0731 -0.0277
27489W        W43623   4.469   6.321   5.086 -0.1440  0.0099  0.1487
27490W        W43624   3.771   3.901  11.968  0.1215 -0.1198 -0.4005
27491W        W43625  11.114   7.112   4.869  0.2583  0.1164  0.2447
27492W        W43626   5.942   4.031  14.806  0.3080 -0.0986 -0.2393
27493W        W43627   1.413   3.198  11.731  0.1331  0.3324  0.1033
27494W        W43628   0.905   2.010   3.218  0.4030 -0.1525 -0.0133
27495W        W43629  11.620   4.164  16.447 -0.2232 -0.1329 -0.0993
27496W        W43630   8.506  10.933  14.112 -0.1815 -0.1365 -0.1036
27497W        W43631   9.324  13.626   5.774 -0.0653  0.2802 -0.0617
27498W        W43632   8.008  16.539  16.697 -0.1091  0.1812 -0.1150
27499W        W43633   6.890  15.494  13.980 -0.0104 -0.0449  0.0677
27500W        W43634  15.079   3.420  12.819 -0.4485  0.4006 -0.1278
27501W        W43635   3.012   0.479   1.254 -0.0650  0.2690  0.1724
27502W        W43636   1.052  12.012  15.007  0.0576 -0.0456 -0.2375
27503W        W43637   6.868  15.024   3.406  0.1324  0.2176 -0.1883
27504W        W43638   4.532  12.905   3.553  0.3444  0.0662 -0.0620
27505W        W43639   5.027   2.664   5.705  0.1122 -0.0888 -0.3779
27506W        W43640   8.290   6.108  16.588 -0.0068 -0.3139 -0.0233
27507W        W43641   8.580   1.663  12.759 -0.2538 -0.0520 -0.1982
27508W        W43642   3.528   7.964  15.789  0.1138 -0.0370 -0.0636
27509W        W43643  10.858  10.120   3.483  0.0484 -0.2575  0.0993
27510W        W43644   0.209  15.702  12.919  0.0724 -0.0131  0.1054
27511W        W43645   5.042  10.073   5.563  0.1098  0.0268  0.0967
27512W        W43646   8.062   8.760  13.633 -0.4166  0.0289  0.3281
27513W        W43647  12.280   7.806   1.697  0.0066  0.0956  0.4817
27514W        W43648  16.212  14.829  12.758  0.4319 -0.1464 -0.0006
27515W        W43649   4.644   4.629  12.570 -0.1020  0.0864 -0.2428
27516W        W43650   5.004   1.919   2.118  0.0552 -0.0141  0.2857
27517W        W43651  16.623   3.057   1.854 -0.0033 -0.0751 -0.2056
27518W        W43652   6.716   9.798  14.630  0.2222  0.1163  0.1122
27519W        W43653   0.367   9.536   4.257 -0.1307 -0.0669 -0.0487
27520W        W43654  10.956   6.705  13.095  0.1296 -0.1495 -0.0909
27521W        W43655  17.453  11.973  16.141 -0.0543 -0.2923  0.0087
27522W        W43656  12.411   5.117  15.203  0.0027  0.0700 -0.0412
27523W        W43657   1.522   9.725   2.916 -0.1341 -0.2281 -0.1058
27524W        W43658   6.205   2.277  13.967  0.0917  0.3114 -0.0867
27525W        W43659  14.934  12.314   1.294  0.1050 -0.5299  0.1423
27526W        W43660   9.753   4.139   0.996 -0.2325  0.1506 -0.3235
27527W        W43661  15.198  17.450  16.802  0.1021  0.1049 -0.5125
27528W        W43662   8.425  16.858   4.356 -0.1547  0.0304 -0.1382
27529W        W43663  13.319   2.138   2.937  0.1433  0.0849  0.1177
27530W        W43664   6.907   8.473  14.925  0.1529  0.0627 -0.0136
27531W        W43665   4.832  10.687  11.789  0.0213  0.3069 -0.0501
27532W        W43666  10.884  10.465   5.795 -0.0948 -0.1370 -0.0605
27533W        W43667  10.844   2.742   1.685 -0.1788  0.2162  0.0213
27534W        W43668  10.285   8.387   3.993 -0.0058 -0.0473  0.3790
27535W        W43669  13.135  17.105  16.778 -0.0778 -0.0046 -0.1346
27536W        W43670  14.936   2.009   0.969 -0.2757  0.0000  0.0663
27537W        W43671   7.509   2.477   4.112  0.1029  0.2686 -0.0903
27538W        W43672   4.817   7.704  15.561  0.0293 -0.2138  0.0579
27539W        W43673   2.507   9.357  14.123  0.3837 -0.0149 -0.0675
27540W        W43674  12.154   4.311  13.130 -0.2423 -0.0495 -0.1390
27541W        W43675  13.071   5.728  16.943  0.0829 -0.2365  0.0885
27542W        W43676  16.638  12.370   0.683 -0.2778  0.0455 -0.0336
27543W        W43677   6.401  16.782  14.515  0.2007  0.2879 -0.0006
27544W        W43678  13.440   1.210   4.411  0.1254  0.0125 -0.1630
27545W        W43679   0.407   9.941  11.358  0.0539 -0.0722  0.0292
27546W        W43680  14.475   9.307  11.518  0.1548  0.2618  0.0556
27547W        W43681   5.311  14.001  16.631  0.0398 -0.1608 -0.2086
27548W        W43682   1.640  12.561  13.161 -0.5223 -0.1214 -0.3199
27549W        W43683   3.046  17.268  15.382 -0.0477 -0.1760  0.0450
27550W        W43684  15.136   8.811   0.238 -0.3417  0.2352 -0.1473
27551W        W43685  13.278  13.621  12.297  0.3619  0.1829  0.0669
27552W        W43686   2.967  11.436  13.622 -0.0823  0.0734  0.0204
27553W        W43687   0.845  12.570   5.659  0.0617 -0.3157  0.4193
27554W        W43688  15.675   3.701  13.465 -0.4350 -0.0343 -0.0677
27555W        W43689   7.412   4.997  13.543  0.0157  0.0807  0.1137
27556W        W43690  16.304   6.009   0.587  0.0121 -0.0497  0.0062
27557W        W43691  14.367  15.458   4.477 -0.0682 -0.1335  0.0014
27558W        W43692   3.226   8.818   3.021  0.2681  0.1123 -0.0925
27559W        W43693   5.840   7.987   4.085  0.0947  0.1731 -0.1529
27560W        W43694   4.576   4.715  16.899  0.0209  0.2402 -0.2355
27561W        W43695  15.261  12.472  14.332 -0.1691  0.0014  0.0360
27562W        W43696  15.911   3.214  11.511 -0.0076 -0.1595 -0.0374
27563W        W43697  15.700   6.631   1.373  0.1178 -0.0160 -0.0791
27564W        W43698   8.666   3.607   5.150 -0.1279 -0.0045 -0.0987
27565W        W43699  17.021   0.272   0.094 -0.0560 -0.1177  0.1659
27566W        W43700   8.814  12.006  12.159  0.0066 -0.2172 -0.1975
27567W        W43701   6.530   7.392   2.824  0.4628  0.1876 -0.0424
27568W        W43702  10.426  13.362  14.358  0.1874  0.1056  0.0159
27569W        W43703  16.522  15.962  14.806  0.1587 -0.1100  0.1204
27570W        W43704  13.912   1.166   6.638 -0.0608  0.2207  0.2223
27571W        W43705   5.628   0.734  16.635 -0.1185 -0.2603  0.1781
27572W        W43706  13.860   4.339  14.443 -0.1055  0.0705  0.1425
27573W        W43707   3.479  10.124  13.507 -0.2738  0.1352  0.1947
27574W        W43708   8.824  15.785   2.065  0.0176 -0.0370 -0.1078
27575W        W43709   8.377   2.581   6.041  0.0626 -0.0749  0.2113
27576W        W43710  16.526   6.893   0.423  0.0414 -0.0484  0.0085
27577W        W43711  13.170  12.939  15.286 -0.0369 -0.0594 -0.1745
27578W        W43712   9.764   3.053   2.329 -0.2335 -0.5410 -0.3802
27579W        W43713   7.486  16.312   4.095  0.0451  0.1818 -0.2620
27580W        W43714   6.761   2.751   4.343 -0.0956  0.2685 -0.1999
27581W        W43715   0.331  16.108   2.802 -0.4538 -0.1055 -0.0027
27582W        W43716  11.716   3.475  14.152 -0.0423 -0.2459  0.1642
27583W        W43717  11.803   0.953   3.401  0.0735  0.3768 -0.0327
27584W        W43718   1.477   0.418   5.939  0.1346 -0.0079  0.0037
27585W        W43719  14.976   7.023  12.462 -0.3162  0.0180 -0.0868
27586W        W43720  12.980   0.758   5.922  0.1739  0.0236 -0.1632
27587W        W43721  17.043  14.338  16.113  0.1650  0.0603 -0.3052
27588W        W43722   0.511   7.866   4.538  0.2362  0.1105 -0.1497
27589W        W43723  15.556   2.652  12.824  0.1228  0.2609  0.0386
27590W        W43724   6.942   0.480   3.806  0.4630 -0.0256 -0.4227
27591W        W43725  12.943  10.208  16.637 -0.0158  0.5588 -0.1579
27592W        W43726   8.643   4.003  15.249  0.3474 -0.1831 -0.2210
27593W        W43727   4.977   3.386   1.752 -0.1299 -0.0202  0.2076
27594W        W43728   5.523   4.434   0.258 -0.1714 -0.2577  0.1003
27595W        W43729   2.182  17.175   5.154  0.0182 -0.3824  0.2439
27596W        W43730  15.221  14.185   2.296 -0.0838  0.2050 -0.1039
27597W        W43731   6.799   8.741  17.043 -0.0477  0.1675 -0.1773
27598W        W43732  11.285  13.926  14.596 -0.1080  0.2227 -0.1073
27599W        W43733   0.254  16.258   3.327 -0.1298  0.1083 -0.0812
27600W        W43734   0.221   4.781  16.250  0.1280 -0.1013  0.1573
27601W        W43735   2.154   0.927   2.200  0.2664  0.0058  0.2203
27602W        W43736   5.609  16.753   4.400  0.0460 -0.2326 -0.0642
27603W        W43737  16.573   0.999  14.646  0.3493  0.2214  0.1109
27604W        W43738  11.953   0.098   4.986  0.0625 -0.1201  0.0840
27605W        W43739   6.613   9.508   2.398  0.1267 -0.0503  0.1161
27606W        W43740  10.678   5.471  16.722 -0.0980 -0.0751 -0.0333
27607W        W43741   4.312  16.386  14.088  0.0059 -0.0034 -0.0391
27608W        W43742   8.373   1.885   4.138  0.4375  0.1285  0.2130
27609W        W43743   4.940  11.340   5.745 -0.0841 -0.1011  0.1585
27610W        W43744  12.802   2.638  16.781 -0.1027  0.1484 -0.1171
27611W        W43745   6.093  14.106  15.651 -0.1713 -0.0661  0.1981
27612W        W43746  12.265   5.523  12.759  0.0431 -0.0602  0.0970
27613W        W43747   2.834  11.349   2.377  0.2486 -0.1180  0.1536
27614W        W43748   0.931  15.151  12.837 -0.3163 -0.0154 -0.2063
27615W        W43749   8.060  12.957  14.077  0.3623 -0.0045 -0.0047
27616W        W43750   3.667  12.042  16.718 -0.2379  0.1581  0.3077
27617W        W43751   6.393  17.372  12.503 -0.3681 -0.0456  0.3093
27618W        W43752   6.890   7.035  15.577  0.1939 -0.0247  0.0848
27619W        W43753  16.780  15.353   4.992  0.1905 -0.0467 -0.0720
27620W        W43754   3.544  13.413  12.283 -0.2412  0.1173  0.0226
27621W        W43755   9.195  11.709  14.281 -0.1176 -0.1516 -0.1711
27622W        W43756  15.680   8.004  11.524  0.0842 -0.0681 -0.1013
27623W        W43757   5.681  16.504  11.884 -0.0128 -0.0589 -0.0242
27624W        W43758   2.627   3.920   4.543 -0.0223 -0.0389  0.3262
27625W        W43759   4.782   0.704  13.927  0.1909  0.0404  0.3108
27626W        W43760  16.415   2.123   0.950  0.2629  0.1278 -0.1865
27627W        W43761  15.536  12.294  13.925  0.1552 -0.0310  0.0141
27628W        W43762   6.987   0.730   4.260 -0.2020  0.0359 -0.3466
27629W        W43763   6.758  11.108  14.559 -0.1265 -0.3398  0.0858
27630W        W43764   4.389   5.815   4.992 -0.0480 -0.0043 -0.0638
27631W        W43765   6.796   5.018   2.646  0.1392 -0.2116 -0.1015
27632W        W43766  15.437  15.257   1.435 -0.0225  0.1070 -0.2229
27633W        W43767  16.322   7.408  11.314 -0.1790 -0.1979 -0.1032
27634W        W43768  13.544  17.378  13.666  0.1847 -0.1329 -0.1359
27635W        W43769  11.019   4.330  16.834  0.1353  0.3724 -0.4901
27636W        W43770   9.454   2.824   0.934 -0.1830  0.2140 -0.2892
27637W        W43771  13.692   6.671  12.100 -0.1493  0.2380  0.0665
27638W        W43772   3.821   9.154  15.375  0.0583 -0.0487  0.2358
27639W        W43773   2.568   9.534  16.183 -0.1997 -0.1804  0.1601
27640W        W43774  15.721   5.597   3.363  0.2684 -0.2756  0.0760
27641W        W43775  11.164  12.196   1.335  0.0081  0.0222 -0.0991
27642W        W43776   1.910  15.552   3.596  0.0837 -0.0810  0.3019
27643W        W43777   0.180   8.392   0.535  0.3337 -0.1095 -0.0956
27644W        W43778   7.872  11.975  16.968  0.1322  0.1519 -0.2517
27645W        W43779   6.938   4.286  16.529  0.0310  0.0653 -0.0305
27646W        W43780   3.291  12.856  13.740  0.2286  0.1254  0.1443
27647W        W43781   4.004   0.306   1.274 -0.2916  0.2055 -0.3159
27648W        W43782  17.441   7.681   1.079  0.0803  0.1529  0.3708
27649W        W43783   8.009  16.288   4.940 -0.0436  0.3067  0.0482
27650W        W43784   7.489  15.749  16.945 -0.1003 -0.4336 -0.1921
27651W        W43785   0.625  13.564  14.778 -0.1303  0.3288  0.4002
27652W        W43786   0.440   1.295  15.149 -0.2218 -0.0584 -0.1926
27653W        W43787  13.105  11.300  15.938 -0.3569 -0.0347 -0.2256
27654W        W43788  15.524   6.991   6.198 -0.4655  0.2025 -0.0890
27655W        W43789   7.497   9.275   4.089  0.0696  0.0593  0.0966
27656W        W43790  10.135   3.450   5.585 -0.0932 -0.1253  0.1191
27657W        W43791  10.755  10.928  12.484 -0.0062 -0.1785 -0.2386
27658W        W43792  17.359  11.218  13.334 -0.1006 -0.2108  0.1578
27659W        W43793  12.574  17.107   2.245  0.0600 -0.2675 -0.0825
27660W        W43794  12.502   7.276  12.329 -0.0503  0.2277  0.2917
27661W        W43795  14.465  14.736   5.821  0.2377  0.1082  0.1114
27662W        W43796   8.299   4.974   4.305  0.1424  0.1660  0.0085
27663W        W43797   0.076   8.312  13.057 -0.0777  0.0083  0.2785
27664W        W43798   0.755   7.334  15.479 -0.2518  0.2409  0.2739
27665W        W43799   3.817   3.211  12.145  0.0598 -0.1611 -0.2155
27666W        W43800  11.562  16.313   4.830  0.0072  0.1231 -0.3090
27667W        W43801   8.027  16.969  16.906  0.0895 -0.2751 -0.0104
27668W        W43802   4.368  10.142  12.656  0.0823 -0.1676  0.2249
27669W        W43803   5.280   1.699   5.975 -0.0397 -0.0182  0.0111
27670W        W43804   1.492  13.054  14.465  0.3484 -0.0451 -0.0382
27671W        W43805  15.293  10.316   5.293  0.1030 -0.1840  0.1663
27672W        W43806   6.456  16.628   2.527  0.2267  0.0414 -0.0504
27673W        W43807   5.764  15.805   2.192  0.1361  0.1174  0.0317
27674W        W43808   5.597  12.453   4.298 -0.0573 -0.1888  0.0653
27675W        W43809   9.336   0.528   3.074 -0.3933  0.4303 -0.1606
27676W        W43810  14.186   6.870  11.876  0.1691  0.1518 -0.1620
27677W        W43811  11.051  17.309   1.557  0.2000  0.2700 -0.4009
27678W        W43812   3.202   3.819  16.189 -0.0756  0.0780 -0.0261
27679W        W43813  13.982  12.610   4.998 -0.3388 -0.0379 -0.1929
27680W        W43814   9.342   2.300   0.864  0.1179 -0.0276  0.1002
27681W        W43815   1.056   1.771  11.985  0.3996  0.0924 -0.3068
27682W        W43816   8.790  12.153   5.419 -0.0543  0.0486  0.0682
27683W        W43817   9.310  13.120   2.578  0.0332 -0.0842  0.1259
27684W        W43818  17.533  10.184   3.346 -0.3454 -0.0149 -0.0298
27685W        W43819   3.877   3.661   0.279 -0.2936 -0.0941 -0.1973
27686W        W43820   9.163   5.958  15.316 -0.4231  0.1424 -0.3390
27687W        W43821  12.051   9.903  13.369 -0.0208 -0.0858  0.0882
27688W        W43822  10.319   4.239   5.136  0.0616 -0.1967  0.1060
27689W        W43823   0.648  14.683  15.784 -0.1430 -0.1195 -0.0948
27690W        W43824   3.294   4.957   5.659  0.2934  0.2203  0.0970
27691W        W43825  12.236  15.088   4.721 -0.0423 -0.0712 -0.3554
27692W        W43826   9.783   9.880   5.453  0.0196 -0.0302 -0.0220
27693W        W43827  14.168   8.008   2.303 -0.3069 -0.1085 -0.1242
27694W        W43828  16.831  17.058  15.581  0.1387 -0.1595  0.1055
27695W        W43829  12.326   6.096  15.381 -0.1093  0.1038 -0.3695
27696W        W43830  10.038   8.906  14.849 -0.1981  0.2304 -0.4348
27697W        W43831   7.679   0.127  16.796 -0.0133  0.0238 -0.0548
27698W        W43832  11.795   6.639  12.092  0.1687 -0.1597  0.1304
27699W        W43833   8.470  10.015   4.899  0.3899 -0.0147  0.3323
27700W        W43834   3.724   5.482   4.885  0.0006  0.0051  0.1001
27701W        W43835   4.990  14.162   2.311 -0.0841  0.1902  0.1314
27702W        W43836   3.867   4.798   2.904  0.2961  0.3535  0.0702
27703W        W43837   8.551  17.313  14.595  0.0617  0.0080 -0.0941
27704W        W43838  15.902   7.400   1.573  0.2524 -0.1818  0.1007
27705W        W43839   1.273  12.624   3.146  0.2994  0.2249  0.2959
27706W        W43840   1.739   0.469   0.214 -0.0445 -0.0805 -0.1070
27707W        W43841   8.388   3.419  13.619 -0.1692 -0.1717  0.1088
27708W        W43842   6.590   8.928  16.551  0.0413  0.0458  0.2010
27709W        W43843  16.562  10.495  14.407  0.0531 -0.2636  0.0868
27710W        W43844  16.298   0.546   0.974  0.1231 -0.3448 -0.1146
27711W        W43845   9.743  10.383  15.841  0.1270  0.0174  0.2671
27712W        W43846  10.760   9.243  14.461  0.2318 -0.3345  0.0682
27713W        W43847   6.421   1.827   1.092  0.3236  0.1572 -0.1493
27714W        W43848  14.512   2.029  16.304 -0.0607 -0.0547  0.0585
27715W        W43849   2.946  10.127  13.525  0.1052 -0.0368 -0.0470
27716W        W43850  13.927  13.734   1.797 -0.0637 -0.2399  0.1049
27717W        W43851   4.669  10.013   0.525  0.0603  0.3922 -0.2535
27718W        W43852   1.939  13.524   2.436  0.0338 -0.1356  0.2578
27719W        W43853  13.612  11.000   5.014 -0.0044 -0.2038  0.1789
27720W        W43854   1.122   2.099   3.688  0.0969 -0.1998 -0.2121
27721W        W43855   0.967   4.180  14.795 -0.3275  0.2829  0.2295
27722W        W43856  12.914  16.037   1.631  0.2977 -0.0721 -0.1000
27723W        W43857   1.441   9.025   4.429 -0.0864  0.1584 -0.0881
27724W        W43858   8.662  12.883   2.766  0.1909  0.1591 -0.1666
27725W        W43859   9.802  16.825  14.383  0.1550  0.3671  0.0531
27726W        W43860   6.562   7.897   4.934 -0.1294  0.1216 -0.0189
27727W        W43861  10.656   8.572  12.141  0.1020  0.0451 -0.0507
27728W        W43862   4.740  16.895   5.373 -0.2935  0.1510  0.0855
27729W        W43863   3.625  14.611  15.595  0.3498 -0.4948 -0.1312
27730W        W43864   9.936  17.186  12.651 -0.0004  0.0164  0.1718
27731W        W43865   2.041   0.704  16.620  0.0352  0.0922 -0.0346
27732W        W43866  13.455  14.962   5.482  0.1760 -0.1115  0.0944
27733W        W43867   9.729   8.524  14.719  0.1629 -0.1589 -0.1677
27734W        W43868  10.295   0.081   0.391  0.1202 -0.1710 -0.3277
27735W        W43869   7.170  13.975  16.118 -0.0341 -0.2594  0.2084
27736W        W43870   9.000   7.582  16.794  0.4157 -0.4014  0.1193
27737W        W43871   8.544   9.121   0.784 -0.1384 -0.0539  0.1519
27738W        W43872   4.537   2.256  16.347 -0.2232  0.2973 -0.1684
27739W        W43873  11.231   4.833   5.360  0.0916 -0.1802 -0.3988
27740W        W43874  12.028   6.903  11.730 -0.0817  0.4264  0.1234
27741W        W43875   3.800   6.031   1.778  0.1390  0.1424 -0.0700
27742W        W43876   4.294   2.984   3.141 -0.3303 -0.0480  0.2201
27743W        W43877   7.234   0.363  13.262  0.0754  0.2103 -0.1503
27744W        W43878  11.699   7.156  13.388 -0.4015 -0.0740  0.2431
27745W        W43879   2.033   7.595  16.487  0.0272  0.1749  0.0326
27746W        W43880  12.975   1.975  12.963  0.1127 -0.1419 -0.0971
27747W        W43881   2.498   5.991   2.395  0.1823 -0.0287  0.2826
27748W        W43882  17.421   7.659  16.184 -0.1578  0.0204 -0.0121
27749W        W43883  13.254   6.885  11.939  0.6970  0.2621  0.1188
27750W        W43884  16.990  10.304   3.627  0.0114  0.1280  0.1904
27751W        W43885   2.308  10.275  13.806  0.0129 -0.3733 -0.2279
27752W        W43886   4.217   4.365  12.609  0.0093  0.1159  0.1555
27753W        W43887  12.933   6.551  13.713  0.1024 -0.2629 -0.0340
27754W        W43888   5.915  15.020   4.952 -0.1909 -0.1373  0.1263
27755W        W43889   5.838   9.720  10.694 -0.1329  0.0733  0.0704
27756W        W43890   9.252   3.186   1.690  0.1525 -0.2018 -0.1718
27757W        W43891  16.405   9.751  12.498 -0.0334  0.0295 -0.0339
27758W        W43892   2.773  10.000   4.168 -0.1068 -0.2151 -0.0954
27759W        W43893  12.548  16.372  11.849 -0.1220 -0.0113 -0.0901
27760W        W43894  16.863   8.572  13.457  0.0731 -0.0451  0.2064
27761W        W43895   3.168   6.498   0.804  0.0852  0.2507 -0.0164
27762W        W43896   5.695   5.109   3.551 -0.1589 -0.2432  0.1894
27763W        W43897  16.658   1.804   3.972  0.1493 -0.0412  0.4074
27764W        W43898  11.070  15.331  16.295  0.1879 -0.0455 -0.0694
27765W        W43899   9.050   9.618   2.757  0.1364  0.4102 -0.0225
27766W        W43900  15.599   6.219   3.182  0.1418  0.0455 -0.0597
27767W        W43901   2.179  15.461   3.150  0.0583  0.0045 -0.0329
27768W        W43902   3.037  12.896  16.254  0.3644  0.2571  0.1056
27769W        W43903  14.092  14.969  16.398  0.1000  0.0453  0.0927
27770W        W43904  11.226   1.808   1.003  0.4937 -0.0232 -0.1333
27771W        W43905  16.541  16.320  14.459  0.2164  0.2881  0.1226
27772W        W43906   4.069   1.377  12.945  0.0793  0.1001  0.2866
27773W        W43907  11.774   1.425   1.447  0.0794  0.4374  0.2578
27774W        W43908  11.087   6.832   5.492  0.0306  0.1460  0.2236
27775W        W43909  10.783   4.141  14.092 -0.2105 -0.2214  0.1788
27776W        W43910   9.695   7.263   2.106  0.0280  0.0319  0.1842
27777W        W43911   9.480   2.626   3.228  0.0047  0.1268 -0.2762
27778W        W43912   7.401  16.676   3.190  0.0784  0.1083 -0.1910
27779W        W43913   2.831  13.996  15.580 -0.0491 -0.0595  0.0035
27780W        W43914   0.342   0.329   3.411 -0.0082 -0.2367  0.0542
27781W        W43915   7.612   1.088   2.209  0.2228 -0.0542 -0.2425
27782W        W43916   6.414   8.741   4.411 -0.0523  0.0883 -0.0425
27783W        W43917  13.185  17.188   3.058 -0.1054 -0.1886 -0.0482
27784W        W43918   3.727   8.969  14.885  0.0588  0.0954  0.3317
27785W        W43919   3.950  16.115   1.280  0.0066  0.0240  0.1074
27786W        W43920  15.998  12.986  14.603 -0.1974  0.2935 -0.2469
27787W        W43921  14.493  14.427   2.137  0.1396 -0.2045 -0.2025
27788W        W43922  12.502  12.064   5.304  0.0464 -0.1793 -0.2191
27789W        W43923   5.274   7.419   4.029 -0.0843 -0.1309 -0.0080
27790W        W43924   3.115  17.422   5.049 -0.2808  0.0956  0.0385
27791W        W43925   8.602   8.733   0.371  0.2644  0.1340  0.1688
27792W        W43926  13.487   3.688  12.692  0.0959 -0.0203 -0.1403
27793W        W43927   2.137   5.974  16.202 -0.1217  0.0689  0.0272
27794W        W43928   3.861  17.552  11.275 -0.1190  0.0442  0.0226
27795W        W43929  13.758   4.567   5.058 -0.1063 -0.1883  0.0905
27796W        W43930   7.042  10.308   4.373 -0.3684 -0.0864 -0.1727
27797W        W43931  13.342   6.620   0.271  0.2097  0.1512  0.1448
27798W        W43932  14.940  16.005   2.709 -0.0248  0.1598 -0.0869
27799W        W43933   3.583  13.682  13.117  0.0025  0.2237  0.0285
27800W        W43934  16.889   5.147  15.874 -0.2794  0.0185  0.2851
27801W        W43935   5.991  16.421   0.866 -0.2730 -0.0397 -0.1612
27802W        W43936   7.019  16.820  13.462  0.0369  0.0332  0.1936
27803W        W43937  15.300  16.438   1.000 -0.1172  0.0111  0.3813
27804W        W43938  17.351  17.119   4.341  0.1025  0.1343 -0.2380
27805W        W43939   5.088   2.658  15.815  0.1689 -0.1138  0.0520
27806W        W43940   0.830   3.154  12.015 -0.2084  0.0224  0.1150
27807W        W43941   9.988  16.537   4.336  0.1800 -0.0441 -0.0405
27808W        W43942   7.754   4.324  13.883 -0.0555 -0.1276 -0.1054
27809W        W43943   3.581   7.020  13.124  0.0836  0.0209 -0.2003
27810W        W43944  15.532   0.713   2.779 -0.0782  0.1953  0.0319
27811W        W43945   6.616   5.045   1.318 -0.1893  0.1906 -0.1227
27812W        W43946   2.038   5.768  14.367 -0.4172  0.1680 -0.1111
27813W        W43947   5.290   1.234  16.635  0.2458  0.0416  0.0478
27814W        W43948   3.372  14.212   3.715  0.1303  0.1557  0.0837
27815W        W43949  15.299  14.261  16.287 -0.1316  0.1253 -0.1644
27816W        W43950   1.057  17.208   4.212 -0.0951  0.2762 -0.1029
27817W        W43951  15.385   0.907  13.082 -0.3872  0.3500 -0.1953
27818W        W43952   8.683   6.582   0.546 -0.0197  0.1011 -0.0411
27819W        W43953  14.934   5.597  10.578  0.0630 -0.0063 -0.2636
27820W        W43954   6.798  14.813   5.784  0.1120  0.0201 -0.0024
27821W        W43955   8.775   4.701   5.133  0.2612  0.1002 -0.0032
27822W        W43956  10.432  12.389  15.152  0.2109 -0.1451 -0.0832
27823W        W43957  11.827  11.034  13.232 -0.1625  0.2970  0.1504
27824W        W43958   9.064  15.625   6.317  0.1416  0.2156 -0.1397
27825W        W43959  15.057   4.030  14.786 -0.2061 -0.1204 -0.1249
27826W        W43960   4.578   4.621   2.805  0.1839 -0.0572 -0.3166
27827W        W43961  10.102   6.232   2.697  0.1890  0.0427  0.0611
27828W        W43962   2.317   3.813  12.908  0.1216  0.0871 -0.0851
27829W        W43963  12.133  13.005   0.436 -0.2914 -0.1915  0.1681
27830W        W43964   4.657  14.414  15.906 -0.2149 -0.1649 -0.1057
27831W        W43965   9.238  14.703  10.801  0.1644 -0.0724  0.1223
27832W        W43966   7.851   1.009   0.971 -0.1388  0.3548  0.1227
27833W        W43967   4.558   4.334   4.166  0.3425 -0.0943 -0.2810
27834W        W43968   7.096   2.141   5.517  0.2026 -0.2593  0.1148
27835W        W43969  17.297   3.128   3.593 -0.1401 -0.0859  0.1540
27836W        W43970  12.625   4.365  15.911  0.1782 -0.2068 -0.2116
27837W        W43971  12.385   9.719   4.635 -0.0896  0.0018  0.0423
27838W        W43972   0.859  16.448   4.543 -0.1510  0.1576 -0.1185
27839W        W43973   5.564  13.419   1.349  0.1634  0.0464 -0.0520
27840W        W43974   6.337   9.551  14.125 -0.1345  0.0745  0.1712
27841W        W43975   4.002   8.072  13.151 -0.0094  0.1414  0.1154
27842W        W43976   1.444  11.697  11.274 -0.0925 -0.3000  0.0179
27843W        W43977   0.324  13.060   0.781  0.1244  0.0330 -0.1333
27844W        W43978   0.822   3.765   1.758  0.3240  0.3478 -0.3060
27845W        W43979  13.716   8.764  14.125 -0.0195  0.3840  0.1017
27846W        W43980  11.814   6.163   3.145  0.2975  0.0061 -0.3108
27847W        W43981   2.822   4.671  12.855 -0.0632  0.1973  0.0094
27848W        W43982  13.357   2.822   1.634 -0.0004 -0.2973 -0.0812
27849W        W43983  15.115  15.954   5.465  0.1377 -0.0434 -0.1392
27850W        W43984   8.795   2.807  15.357 -0.2458  0.4763  0.0911
27851W        W43985  12.132  13.418  13.951  0.2809  0.0172 -0.3612
27852W        W43986   9.649   7.418  16.195 -0.0202  0.1761 -0.2047
27853W        W43987  16.795  15.532  12.333  0.0029  0.0817 -0.2783
27854W        W43988  14.208  12.134   3.908 -0.0655  0.1152 -0.0026
27855W        W43989   3.184   5.072   1.158  0.1523 -0.0055  0.0506
27856W        W43990   0.759   5.597   2.229  0.0126 -0.0046  0.2100
27857W        W43991   0.786   3.111  14.022 -0.1767 -0.0869 -0.0971
27858W        W43992  14.823  12.341   3.977  0.0177  0.1481  0.1819
27859W        W43993   1.011  11.014  14.397 -0.0006  0.2093  0.1144
27860W        W43994  16.342  13.268  14.870 -0.1124 -0.1870 -0.1213
27861W        W43995   3.493   5.449   4.329  0.0806  0.1287  0.3254
27862W        W43996   2.991  15.702   6.004 -0.3745  0.1101  0.1466
27863W        W43997  13.664  16.183  16.807 -0.0575  0.0761  0.0305
27864W        W43998   6.044  11.811  12.446 -0.2973 -0.1888 -0.0947
27865W        W43999  14.557  14.205  14.022 -0.0956 -0.2330 -0.1650
27866W        W44000  15.925   9.769   4.121 -0.1209 -0.0047  0.1695
27867W        W44001   6.091   7.375   3.632  0.2294 -0.0045 -0.0788
27868W        W44002   9.460  15.589  14.407 -0.0129  0.0091 -0.1308
27869W        W44003  14.077   0.801  16.950  0.0787  0.2133 -0.0851
27870W        W44004  16.290  17.383  16.949  0.0841  0.0548 -0.3136
27871W        W44005   3.696   5.089   0.938 -0.0968 -0.1232  0.2676
27872W        W44006  13.134   4.642   0.120 -0.0655  0.0679 -0.1946
27873W        W44007   5.416  14.634  16.661 -0.3265  0.0200 -0.1073
27874W        W44008   7.248   9.617  14.684  0.0024  0.0529  0.0012
27875W        W44009   3.150  10.322  15.442  0.2778  0.0593  0.0433
27876W        W44010  11.293  17.573   1.228  0.1369  0.0579 -0.0547
27877W        W44011   5.936   2.639   0.087 -0.0295 -0.1300 -0.0360
27878W        W44012   2.731  16.169  17.121  0.0866 -0.2518 -0.1827
27879W        W44013   0.355   3.334  16.779 -0.0201  0.1344  0.3437
27880W        W44014   2.877   2.950   3.678 -0.0997 -0.0609 -0.0873
27881W        W44015   1.821   6.133   5.548 -0.0261  0.0504  0.1751
27882W        W44016   5.798  11.923  16.667  0.1453 -0.1367 -0.1575
27883W        W44017   7.689  15.968  14.237 -0.1580 -0.1744 -0.4169
27884W        W44018   7.121   4.171  13.272 -0.1862  0.0787  0.3560
27885W        W44019  17.309   6.820   4.454 -0.1714 -0.0985  0.0994
27886W        W44020  11.187   3.960   1.145  0.1751  0.0532 -0.1831
27887W        W44021   0.170  12.453  13.064 -0.0098  0.1041  0.2051
27888W        W44022  16.715  17.446   5.727  0.3098  0.1135  0.2106
27889W        W44023  11.496   0.545  13.465 -0.1730 -0.1895 -0.1865
27890W        W44024   4.310   0.165   0.230  0.1832  0.0725 -0.2016
27891W        W44025  14.303   6.462   2.985  0.1532 -0.2876  0.2306
27892W        W44026  15.256   6.978   1.390 -0.4648 -0.0019  0.1440
27893W        W44027   2.735   4.696   3.693  0.0331  0.2209 -0.0251
27894W        W44028   0.973   6.133   5.530  0.0318  0.1731  0.1448
27895W        W44029  14.327  15.420   2.470 -0.2150  0.1443  0.0344
27896W        W44030  16.703   6.952   3.390  0.1552 -0.3058  0.2048
27897W        W44031   2.979  13.149   5.656  0.0951  0.1289 -0.2990
27898W        W44032   7.891  14.306   2.427  0.1613 -0.0611  0.1726
27899W        W44033   7.916  15.007  12.875  0.0516  0.0719 -0.0845
27900W        W44034   8.559  15.539  11.642 -0.2258  0.0922  0.3362
27901W        W44035  10.837  12.195  16.126  0.1708 -0.0186  0.4798
27902W        W44036  15.228  12.726  11.700  0.2980  0.0574 -0.2913
27903W        W44037   8.927   5.260   2.889 -0.1080 -0.1554 -0.0785
27904W        W44038  13.710  16.656  13.742 -0.2497  0.1508 -0.2280
27905W        W44039   0.236  13.227   5.137 -0.2685  0.0033 -0.4321
27906W        W44040   0.810  12.356   0.767  0.1136 -0.1488  0.3653
27907W        W44041  13.196   4.101  12.769 -0.0880  0.0690  0.0536
27908W        W44042   8.401   5.738  13.101  0.2099 -0.0163 -0.1186
27909W        W44043  10.689  11.789  15.821 -0.3057  0.1009  0.0938
27910W        W44044  11.972   0.559  13.182  0.2030  0.0216 -0.4319
27911W        W44045   6.919  16.996  14.435  0.1362 -0.0711  0.0234
27912W        W44046  16.797   7.111  12.678 -0.0149  0.0371  0.0768
27913W        W44047   4.325  14.197   3.697 -0.1320 -0.2663  0.1098
27914W        W44048   0.124  15.209  11.602  0.2555  0.1859  0.1854
27915W        W44049  17.139  17.457  15.969 -0.1396 -0.3292 -0.1105
27916W        W44050  14.343  11.027   2.850 -0.1219  0.0870  0.0228
27917W        W44051   3.791   6.789  11.655 -0.0382  0.1143  0.0556
27918W        W44052   1.802   7.252  16.156  0.1501 -0.0283 -0.1803
27919W        W44053   4.216   6.026   0.293 -0.0846 -0.1107 -0.1195
27920W        W44054  14.466   4.617  11.766  0.2732 -0.2154 -0.1578
27921W        W44055   7.312   9.122  12.633  0.1831  0.0863 -0.1407
27922W        W44056   8.653   3.928  14.326  0.3280  0.0571 -0.0195
27923W        W44057  16.461  13.394   3.673 -0.4187 -0.0630 -0.3080
27924W        W44058   0.147   9.420  17.004 -0.1262  0.3640  0.0558
27925W        W44059   3.608   8.909  15.811 -0.1945  0.5758  0.1036
27926W        W44060   8.524  10.168  14.846 -0.1953  0.1045 -0.1960
27927W        W44061  11.062   0.236  10.794 -0.2740 -0.0529 -0.0519
27928W        W44062  13.914  14.422   4.694  0.2335 -0.0226  0.0107
27929W        W44063  10.240   9.630   5.325  0.1128  0.0416 -0.2520
27930W        W44064   7.125   4.699  11.593  0.2258 -0.2899 -0.1443
27931W        W44065  17.568   1.602  13.287 -0.1866  0.1128  0.3069
27932W        W44066   6.345   4.356  14.605  0.2259 -0.0501  0.1360
27933W        W44067   2.045  12.850  14.221  0.0647  0.2811  0.3058
27934W        W44068  17.585  16.471   3.727 -0.0558 -0.3064 -0.0131
27935W        W44069  15.100   3.421   2.589  0.3498  0.0566 -0.2932
27936W        W44070  12.140   0.435   2.777 -0.2729  0.1297 -0.0313
27937W        W44071  11.039   7.887  12.724 -0.0181 -0.5044 -0.0031
27938W        W44072   9.622   3.314   2.715 -0.3787 -0.2393 -0.2582
27939W        W44073   3.761   8.183  14.074  0.1252  0.0480 -0.0529
27940W        W44074  14.965  13.236   5.332 -0.1381  0.2131  0.0851
27941W        W44075  16.577   8.082   1.373  0.0403 -0.0928 -0.0495
27942W        W44076  13.742   9.185  17.052 -0.1203 -0.1076  0.0100
27943W        W44077  14.699   5.979   1.873  0.0968  0.1580 -0.0371
27944W        W44078   1.689   2.814  14.272  0.3042 -0.2876 -0.1597
27945W        W44079   3.089   3.641  14.435 -0.0068  0.1145  0.0473
27946W        W44080   9.318   7.885  13.425 -0.2138 -0.1371  0.0587
27947W        W44081   2.255   4.510  14.892  0.2402 -0.1112  0.1691
27948W        W44082   3.225  13.774  15.133  0.0672 -0.3033  0.3500
27949W        W44083   0.754   1.965   5.783  0.1234 -0.2467 -0.0713
27950W        W44084  10.275   9.665   0.838 -0.1492  0.2101  0.0148
27951W        W44085  17.310  13.910   3.658  0.1725  0.1105 -0.1385
27952W        W44086  12.386  12.568   5.271 -0.1733  0.0143 -0.2646
27953W        W44087  15.485   1.983   0.715 -0.2356  0.0048  0.4680
27954W        W44088   0.802   7.602   5.269 -0.0408 -0.1060  0.0186
27955W        W44089  16.672   9.630   4.042  0.0757  0.2501 -0.0385
27956W        W44090   1.951  11.304   1.688 -0.4702  0.0089  0.2195
27957W        W44091   5.597   8.370   5.059  0.0673 -0.0798 -0.3149
27958W        W44092   9.702   4.352   1.933  0.0468  0.3281 -0.3004
27959W        W44093   0.889  12.228  16.608 -0.0646 -0.0129  0.0598
27960W        W44094   3.914   2.582   1.305  0.0890 -0.1240 -0.0584
27961W        W44095   9.922   1.504   3.701  0.2011  0.1049  0.1693
27962W        W44096   7.672  15.039   5.845  0.2098  0.0743  0.2187
27963W        W44097  10.132  12.243  12.714  0.0677 -0.1458 -0.2328
27964W        W44098   6.849   2.960   0.471 -0.0123  0.0915  0.0823
27965W        W44099  11.898  11.485   1.434  0.0426 -0.0469 -0.0817
27966W        W44100   1.823  13.092  16.695 -0.1578  0.0982  0.0129
27967W        W44101  17.039   5.633   2.263  0.0739 -0.2462  0.0425
27968W        W44102   8.127   5.889   3.282  0.0249  0.0941  0.1037
27969W        W44103   1.309   4.979  13.786 -0.0317 -0.0840  0.4287
27970W        W44104   8.126  13.134   5.255 -0.1962 -0.0713 -0.0831
27971W        W44105   0.994   3.862   2.907  0.2670 -0.1231  0.0034
27972W        W44106  10.248   3.016   3.645  0.1715 -0.1748 -0.1863
27973W        W44107  12.589   7.732  14.194  0.2149 -0.1120  0.0169
27974W        W44108   8.293   0.990  15.973 -0.0271  0.0434 -0.3408
27975W        W44109   9.591   9.786   0.131 -0.2147  0.1096  0.0442
27976W        W44110   8.791  14.265  15.074  0.1132 -0.2737 -0.0141
27977W        W44111   6.598   3.848   4.921 -0.1113 -0.1807 -0.1545
27978W        W44112  13.299   3.748  13.198 -0.0736 -0.1309  0.2233
27979W        W44113   9.068   4.430   3.766  0.1428 -0.2112 -0.0934
27980W        W44114  16.459   0.047  16.626 -0.0742 -0.1703 -0.1460
27981W        W44115  17.157   3.663  14.921 -0.2284  0.1276 -0.0437
27982W        W44116  13.816  17.098  14.882  0.0567  0.2232  0.1384
27983W        W44117  11.649  11.935  11.185  0.1660  0.1202  0.0410
27984W        W44118   7.797   4.566   1.709  0.0627 -0.0540  0.1750
27985W        W44119  14.996  16.580   0.625  0.0307 -0.0636  0.1078
27986W        W44120   9.748  11.016  12.054  0.0850  0.0757  0.3891
27987W        W44121   1.655   0.906   2.279 -0.3169  0.0390 -0.1544
27988W        W44122   6.546  11.555  14.937  0.0237 -0.0729 -0.2984
27989W        W44123  11.870   1.794   0.116 -0.1872 -0.0688 -0.1753
27990W        W44124   4.485   6.725  12.060 -0.1675 -0.0056  0.0934
27991W        W44125   5.703  12.530  14.229 -0.0855  0.3075 -0.1841
27992W        W44126   6.331  11.755   3.083  0.1560 -0.0605  0.2126
27993W        W44127  13.421  13.888   1.707  0.0485  0.0476  0.1494
27994W        W44128  11.313  12.662   4.167 -0.0750 -0.1357  0.1679
27995W        W44129  10.579   5.480  11.817  0.1958 -0.1961 -0.1281
27996W        W44130   1.351  12.651   0.317 -0.2176 -0.4286  0.1511
27997W        W44131  10.608  12.277   1.302 -0.1297  0.0207  0.0540
27998W        W44132  17.545  10.281   3.824 -0.0882  0.0298  0.1290
27999W        W44133   8.037  13.684   5.011 -0.0852  0.0452  0.3388
28000W        W44134  14.285  15.913  15.182 -0.1500  0.0883 -0.2357
28001W        W44135  10.572  16.195  14.165  0.3769  0.2795  0.1201
28002W        W44136  10.238   2.409  16.355 -0.1857 -0.1795 -0.0219
28003W        W44137   6.267  10.731  17.082 -0.1575 -0.2908  0.0082
28004W        W44138  11.758  12.864   2.495 -0.1233  0.0523 -0.0576
28005W        W44139   7.451   3.251   2.771  0.0618 -0.0967  0.0717
28006W        W44140   1.560   1.813   4.327  0.0430 -0.0550  0.0415
28007W        W44141  13.124  12.478   4.585  0.1214 -0.2787  0.0332
28008W        W44142   1.086   0.917  12.458  0.0583  0.1076  0.1842
28009W        W44143   1.478  12.331   0.692  0.0728 -0.2374  0.0731
28010W        W44144   2.544  16.658   0.199 -0.0206 -0.1117 -0.0695
28011W        W44145  11.268   2.003  16.428 -0.0560 -0.1756  0.0474
28012W        W44146   3.247   8.656   4.424 -0.1958  0.3188  0.0749
28013W        W44147   9.170   6.426   2.211 -0.1047  0.0527 -0.0188
28014W        W44148  13.618   4.825   5.926 -0.1554  0.0449 -0.2861
28015W        W44149  13.737   4.442   1.599  0.1644 -0.0351 -0.0624
28016W        W44150  11.162   5.852  15.374  0.0791 -0.1596 -0.1491
28017W        W44151  16.730   5.254  13.166  0.0923  0.0818  0.2150
28018W        W44152   9.221  15.243   3.209  0.1119  0.3041  0.0436
28019W        W44153   2.946  14.211  13.620  0.2146  0.0720  0.1113
28020W        W44154   3.870  12.320   0.090  0.0928  0.0339 -0.3346
28021W        W44155   6.802  16.231  12.813  0.0673 -0.1049 -0.3530
28022W        W44156  11.845   4.949   1.856  0.0362  0.0637 -0.2157
28023W        W44157   9.594   5.315   4.867 -0.2983  0.0433 -0.3515
28024W        W44158  10.377   5.146  16.410 -0.1308  0.1069 -0.1298
28025W        W44159   9.732  17.371   4.719 -0.0093  0.1186  0.1900
28026W        W44160  10.555   9.995  17.113  0.0706 -0.0701  0.1093
28027W        W44161   0.410   0.305  12.259 -0.0944  0.0974 -0.0226
28028W        W44162   4.982   8.355   3.181  0.1921  0.1871 -0.0501
28029W        W44163   3.312  15.148   0.713  0.0325  0.1222 -0.0745
28030W        W44164  10.315  12.324   0.284  0.3181  0.3693  0.1462
28031W        W44165   0.610   2.005  17.039  0.1598 -0.2441  0.2496
28032W        W44166  11.675  14.517   5.373 -0.0241 -0.1437  0.1680
28033W        W44167  10.852  14.308   2.651  0.2944  0.3492 -0.0602
28034W        W44168   8.097   9.165   3.202 -0.3103 -0.0587  0.1721
28035W        W44169  14.375   2.021   3.791  0.1308 -0.0101  0.1730
28036W        W44170  14.366   4.729  17.081  0.1170  0.0996 -0.1848
28037W        W44171  13.434  17.075   3.563 -0.1166 -0.1214  0.0620
28038W        W44172   8.339   5.378   0.886  0.1106  0.1748  0.0513
28039W        W44173  13.972  12.052  14.066  0.2375  0.0471  0.0749
28040W        W44174   3.943   7.772  11.476 -0.1895 -0.0489 -0.2836
28041W        W44175  16.647  11.875  16.993 -0.1977 -0.0792  0.1464
28042W        W44176  15.288   9.721  13.475  0.0265 -0.0049  0.0566
28043W        W44177   6.965   2.645   5.481  0.3205  0.0210 -0.1441
28044W        W44178   5.506  12.680   5.394 -0.0336  0.0074 -0.0221
28045W        W44179  16.943  14.207   4.478 -0.5071 -0.1646 -0.1036
28046W        W44180  16.232   1.974   3.747  0.3229 -0.3857 -0.2798
28047W        W44181  15.236   1.356  15.166  0.1249 -0.2499 -0.0156
28048W        W44182   7.541  11.976   4.927  0.0103 -0.1097  0.2343
28049W        W44183   4.343  10.073  14.494  0.0751  0.0278 -0.0780
28050W        W44184   3.867  12.218   5.500 -0.0296  0.0366 -0.1444
28051W        W44185  14.291   8.220  16.035  0.1064  0.2142 -0.2360
28052W        W44186   9.365  13.459   4.495 -0.0114  0.1314 -0.1517
28053W        W44187   6.744   0.873  13.751  0.2221  0.2073 -0.3563
28054W        W44188   3.306  17.094  12.868  0.1136  0.1046 -0.2944
28055W        W44189  15.027  10.848   3.122 -0.3591  0.3672 -0.2678
28056W        W44190  11.875   9.985  14.934 -0.4724  0.2280 -0.2227
28057W        W44191   1.214   8.498   4.213 -0.2056  0.0280 -0.0055
28058W        W44192   1.049  10.779   3.715 -0.2576  0.1794  0.0712
28059W        W44193  10.774   5.881   2.029 -0.0778  0.2893  0.1044
28060W        W44194   8.183  17.643   0.473  0.0879 -0.1759  0.0094
28061W        W44195   4.577   8.857  13.166  0.1799  0.2162  0.1855
28062W        W44196   9.943  16.943   0.064 -0.0379  0.1373 -0.3096
28063W        W44197   7.677  10.866   2.876  0.2890  0.0062 -0.0564
28064W        W44198  13.539  17.572   3.225 -0.0580 -0.0125  0.1728
28065W        W44199   2.905   3.087   4.417 -0.0964 -0.2063 -0.3114
28066W        W44200   3.763  15.316   5.515 -0.0516  0.3112 -0.5293
28067W        W44201   6.475  12.023  14.670  0.1572 -0.0298  0.1082
28068W        W44202   5.095   5.983  12.043  0.3638 -0.0568 -0.0742
28069W        W44203   0.628  11.434   3.170  0.1833  0.0337 -0.0297
28070W        W44204  12.769  17.639   4.677 -0.0563  0.1307  0.0023
28071W        W44205   4.725   8.711   4.092 -0.0453  0.1188  0.0188
28072W        W44206  14.244   4.381   4.895 -0.3341  0.2414  0.3138
28073W        W44207  11.251   9.344   1.460 -0.0750  0.2736 -0.3091
28074W        W44208  10.301   5.787   1.999 -0.1920  0.2002  0.0442
28075W        W44209   6.680   5.013  16.573  0.0772 -0.0410 -0.0898
28076W        W44210   7.339   2.489  15.448  0.1000 -0.1186 -0.1146
28077W        W44211   6.649   0.182  12.549 -0.2361 -0.3686  0.0894
28078W        W44212   0.053  15.767   6.312 -0.0459 -0.1629  0.0386
28079W        W44213  14.823   7.886  14.716 -0.2474 -0.0024 -0.1384
28080W        W44214  16.472  12.818   0.566 -0.0532 -0.1566  0.4588
28081W        W44215  13.094   8.596  13.923 -0.4153 -0.1607  0.2929
28082W        W44216  14.498  10.495   0.249 -0.0903 -0.0340  0.0628
28083W        W44217   6.847  12.689   2.180  0.0353 -0.0208  0.2339
28084W        W44218   1.099  13.606  13.919 -0.0753  0.0131 -0.0347
28085W        W44219  17.306   0.938  15.999 -0.0179  0.1557 -0.2703
28086W        W44220  13.580   1.280   0.503  0.0103  0.0643  0.1953
28087W        W44221   6.394   3.426  14.255  0.0157  0.0289 -0.4223
28088W        W44222  13.596  14.147   3.083 -0.1331  0.0485 -0.1808
28089W        W44223  14.671  13.179   2.300  0.1171 -0.1964  0.2236
28090W        W44224   0.481   3.658   0.475 -0.2309  0.0414  0.2144
28091W        W44225  14.139   7.326  11.650  0.1292 -0.0576  0.4520
28092W        W44226   9.350   7.414  12.067  0.0552  0.1508  0.1907
28093W        W44227   6.176   3.349   2.127  0.2784  0.0091  0.0686
28094W        W44228  13.757   4.085   0.044 -0.0744 -0.1594 -0.2004
28095W        W44229   2.170   2.262  15.995 -0.1694  0.1661  0.1164
28096W        W44230  15.418   2.451   1.515  0.1329 -0.2861  0.3127
28097W        W44231  11.906  11.263   4.573  0.3828 -0.0429  0.0162
28098W        W44232  14.140  12.327   3.272 -0.2260  0.0575  0.0293
28099W        W44233   1.184   3.331   5.950 -0.1605 -0.3478  0.0682
28100W        W44234   2.734   4.517   0.552 -0.0328 -0.2280 -0.2850
28101W        W44235   6.672   5.093   0.481  0.0199  0.0406 -0.0713
28102W        W44236   8.166   5.582   1.729  0.2124  0.0615  0.3590
28103W        W44237   1.353  13.324   4.548  0.2547  0.0401  0.0006
28104W        W44238  17.252   8.376  10.502  0.0244  0.2565  0.0164
28105W        W44239  15.482   7.086  11.253 -0.0484  0.1226  0.0825
28106W        W44240  12.616   9.021  14.664 -0.2545  0.1255 -0.2685
28107W        W44241   6.935  12.664   3.137 -0.1740 -0.0851  0.1479
28108W        W44242   9.553   5.390  11.863 -0.3172  0.0356  0.0531
28109W        W44243   4.520   3.922  13.976  0.2071  0.2107 -0.1328
28110W        W44244  10.482   8.684   0.493 -0.2904 -0.3027  0.2280
28111W        W44245   9.857  16.905  13.134  0.1097  0.1663 -0.0699
28112W        W44246   6.430   2.890   2.863  0.0881 -0.0616 -0.0933
28113W        W44247   0.035  11.040  11.924 -0.0745  0.1383  0.0612
28114W        W44248   0.152   9.205   1.825  0.2715 -0.0703 -0.0144
28115W        W44249  12.948  16.981   1.934 -0.0464 -0.2166 -0.2179
28116W        W44250   8.401  15.447   1.696  0.1186  0.3276 -0.2059
28117W        W44251   7.460   0.044   1.265  0.0588  0.2983 -0.0137
28118W        W44252   4.211  13.037   6.153 -0.4427 -0.1540  0.1306
28119W        W44253   9.882   8.276  14.162 -0.1860 -0.1991 -0.1776
28120W        W44254   1.207   7.473   4.584  0.4162  0.0758  0.0708
28121W        W44255   5.607  12.287   2.108  0.3335  0.0460 -0.1628
28122W        W44256   9.309  14.040  12.171 -0.0181  0.0791 -0.1261
28123W        W44257   3.888  17.161   5.972 -0.4520  0.0828 -0.2587
28124W        W44258   2.967   1.805   3.259  0.0190  0.0229 -0.0656
28125W        W44259   9.846   9.751  13.076  0.2087 -0.0727 -0.1359
28126W        W44260  11.317  11.823  16.806 -0.3374  0.0931  0.4736
28127W        W44261   2.924  11.221  11.930 -0.0541  0.0635  0.0458
28128W        W44262  11.653   1.464   3.003 -0.1219  0.3527  0.2367
28129W        W44263   7.698  16.512  14.950  0.0496  0.0566 -0.3019
28130W        W44264  15.100   3.778  11.898  0.1596 -0.1700 -0.0386
28131W        W44265   9.979  16.592   3.776 -0.1763  0.0947  0.0886
28132W        W44266   6.505  11.967  15.240  0.0267 -0.2849 -0.2720
28133W        W44267   2.762  12.645   4.828 -0.2886  0.5889  0.3315
28134W        W44268  14.811  13.054   2.870 -0.2495 -0.4256  0.0710
28135W        W44269  12.416   7.982   3.576  0.0697  0.0948  0.0261
28136W        W44270   5.629  15.947  12.497 -0.1495 -0.2393  0.1112
28137W        W44271  13.595   7.770   5.711 -0.1450  0.1197  0.1513
28138W        W44272   4.522   9.313   3.307 -0.0141  0.0364 -0.2782
28139W        W44273   0.876  10.396   4.045  0.3125  0.0017  0.0997
28140W        W44274   2.926   4.834   1.494  0.0943  0.0358  0.0328
28141W        W44275  13.266  16.204   3.791  0.1201 -0.1315 -0.1368
28142W        W44276   3.808   9.726  15.490 -0.0439 -0.4630  0.3012
28143W        W44277  15.406   6.000   0.403 -0.1989 -0.2011  0.1589
28144W        W44278  11.955  10.015  11.674  0.2349  0.1169  0.2572
28145W        W44279  12.718   7.582   1.503 -0.0165 -0.1262 -0.2524
28146W        W44280   1.265   4.078   4.328  0.2081  0.0954 -0.0691
28147W        W44281  13.952   5.650  14.870  0.1623 -0.0535  0.0539
28148W        W44282   6.195  15.134  16.950  0.3083 -0.1221 -0.2444
28149W        W44283   3.366  10.911   4.901 -0.2218  0.0194 -0.1654
28150W        W44284  14.639  13.505   6.184 -0.2459  0.1093  0.1630
28151W        W44285   4.841   8.177  14.578  0.0205  0.2711 -0.0050
28152W        W44286  13.070   7.041  13.759 -0.2037  0.1758 -0.2213
28153W        W44287  17.570   6.618  12.626 -0.0037  0.0855  0.0251
28154W        W44288  17.501  15.993   3.462  0.0096 -0.2665 -0.4824
28155W        W44289  10.556  17.226   5.371 -0.1382  0.1448 -0.0921
28156W        W44290   3.617  17.046   5.112  0.0076 -0.1288 -0.0360
28157W        W44291   4.093  15.218  11.863  0.2330 -0.0983 -0.1121
28158W        W44292   5.287   3.214   5.222 -0.1412  0.1134 -0.5770
28159W        W44293  15.718   0.194  14.423 -0.0458 -0.0718  0.0166
28160W        W44294  12.924   4.486   6.222  0.2229 -0.5122 -0.1890
28161W        W44295   1.159  10.219   5.026 -0.3914  0.1151 -0.0280
28162W        W44296   4.685  11.996  12.215  0.1187  0.1168 -0.0806
28163W        W44297   2.269  13.243  15.705 -0.1548  0.0293  0.2482
28164W        W44298   7.636  17.389   2.063 -0.1275  0.2470 -0.1097
28165W        W44299   8.759   5.742  16.139 -0.2286 -0.0555  0.0874
28166W        W44300   6.492   0.442   4.088 -0.2923 -0.0389  0.0839
28167W        W44301  10.704   3.634  16.021 -0.0455  0.2543 -0.2692
28168W        W44302   2.808   7.850  11.360 -0.3810  0.2598  0.1083
28169W        W44303  17.344  16.072   5.161  0.2219  0.1180 -0.2642
28170W        W44304   0.797   9.935  16.923 -0.4754  0.0950 -0.2289
28171W        W44305   2.198  13.197   2.755  0.0689 -0.2921  0.2825
28172W        W44306  11.807   1.844   2.490 -0.0493  0.1320  0.0675
28173W        W44307   0.134  13.437  14.615  0.2281 -0.1998 -0.1900
28174W        W44308   6.804   1.283   3.514  0.1186  0.0193  0.1132
28175W        W44309  14.883   2.087  11.708 -0.0307  0.2306  0.1470
28176W        W44310  16.513  11.880  15.740  0.2333 -0.2850 -0.1634
28177W        W44311   4.776   4.709   1.909 -0.2063 -0.1693  0.0340
28178W        W44312   4.878  16.372  16.764 -0.1256  0.1137  0.1532
28179W        W44313   3.974   1.373   0.095 -0.4659  0.1291 -0.2142
28180W        W44314  17.310   5.081  16.864 -0.0165 -0.0505 -0.0570
28181W        W44315  11.537   5.098   3.693 -0.2331 -0.4208 -0.1506
28182W        W44316  10.694   3.800  16.739  0.0401 -0.1524 -0.0023
28183W        W44317  15.152   3.622  13.386  0.4272 -0.0008  0.0277
28184W        W44318  14.963   3.080  12.512 -0.1005  0.0509  0.0945
28185W        W44319   3.027  11.042  14.784  0.1306  0.1035  0.1379
28186W        W44320  16.886  16.007   4.236 -0.5091  0.0677  0.3059
28187W        W44321   8.616   9.697  13.112 -0.0626  0.0413  0.1090
28188W        W44322   3.392  14.124  13.867  0.0139  0.1112  0.1800
28189W        W44323  13.781  14.166   5.494  0.0145  0.0995  0.4057
28190W        W44324  11.806   7.149  16.984  0.0625 -0.3743 -0.0315
28191W        W44325  14.469   8.657   3.835  0.0151  0.0219 -0.1333
28192W        W44326   7.273  15.998  12.141 -0.1507 -0.3067 -0.2865
28193W        W44327  17.286   1.988  12.390 -0.0453  0.1037  0.2773
28194W        W44328  15.930   8.745   4.726 -0.1320  0.4743 -0.1568
28195W        W44329  13.372   1.705   3.984 -0.0144  0.0951 -0.2107
28196W        W44330   8.449  11.814  13.708 -0.1688  0.0214 -0.0285
28197W        W44331   7.971   4.729   2.171  0.2180  0.0441 -0.1311
28198W        W44332  10.358  14.118  12.331  0.1900 -0.0166  0.0777
28199W        W44333   9.821   5.022   2.062 -0.0327  0.0409 -0.3369
28200W        W44334  11.304  15.949  12.604  0.0680 -0.1195 -0.0456
28201W        W44335   5.196   9.604   5.043  0.0728  0.0877 -0.2337
28202W        W44336   8.133  11.754   6.406 -0.0655  0.0606  0.0023
28203W        W44337  13.476  16.735  12.886 -0.0293  0.1545  0.0413
28204W        W44338   5.589   9.605   0.866 -0.0135 -0.0892 -0.0307
28205W        W44339   8.903   3.539  15.305  0.1284 -0.1258 -0.3437
28206W        W44340  11.658  17.253  16.329  0.1266  0.4118 -0.0506
28207W        W44341   2.175  17.162   2.441  0.0421 -0.0062 -0.1810
28208W        W44342  12.409   3.605   0.033 -0.0187  0.2371 -0.1135
28209W        W44343   4.127  13.357   2.889 -0.0844 -0.0452  0.3859
28210W        W44344  11.300   9.556  13.510  0.1123 -0.0563 -0.1683
28211W        W44345   3.814  11.677  15.206  0.1602  0.0267 -0.3691
28212W        W44346   5.394  13.396  11.883  0.0108  0.0730 -0.2738
28213W        W44347   2.594  15.424  15.297 -0.0118 -0.0144  0.2910
28214W        W44348   9.710   2.217   0.511 -0.1263  0.2596  0.1521
28215W        W44349   9.983   1.214  10.822  0.0689 -0.1754 -0.2041
28216W        W44350   1.600  10.328  16.384  0.1303  0.3302  0.1681
28217W        W44351   9.150  10.284   3.581  0.0341  0.0945  0.2554
28218W        W44352   8.481  14.763  16.402 -0.1300 -0.0655 -0.0641
28219W        W44353  13.150  16.196   5.293  0.0983  0.0109  0.0009
28220W        W44354   9.297  11.819   1.717  0.1246  0.1229 -0.1348
28221W        W44355   5.654  12.242  11.930 -0.0830  0.0458  0.1142
28222W        W44356   3.412   3.294  16.953 -0.1350  0.0808  0.1385
28223W        W44357   1.514  10.996  11.947 -0.1572  0.1252  0.1557
28224W        W44358   3.015  10.766   0.024  0.1318  0.1646 -0.0890
28225W        W44359   7.980   3.220   3.753 -0.0945 -0.0161  0.0722
28226W        W44360   3.051  12.525  12.413 -0.0319  0.1169  0.2397
28227W        W44361  11.418  15.145   1.028  0.1308 -0.0304  0.3403
28228W        W44362   2.570   5.355   3.086 -0.1754  0.1370 -0.1020
28229W        W44363  17.581   6.185  12.912 -0.0119  0.1420 -0.0308
28230W        W44364  13.697  10.889  14.642  0.0981  0.4540 -0.0193
28231W        W44365   2.471   1.219   2.477  0.1003  0.1565  0.0876
28232W        W44366  11.622  14.961   2.840  0.0994 -0.0665 -0.0696
28233W        W44367   3.061  13.068   2.751 -0.0641 -0.0263  0.3608
28234W        W44368   6.956  16.834  15.600  0.0236 -0.1345  0.0340
28235W        W44369  13.640   4.876  12.308  0.2277  0.0859 -0.0495
28236W        W44370  11.413   5.170  12.821 -0.3103  0.0205  0.1410
28237W        W44371   2.018   5.327  11.592  0.0968 -0.2354 -0.0381
28238W        W44372   7.727   6.273   5.826 -0.0824  0.0718 -0.1830
28239W        W44373  15.048  12.588  12.226 -0.0236  0.3837 -0.0023
28240W        W44374  16.206   2.138  14.497  0.0031 -0.1373  0.1841
28241W        W44375  16.433   0.268   2.546  0.0379  0.0113 -0.0205
28242W        W44376   9.150  13.708  11.842  0.3035  0.2307  0.2761
28243W        W44377  12.597   4.130  12.853 -0.1551  0.1499  0.2075
28244W        W44378  14.097   1.329  16.878 -0.1782  0.0283  0.2477
28245W        W44379   0.602  15.378   3.117  0.1062  0.2648 -0.0697
28246W        W44380   5.434   5.683  13.316  0.0007  0.1519 -0.0839
28247W        W44381   9.060   1.315  12.615  0.1501 -0.0646  0.0200
28248W        W44382   7.121  16.252   5.428 -0.0439  0.0459 -0.0254
28249W        W44383   4.723  10.252  13.917 -0.2915  0.0363 -0.1208
28250W        W44384   3.615   8.501  11.916 -0.0563  0.1070 -0.0591
28251W        W44385  16.182   1.957   0.007 -0.1530  0.0541 -0.2055
28252W        W44386  11.394   3.978   2.026 -0.1950 -0.1883 -0.0658
28253W        W44387  14.878  16.037   2.207 -0.0368  0.0660  0.0805
28254W        W44388   7.361  12.231  17.133 -0.0030  0.5341  0.1255
28255W        W44389  13.777  10.207   1.712  0.1642 -0.1630  0.0135
28256W        W44390  14.683   4.924  16.187  0.1689 -0.0857 -0.0415
28257W        W44391  15.112  14.763  13.819 -0.0461  0.0254  0.1430
28258W        W44392  11.014   0.392  13.696 -0.0706  0.3684 -0.1763
28259W        W44393   4.452   1.936  15.936  0.1412  0.0546  0.2744
28260W        W44394   0.888   1.076   2.563  0.2583  0.0877 -0.0151
28261W        W44395   7.731  16.202  12.367 -0.0642 -0.0694 -0.1066
28262W        W44396  13.633   8.113  12.204 -0.0648  0.0908  0.1941
28263W        W44397   8.651   5.892   1.689 -0.2145 -0.3884 -0.0440
28264W        W44398  11.294   7.595  14.378  0.0909  0.1937  0.2520
28265W        W44399   1.874  14.875   1.607  0.1183 -0.2523  0.1097
28266W        W44400   0.776  12.569   1.961 -0.0287  0.1996  0.2806
28267W        W44401   5.975  10.030  11.845 -0.2998 -0.1396 -0.6412
28268W        W44402  15.807  17.122   3.580 -0.0692  0.2062  0.0685
28269W        W44403  11.538   2.031  14.153  0.0221 -0.0899  0.3351
28270W        W44404   7.760   2.784   1.642  0.0620  0.2209 -0.3175
28271W        W44405   2.187   1.135  16.767  0.1240 -0.3262  0.0413
28272W        W44406   1.037   7.262   3.753 -0.0181  0.0452  0.1556
28273W        W44407   5.552  12.055  12.687 -0.0090 -0.0749 -0.1826
28274W        W44408  15.251  10.271  11.854  0.0283 -0.0890  0.1371
28275W        W44409   9.030   7.562   0.346 -0.5105 -0.0646 -0.1094
28276W        W44410  11.439   1.077   5.076 -0.0927  0.0096  0.2103
28277W        W44411   6.678  14.937   0.379  0.0022 -0.3297 -0.4194
28278W        W44412   7.085   8.063  13.287 -0.2569  0.1923 -0.3260
28279W        W44413  16.517  15.776  14.258  0.3975 -0.2787 -0.0073
28280W        W44414   5.063   1.374   6.303  0.0191  0.1637 -0.1663
28281W        W44415  12.269  12.633  12.904  0.0179 -0.0630  0.2391
28282W        W44416   3.294   2.900   0.738 -0.1369 -0.0072  0.1553
28283W        W44417   3.205  15.729  14.900  0.0659  0.1618 -0.2757
28284W        W44418   9.473   5.878  13.623  0.5391 -0.1458 -0.0568
28285W        W44419  14.962   6.319  12.278 -0.1386 -0.0288 -0.2644
28286W        W44420   7.640   2.774  10.954 -0.0896  0.1644 -0.1466
28287W        W44421   3.231  12.225  14.880  0.0123 -0.3667 -0.0802
28288W        W44422   6.678   7.430  15.832 -0.1343  0.2081  0.0130
28289W        W44423  15.314   6.701  16.436  0.0990  0.0731  0.1832
28290W        W44424   6.790  16.562   0.802  0.1281  0.0101  0.0922
28291W        W44425  14.870   4.509  13.483  0.0948 -0.0626  0.1208
28292W        W44426   2.411   3.185   2.805  0.0128 -0.0646  0.1027
28293W        W44427  12.357  12.259  14.627 -0.0109  0.1545 -0.2784
28294W        W44428  12.739   4.898  14.788  0.1547  0.0045  0.0700
28295W        W44429  13.182  17.088   5.835  0.4136 -0.1947  0.2314
28296W        W44430   2.055   4.427   6.675 -0.0187 -0.0653 -0.2179
28297W        W44431   7.576   6.344   4.410 -0.1124  0.0606  0.1366
28298W        W44432   5.255   7.043   4.911  0.2438  0.0806  0.5324
28299W        W44433   3.607  11.486   4.770 -0.2550  0.2076  0.2042
28300W        W44434  17.295  11.088  16.022  0.0765  0.1197  0.0789
28301W        W44435   8.765   7.019   0.379  0.0851  0.0474 -0.2541
28302W        W44436  12.116   2.958   3.754  0.0973  0.0829  0.2779
28303W        W44437  14.256  14.698  12.135 -0.1977 -0.3645  0.1952
28304W        W44438   7.143   8.079  12.599 -0.1742  0.2361  0.0068
28305W        W44439   8.280   7.146  15.246  0.2600  0.3098 -0.3030
28306W        W44440   9.116  14.399  12.442 -0.2559 -0.1291 -0.0907
28307W        W44441   1.900   6.694   2.433 -0.1309  0.0288  0.0331
28308W        W44442   9.853  11.898   3.013  0.0844  0.0968  0.2404
28309W        W44443   6.904   8.464   4.221  0.1576 -0.1318 -0.2999
28310W        W44444   5.770  13.349  15.135 -0.0064  0.0752  0.0108
28311W        W44445   8.278  14.409  13.075 -0.0761 -0.1279  0.2558
28312W        W44446   5.684   7.229  16.103 -0.0824  0.1416  0.0127
28313W        W44447  16.131   7.014  10.749 -0.2288 -0.0415 -0.1389
28314W        W44448   0.962   0.370   1.846 -0.2251  0.1891 -0.3438
28315W        W44449  14.348   3.286  12.656 -0.0804 -0.3325  0.0069
28316W        W44450  15.737   3.529  14.651  0.1760 -0.3416  0.0101
28317W        W44451  13.013  10.525  14.428  0.0346  0.1691 -0.2182
28318W        W44452  16.788   6.539  14.483 -0.0509 -0.2760 -0.2622
28319W        W44453  17.476   0.730   4.609  0.3426 -0.2499 -0.0284
28320W        W44454   9.233   5.410   3.269  0.1138 -0.0468  0.0506
28321W        W44455   9.245   8.845   0.900 -0.0775 -0.0137  0.0707
28322W        W44456   3.334  11.774   4.267  0.3318 -0.1257  0.1865
28323W        W44457   7.494   8.508  16.365 -0.0707 -0.0467 -0.2127
28324W        W44458   2.767   5.947  15.309  0.2346  0.1465 -0.0897
28325W        W44459  15.558  13.419   3.367 -0.4021  0.1075  0.2759
28326W        W44460   0.620  12.798   3.605 -0.2494  0.2145 -0.0045
28327W        W44461  15.606   6.577   4.190 -0.2118  0.1505  0.0441
28328W        W44462  11.751   0.905   4.226 -0.1331 -0.2589  0.0734
28329W        W44463  14.938  15.688  15.639 -0.0826 -0.1674 -0.3405
28330W        W44464   7.352   8.797   4.242  0.0247 -0.0871 -0.3177
28331W        W44465   0.973   2.776   3.740 -0.1591 -0.1442 -0.2224
28332W        W44466   3.170   5.802   4.122 -0.3095  0.1573  0.1133
28333W        W44467  14.832  10.117  14.710  0.0869 -0.1293  0.0275
28334W        W44468   1.584   8.389   3.773  0.0620  0.0506  0.1998
28335W        W44469   8.563  15.829   5.552  0.0954 -0.0004 -0.0700
28336W        W44470   6.914   9.215  14.770  0.1240 -0.0199  0.1460
28337W        W44471   7.639  11.426  15.859  0.1752 -0.1599  0.3937
28338W        W44472   5.936   5.223  12.534  0.0441 -0.0030  0.1640
28339W        W44473   5.491   2.525  17.102 -0.2940 -0.1813  0.3242
28340W        W44474  15.887   5.870  12.344 -0.0147 -0.1292  0.1009
28341W        W44475  10.175  15.243   1.200 -0.1332  0.1968  0.2969
28342W        W44476   3.541   3.909  14.394 -0.2890  0.4106 -0.1863
28343W        W44477  17.642  12.171   1.302 -0.0068 -0.0019  0.1271
28344W        W44478  13.902   1.481  14.174 -0.0067 -0.0507  0.1573
28345W        W44479   0.699   6.250  13.532  0.2080  0.0409  0.0317
28346W        W44480  14.417  10.087  13.321 -0.0734 -0.1807 -0.1707
28347W        W44481  12.649  17.291  13.841 -0.0237 -0.0401 -0.3385
28348W        W44482  16.985  11.178   3.988 -0.2780  0.0264  0.1483
28349W        W44483  10.660  15.880   1.612  0.3342 -0.3407 -0.0582
28350W        W44484  15.286  14.754   1.465  0.0061 -0.1924 -0.1710
28351W        W44485   8.786   8.550   3.629  0.0409  0.1912 -0.1506
28352W        W44486   2.325  16.837  12.983  0.0647 -0.2810 -0.2430
28353W        W44487  13.499   1.677  13.058 -0.1557  0.4025 -0.1909
28354W        W44488  11.130  15.714  14.309  0.1904  0.1425 -0.0671
28355W        W44489   1.967  13.050   5.548  0.0283 -0.0215 -0.2097
28356W        W44490   1.146   0.939   2.173  0.2572 -0.2948  0.0879
28357W        W44491   6.047   9.053  14.650 -0.0817  0.1745 -0.1111
28358W        W44492   7.295   1.404  14.333  0.2382 -0.0018 -0.3115
28359W        W44493  16.493   0.957  15.538  0.1369  0.1368 -0.2257
28360W        W44494   0.187  10.751   0.307  0.0060  0.1344 -0.2355
28361W        W44495   9.803  14.022   3.598  0.1165 -0.3829  0.1822
28362W        W44496   1.261  11.363   0.058 -0.0064 -0.1869  0.0038
28363W        W44497   5.062  16.679   0.274 -0.0967 -0.0665  0.1179
28364W        W44498   3.244  16.714   2.363  0.2006 -0.1523  0.2682
28365W        W44499   5.134   0.883  12.641  0.3126  0.0176  0.1276
28366W        W44500   3.453   2.503  14.918  0.4653  0.0369  0.2109
28367W        W44501   5.426  11.029   1.504 -0.0651 -0.0978 -0.1920
28368W        W44502   4.042  13.608  12.156  0.0142 -0.1003  0.2977
28369W        W44503   6.692   1.527   1.348 -0.0656  0.1387  0.1810
28370W        W44504  13.601  10.424  13.301  0.2332 -0.4971  0.1172
28371W        W44505   8.554   3.328   4.730  0.0102 -0.2188  0.2895
28372W        W44506  13.129   1.837  16.912 -0.0158 -0.2396  0.4463
28373W        W44507  12.372   2.268   3.914  0.2000 -0.2887  0.0377
28374W        W44508   3.205   5.264   0.690  0.0303  0.0772  0.1614
28375W        W44509   5.863  15.034  12.205  0.0555  0.1601 -0.0998
28376W        W44510   1.903   2.396  12.661 -0.0445 -0.0919 -0.2259
28377W        W44511   4.880   8.859  15.595  0.1279  0.0066  0.0287
28378W        W44512  11.399   2.315   5.482  0.0044 -0.1464  0.0830
28379W        W44513   7.393   8.078  16.126  0.0476 -0.0620  0.0483
28380W        W44514  15.782   9.336  14.773 -0.0447  0.0254  0.1614
28381W        W44515   4.027  13.851  16.170  0.4056 -0.2330 -0.0879
28382W        W44516  11.607  13.505  14.804  0.4430 -0.0469  0.2090
28383W        W44517   7.300   4.294  16.007 -0.0928 -0.0980 -0.0940
28384W        W44518  11.807   2.153  12.405  0.1711  0.2308 -0.1574
28385W        W44519   3.776   1.553   1.500 -0.1220 -0.1285  0.0892
28386W        W44520   8.516   1.205   1.686  0.0220  0.1207  0.1233
28387W        W44521  15.229   3.279   0.291 -0.3519  0.2448 -0.0069
28388W        W44522  13.243   9.988  15.507 -0.2210 -0.3590 -0.1217
28389W        W44523   7.167   6.972  13.491 -0.0225  0.0118 -0.1111
28390W        W44524  10.265   7.002  13.630  0.2748  0.1922 -0.1424
28391W        W44525   7.048   2.787   1.984  0.2762 -0.0444 -0.1558
28392W        W44526   8.262   7.306   3.824 -0.4722  0.2225  0.0046
28393W        W44527   4.230  14.019   0.388 -0.0513 -0.0467 -0.2841
28394W        W44528  12.547  10.723  12.111  0.3093 -0.3637 -0.1088
28395W        W44529   1.935   9.006  13.341 -0.0676  0.2595 -0.2368
28396W        W44530  14.893   1.819   1.414 -0.5421  0.1173 -0.2930
28397W        W44531  13.814  16.713  16.847 -0.4830 -0.3303 -0.0159
28398W        W44532   9.804   1.008  13.602  0.0705 -0.2852  0.1526
28399W        W44533   0.565   0.815  12.416  0.0589  0.0655 -0.0328
28400W        W44534   4.343  16.088   4.544 -0.1386  0.1554  0.0981
28401W        W44535   9.531  16.629  15.731  0.1228 -0.1499 -0.1170
28402W        W44536   1.611  17.285  14.316  0.0648  0.1633 -0.2229
28403W        W44537   1.806   4.494  13.896  0.0935 -0.0420 -0.0268
28404W        W44538   9.376  16.525  11.938  0.0854 -0.1270 -0.1781
28405W        W44539   7.364  16.669   1.427  0.2257  0.0284 -0.1638
28406W        W44540  16.864  14.178   0.735 -0.0416  0.0884 -0.2535
28407W        W44541   0.953  13.937  13.582  0.0376 -0.0309 -0.0065
28408W        W44542  14.102  12.459   1.270 -0.1699 -0.2185  0.1003
28409W        W44543  15.962   7.561  11.596 -0.1621 -0.0888  0.3075
28410W        W44544  11.069   5.441   1.264  0.4165 -0.2066 -0.2602
28411W        W44545  13.008   6.002   2.241  0.0665 -0.0112  0.0458
28412W        W44546   9.610   3.576  11.679 -0.3111  0.0046 -0.1883
28413W        W44547   6.123  16.981  16.597  0.0778 -0.0706  0.0842
28414W        W44548  14.309   4.215  17.081  0.3378  0.3384 -0.1421
28415W        W44549  13.215   8.822  12.143 -0.0150  0.2230  0.0453
28416W        W44550   0.540  14.281  12.800 -0.1576 -0.0650 -0.1713
28417W        W44551   4.244   4.134  13.048 -0.1404 -0.1118  0.1521
28418W        W44552   6.487   6.029   1.513 -0.0036  0.0765 -0.1576
28419W        W44553   4.636  15.002  16.518  0.1800  0.1499  0.0944
28420W        W44554   8.670  12.030  15.470 -0.1140  0.0511  0.1335
28421W        W44555   1.801  17.383   4.819  0.0456 -0.0883 -0.0589
28422W        W44556   3.967   5.817  15.582 -0.0445 -0.1191 -0.0378
28423W        W44557   9.534   2.764  16.911  0.0138 -0.2364 -0.0586
28424W        W44558   9.253  12.420   1.495 -0.0658  0.2451 -0.0582
28425W        W44559  12.059   1.530   2.120 -0.4613 -0.0493  0.0932
28426W        W44560  13.926  12.698   2.301 -0.0678  0.0412 -0.1137
28427W        W44561  12.171   1.907  16.951  0.1385 -0.1872 -0.1888
28428W        W44562   4.385   5.643   3.848 -0.0455  0.1062  0.0596
28429W        W44563   5.614   3.609  15.475 -0.1799  0.0113 -0.2039
28430W        W44564  14.487   1.268  14.622 -0.0018 -0.2773 -0.0991
28431W        W44565   0.655   3.067  16.460  0.0807 -0.3176 -0.1061
28432W        W44566  17.435   7.572   5.043  0.0091  0.1791 -0.3071
28433W        W44567   6.419  16.145   2.842 -0.0246 -0.0711 -0.2372
28434W        W44568   6.573   7.552   1.090  0.0754  0.2182 -0.1169
28435W        W44569   9.872   5.438   5.278  0.0736  0.3428  0.1778
28436W        W44570  13.548  17.009   2.603  0.0395 -0.1498  0.0521
28437W        W44571   8.594  11.058   5.339  0.0489  0.0561  0.2687
28438W        W44572   7.864  15.776   0.360  0.0493  0.2189  0.4141
28439W        W44573  14.572  13.432   3.779  0.0566  0.1152  0.0227
28440W        W44574  10.357   3.363   1.285  0.0431 -0.1845  0.2361
28441W        W44575   6.172  13.634   2.660  0.0564  0.2445  0.0752
28442W        W44576   7.593  14.488  11.883  0.1345  0.0610  0.3986
28443W        W44577   4.000  14.978   4.569  0.0286  0.3304 -0.0483
28444W        W44578   2.826   8.455  11.996 -0.1606 -0.3566 -0.2033
28445W        W44579   4.425  17.263  13.399 -0.0095 -0.0944 -0.2792
28446W        W44580  13.933   3.451  14.604 -0.1499 -0.1740 -0.1699
28447W        W44581  16.391   3.418   2.889 -0.0218  0.2138  0.0017
28448W        W44582   8.487   1.135  13.892  0.0962  0.3660  0.0203
28449W        W44583   3.863   5.974   4.966 -0.1928  0.3699 -0.1548
28450W        W44584  15.492   5.499  14.012 -0.1744 -0.2413  0.1651
28451W        W44585  11.219   4.757  16.577 -0.3247  0.0106  0.2319
28452W        W44586   3.172   8.856  13.753 -0.2668 -0.2146  0.1877
28453W        W44587  11.775   4.806  14.558  0.1214 -0.0846  0.0705
28454W        W44588   6.985   1.180  17.181 -0.3695 -0.1987  0.1516
28455W        W44589   5.767   6.617  14.130  0.0413  0.1002  0.0852
28456W        W44590   9.474  14.678   3.946  0.0192 -0.5046 -0.0287
28457W        W44591   7.186   3.831   0.971 -0.1756  0.1912  0.1000
28458W        W44592   1.145   6.585  13.925 -0.1606 -0.2439 -0.1321
28459W        W44593   5.998  17.179   5.508 -0.5458 -0.1861  0.1163
28460W        W44594   8.939  17.608  14.431  0.1546  0.1467  0.1622
28461W        W44595  11.745  11.129   2.206 -0.0854 -0.2901  0.0679
28462W        W44596  16.363   7.228  12.910 -0.0814 -0.1221 -0.0901
28463W        W44597   5.106   4.527   6.249 -0.2888  0.1939  0.2204
28464W        W44598  16.207  12.976  12.992 -0.1775  0.2128 -0.2564
28465W        W44599  16.977  10.468  14.633  0.0350  0.0060  0.0014
28466W        W44600   3.223   0.788   5.456  0.2693 -0.1459 -0.3455
28467W        W44601   2.229  10.475  14.394 -0.1923 -0.4749 -0.2217
28468W        W44602  16.378  15.733  15.663 -0.0556 -0.1169  0.0393
28469W        W44603   4.978   0.580   1.597  0.2474 -0.3134 -0.0398
28470W        W44604  13.736   4.604   0.634  0.2117  0.0765 -0.3434
28471W        W44605  10.923   2.928   1.222 -0.0859 -0.0954 -0.1193
28472W        W44606   3.484   1.912   5.886  0.2525 -0.1042  0.1440
28473W        W44607   1.117  10.089   1.601  0.1827 -0.1207  0.0537
28474W        W44608   9.348  11.652  16.040  0.0933  0.1558  0.1084
28475W        W44609   3.958  15.248   2.734  0.2557 -0.1830  0.0812
28476W        W44610   1.659   4.940   0.525  0.1783 -0.3408 -0.0935
28477W        W44611   2.857   3.378   4.806  0.0387 -0.0996  0.1867
28478W        W44612   5.386   4.324   3.227 -0.0546 -0.0353  0.2483
28479W        W44613   8.089   4.534  16.380 -0.0564 -0.0495  0.2329
28480W        W44614  16.624   5.907  11.904 -0.0760  0.1538 -0.0303
28481W        W44615   1.735   1.068  16.489  0.0576  0.2598  0.1834
28482W        W44616  15.890   2.556  14.285  0.1565  0.0365 -0.0330
28483W        W44617   8.250  13.244   3.667 -0.0288 -0.2529  0.1175
28484W        W44618   5.591  15.311  14.278  0.0647 -0.1643 -0.2090
28485W        W44619   3.442  10.854   3.016 -0.1628 -0.4420  0.0859
28486W        W44620  17.163  12.350   1.929  0.0246 -0.2137 -0.2991
28487W        W44621   0.088   6.612   2.873 -0.3163 -0.1274  0.0201
28488W        W44622   1.605   1.364   5.719  0.0160  0.3587  0.0136
28489W        W44623   7.967   2.156  11.816  0.1993  0.0326  0.2010
28490W        W44624   9.766  10.436  11.706  0.0737 -0.0892 -0.1200
28491W        W44625   3.881   1.520   0.572  0.1803 -0.1326  0.1303
28492W        W44626  15.093   2.768   0.374  0.0169  0.2636  0.0165
28493W        W44627  16.746   4.451  15.200 -0.0953 -0.0369 -0.2182
28494W        W44628  17.540  16.249   2.721  0.1656 -0.0255 -0.2914
28495W        W44629  12.451  12.742   4.758  0.0626  0.4275 -0.1941
28496W        W44630  16.283  12.200   3.218 -0.0325 -0.1271  0.0331
28497W        W44631   7.251  10.381   1.950 -0.0803  0.2552  0.0820
28498W        W44632  17.288  10.519  15.039 -0.2078 -0.1617  0.1571
28499W        W44633  13.839   8.210   4.399  0.1411 -0.0052 -0.0013
28500W        W44634   0.885   4.654  12.197  0.3765 -0.3654 -0.1459
28501W        W44635   5.121   5.467   1.353  0.1289 -0.3708 -0.1734
28502W        W44636  13.005   2.551   1.250  0.0125 -0.0800  0.0473
28503W        W44637  15.382  13.630   0.207 -0.2126  0.0691 -0.1954
28504W        W44638   0.385  14.130  12.311 -0.0069  0.1529  0.0793
28505W        W44639  12.254   1.062   4.077  0.0172 -0.0447  0.2069
28506W        W44640   9.995   8.477  12.922 -0.0371 -0.0753  0.1641
28507W        W44641  13.149   8.240  12.152  0.0006 -0.0383 -0.0497
28508W        W44642  15.621   9.086  15.789 -0.1223 -0.0066 -0.2857
28509W        W44643   4.046  17.124  12.120  0.3669  0.1347  0.1520
28510W        W44644   4.270  14.938  13.945 -0.0361  0.0737  0.4066
28511W        W44645  14.618   9.276  14.721 -0.2419  0.1161  0.1407
28512W        W44646   5.838   0.666  15.385 -0.1132  0.0440  0.2717
28513W        W44647   6.510  17.247  14.183 -0.2064  0.2148 -0.2553
28514W        W44648  12.603   9.928  16.379  0.0494  0.2154  0.0058
28515W        W44649   1.456   2.799  16.078 -0.1330 -0.3044  0.1405
28516W        W44650   5.724   7.571   0.225 -0.0287  0.1508  0.3077
28517W        W44651   4.859  16.835  11.647 -0.1891 -0.0248  0.0996
28518W        W44652   9.182  15.527  12.801 -0.3801 -0.0715  0.1541
28519W        W44653   2.943  17.575   3.873  0.0008 -0.0467  0.0416
28520W        W44654  13.773  13.510  16.306 -0.0300 -0.1219  0.0075
28521W        W44655  11.619  13.883  15.266  0.0210  0.0648 -0.1878
28522W        W44656  13.111   6.917  15.728  0.0601  0.1235 -0.1714
28523W        W44657   3.435  15.517  15.575 -0.0566  0.1568  0.3881
28524W        W44658   8.079   5.436   4.426 -0.0280 -0.1239  0.0705
28525W        W44659   8.839  13.938  16.650  0.0424  0.0395 -0.1037
28526W        W44660  15.474  11.699   2.863  0.4363  0.0395  0.3633
28527W        W44661  10.320  16.317  16.011 -0.1409 -0.0108  0.2290
28528W        W44662   6.535   3.501   1.144  0.1805  0.1509 -0.0015
28529W        W44663  14.191  10.738   4.065  0.0430 -0.4368  0.0676
28530W        W44664   9.468  11.106  13.155 -0.1424 -0.0582 -0.1582
28531W        W44665   0.311  16.129  14.590  0.0392 -0.0642 -0.1324
28532W        W44666   6.072  11.136   0.201  0.1910 -0.1818 -0.0560
28533W        W44667  17.055  10.261  14.130 -0.0852  0.0589 -0.0454
28534W        W44668   7.484   9.008  16.572 -0.0388 -0.0182  0.3420
28535W        W44669   0.646  17.222   5.399  0.0563 -0.2892 -0.0718
28536W        W44670   3.176  12.236  16.737 -0.0132  0.0007 -0.0815
28537W        W44671   9.568   0.937  16.834  0.1337 -0.0030  0.0224
28538W        W44672  11.137  10.477   2.147  0.2737  0.0216  0.1037
28539W        W44673  11.430   2.712   0.991 -0.1146 -0.1019  0.0066
28540W        W44674   4.233   6.872   5.755  0.0346 -0.1613  0.2029
28541W        W44675  16.742   7.791  10.943 -0.0586  0.2035 -0.1721
28542W        W44676  12.961   7.720  12.939 -0.0130 -0.1404  0.0272
28543W        W44677  15.748   7.662  15.566 -0.1702  0.0037 -0.1132
28544W        W44678  10.237  11.894  15.465 -0.2842 -0.2719 -0.0341
28545W        W44679   6.106   3.200   4.108  0.2018  0.3529 -0.2570
28546W        W44680  15.522  12.842   4.808 -0.0562 -0.0885  0.0997
28547W        W44681  15.143   5.105   5.300 -0.2061 -0.2012 -0.0263
28548W        W44682  12.045   3.448   3.234  0.0761 -0.2039  0.0474
28549W        W44683  15.766   0.120  12.462  0.1623  0.0729  0.1549
28550W        W44684  15.748   7.455   0.663  0.0096 -0.0424  0.1570
28551W        W44685  10.612   4.969   4.909  0.2108 -0.0826 -0.2698
28552W        W44686  15.039   4.615   0.569  0.3085 -0.0150  0.1669
28553W        W44687   4.689   5.030  11.844 -0.0116 -0.1230  0.3157
28554W        W44688  11.614   7.389   4.000 -0.0969 -0.0250 -0.1828
28555W        W44689   3.753   0.131   1.686 -0.2396  0.3426 -0.0352
28556W        W44690   4.410   6.810  16.112  0.0264 -0.2384  0.0383
28557W        W44691  17.298   2.730   1.913  0.2560  0.0225  0.1780
28558W        W44692   9.463  12.446   4.061 -0.0572  0.0796 -0.1201
28559W        W44693  16.680  14.725   4.397 -0.1380  0.1490 -0.2092
28560W        W44694  11.750   1.714   5.962  0.0015 -0.0736 -0.1910
28561W        W44695   7.883  14.141  11.782  0.0305  0.0103 -0.1238
28562W        W44696  14.851  17.089   3.813 -0.0504 -0.2818  0.0480
28563W        W44697   9.174   7.705   1.689  0.1133 -0.1306 -0.2146
28564W        W44698   7.735   2.724  16.298 -0.0753 -0.0290 -0.0462
28565W        W44699   9.849  16.992   1.975 -0.1229  0.1874  0.0578
28566W        W44700   4.538  12.093   1.190  0.3154  0.2184 -0.1863
28567W        W44701  12.155  14.517  16.736 -0.0894  0.1727 -0.0645
28568W        W44702   4.013  15.300   3.231  0.1157 -0.0582  0.1445
28569W        W44703   1.964  16.945  13.379  0.1080 -0.0372  0.1357
28570W        W44704  13.107   6.544  13.051  0.0238 -0.0150 -0.0333
28571W        W44705  15.628   6.989   1.728  0.0361  0.0397 -0.3121
28572W        W44706   1.059  12.279  11.823  0.2343  0.0364 -0.0701
28573W        W44707   8.645  13.183  17.014 -0.0927 -0.0574 -0.0731
28574W        W44708   9.114  12.899   1.539  0.0596  0.1670  0.2201
28575W        W44709   1.452   3.188   4.555  0.0457  0.1777 -0.0990
28576W        W44710  15.064   2.944  13.883 -0.1849  0.3283  0.1826
28577W        W44711   9.909   1.055  15.285 -0.0196  0.3149  0.0785
28578W        W44712   3.475   0.096   1.206 -0.3403  0.2319  0.2651
28579W        W44713   2.077  17.276  15.081 -0.1273  0.1987 -0.2251
28580W        W44714   4.426  10.725  12.601 -0.0656 -0.1083 -0.0794
28581W        W44715  12.601   7.115   0.745  0.0408 -0.2208  0.0156
28582W        W44716   3.803   7.126   0.857 -0.1697 -0.3236 -0.0035
28583W        W44717  16.336   8.071  14.519  0.0535  0.3252  0.1009
28584W        W44718  13.134   4.094   2.766  0.1228  0.1097  0.2858
28585W        W44719   9.135  16.325  14.042  0.1960  0.1564 -0.1424
28586W        W44720   2.544  10.484  12.033  0.1356  0.0668  0.2720
28587W        W44721  13.600  10.667  16.277 -0.1138 -0.1705  0.2202
28588W        W44722  12.236   8.495  13.740 -0.0869 -0.0539 -0.0269
28589W        W44723  14.075  14.130   3.230  0.0809  0.3984 -0.1251
28590W        W44724  14.291  15.837   5.968  0.2680 -0.0591  0.1662
28591W        W44725   3.553   6.794  15.509  0.0559  0.0943  0.1339
28592W        W44726  13.845   2.856   5.171  0.2449  0.1031  0.0345
28593W        W44727  17.625  12.715  11.355  0.0619  0.3075  0.0520
28594W        W44728   5.139   2.939  11.318 -0.0226  0.0815 -0.3602
28595W        W44729   3.787  12.013   2.051  0.0119  0.0569 -0.1467
28596W        W44730   0.078   8.430  13.592  0.1038 -0.1640 -0.4774
28597W        W44731   3.382   3.002   0.194  0.3317 -0.1187 -0.1716
28598W        W44732   7.043   4.923   3.058  0.0932  0.0133  0.0333
28599W        W44733  16.081   4.790   2.332 -0.0528  0.2150  0.0143
28600W        W44734   2.568  17.018   0.559  0.0379 -0.1293 -0.0889
28601W        W44735   3.164   7.035   5.108 -0.1778 -0.0913  0.3603
28602W        W44736  14.004  11.031   3.636  0.0746  0.0904  0.1893
28603W        W44737  15.231  10.558  16.912 -0.0148 -0.0225  0.0181
28604W        W44738   8.506   6.964  13.587 -0.1743  0.0492  0.3333
28605W        W44739  11.466   2.758   2.504 -0.0111  0.1250  0.2166
28606W        W44740  11.064   0.836  16.918 -0.1907  0.0251 -0.1872
28607W        W44741   4.887   1.758   5.708 -0.1676  0.0395  0.4560
28608W        W44742  16.754   0.226  13.893  0.1094  0.0171  0.2511
28609W        W44743   1.482  17.269   5.659  0.1375 -0.0524  0.1426
28610W        W44744  12.958   3.634   2.744  0.0644  0.1108 -0.2142
28611W        W44745  13.115  14.973  14.989  0.1534 -0.0899  0.1583
28612W        W44746   7.359   0.967   1.196  0.2285 -0.2247  0.3231
28613W        W44747   9.791   0.551  15.547 -0.1438  0.0579 -0.4034
28614W        W44748   5.298  14.764  15.771 -0.4324 -0.2020 -0.0772
28615W        W44749  12.679  11.684  13.563 -0.0966  0.0439 -0.0267
28616W        W44750   0.815   7.971   1.914 -0.3965  0.1133 -0.0041
28617W        W44751  12.524   9.200   4.619 -0.0614 -0.1068 -0.0055
28618W        W44752  12.141   5.444   2.948 -0.2205  0.2813 -0.1672
28619W        W44753   6.303   0.017   3.204 -0.1293 -0.3249  0.0232
28620W        W44754   9.949   0.899  11.680 -0.2490 -0.1988  0.0941
28621W        W44755   9.944   9.810   4.655 -0.1673  0.1051  0.0027
28622W        W44756  11.849  14.664  16.359  0.1467  0.3695 -0.0687
28623W        W44757  10.183  10.493   2.196 -0.3167 -0.0166  0.0280
28624W        W44758   8.722   4.639   1.620 -0.2825  0.0424  0.1444
28625W        W44759  11.872  15.908   0.842  0.0306 -0.0272  0.0972
28626W        W44760   0.665  13.575  16.584 -0.1717  0.0780 -0.0760
28627W        W44761  13.635   4.017  11.851 -0.1236  0.0680  0.0003
28628W        W44762  10.720  14.934  14.065  0.0598 -0.0052  0.1803
28629W        W44763   3.966  14.145   2.449 -0.3508  0.1130  0.1123
28630W        W44764   6.689   5.532   1.390 -0.0030  0.0342 -0.2912
28631W        W44765   9.387  17.417   2.515  0.2500  0.2379  0.0705
28632W        W44766   6.378  16.370  13.858 -0.1080  0.2638 -0.1623
28633W        W44767   9.686   6.004  15.118  0.0862  0.1564  0.2236
28634W        W44768  11.183   7.662   3.077 -0.0594 -0.3033  0.2784
28635W        W44769  10.319  15.408  11.903  0.1274 -0.1784  0.2667
28636W        W44770   8.260   9.673  14.596 -0.2135  0.1730  0.2515
28637W        W44771   3.147   5.179  13.895  0.1300  0.1489  0.1169
28638W        W44772   1.357   4.341  11.538  0.1193  0.0802  0.1900
28639W        W44773   0.666  11.871  15.358 -0.1355 -0.1346 -0.1103
28640W        W44774   6.453   7.667   3.359  0.2506 -0.0228 -0.0258
28641W        W44775   5.695   1.676   1.628 -0.0296 -0.0699  0.0015
28642W        W44776  11.298  16.794  13.721  0.0009 -0.0257 -0.2218
28643W        W44777   5.749  10.775  17.134  0.1899  0.0792 -0.0199
28644W        W44778   8.794   2.874   0.439  0.0142 -0.2085 -0.0580
28645W        W44779  13.163   1.442   1.567  0.0413  0.0325  0.2163
28646W        W44780  12.185  12.763   3.467  0.4726  0.1793 -0.0705
28647W        W44781  11.988   2.736   0.313 -0.0326 -0.0636 -0.1254
28648W        W44782   7.839  17.557   4.882 -0.5263 -0.2317 -0.2217
28649W        W44783  14.717  14.663  15.687 -0.0056 -0.1530  0.0126
28650W        W44784   4.809  13.950   0.734 -0.0910  0.1054 -0.0486
28651W        W44785  15.295  15.150   0.474  0.2002  0.0757  0.1938
28652W        W44786  13.895  15.275   4.068 -0.2004  0.2763 -0.1078
28653W        W44787  16.495   2.861   0.268 -0.0333 -0.1965 -0.1540
28654W        W44788   2.414  16.731   3.120  0.0070 -0.0604  0.1503
28655W        W44789  13.040   3.079   0.850 -0.0693  0.0656 -0.0807
28656W        W44790   5.907   3.535   2.592 -0.1852  0.1047  0.3224
28657W        W44791   3.496   9.506  14.212 -0.1176 -0.2215 -0.1816
28658W        W44792   3.233  10.287   1.542 -0.1472 -0.0982  0.2440
28659W        W44793  14.997   0.020   1.568  0.0840 -0.0671  0.2138
28660W        W44794  10.698  14.913   6.246  0.1396 -0.3058  0.1728
28661W        W44795  17.188   6.822   1.049  0.1246 -0.0868 -0.0651
28662W        W44796  15.584   1.265  13.329 -0.1383 -0.3575 -0.1433
28663W        W44797  12.793  12.854  12.706 -0.1444  0.2914  0.1466
28664W        W44798   1.430   0.443   1.610 -0.0468  0.1374  0.1675
28665W        W44799  15.682   5.278   5.294 -0.1355  0.1413 -0.0720
28666W        W44800   1.621   8.083  11.262  0.0583 -0.1705 -0.1163
28667W        W44801   1.065  12.919   1.676 -0.0466  0.0416  0.2006
28668W        W44802  12.608   0.563  12.507  0.1707  0.0009 -0.1130
28669W        W44803  11.988  10.295   3.692 -0.2269 -0.0714 -0.3447
28670W        W44804   7.905   5.819  14.487  0.1819  0.0497  0.1113
28671W        W44805  13.571  15.697   4.034  0.0052 -0.2331  0.1939
28672W        W44806   9.795   8.178  12.538  0.5023  0.1008 -0.1173
28673W        W44807  10.757   5.151   4.198  0.0074 -0.0076 -0.3471
28674W        W44808  10.192   2.392   3.949 -0.1675 -0.0384 -0.1204
28675W        W44809   8.877   3.237  15.734  0.0890  0.0024  0.2861
28676W        W44810  12.901   5.141   1.751 -0.0157  0.0240  0.2393
28677W        W44811   3.026  16.588  17.123 -0.0176 -0.1115 -0.1833
28678W        W44812   7.655   1.395   1.353  0.2967 -0.2408 -0.0603
28679W        W44813   6.658   6.813  14.749  0.0094 -0.0441 -0.0848
28680W        W44814   4.735  16.963   0.504  0.0017  0.0593  0.2886
28681W        W44815   3.994   8.259  17.126  0.0487  0.0554 -0.0883
28682W        W44816   1.444   6.108  16.878 -0.2696 -0.0093  0.0945
28683W        W44817  13.146   2.144   3.800  0.1058 -0.0294 -0.2966
28684W        W44818  17.326   0.918   3.693 -0.0376 -0.2130 -0.1287
28685W        W44819   2.053  16.458  13.228 -0.3166 -0.2488 -0.0869
28686W        W44820   6.679   3.697  11.403  0.0063  0.1493 -0.1343
28687W        W44821  13.459   5.976  16.232 -0.3581 -0.0206 -0.0745
28688W        W44822   7.483  11.118  15.054  0.2044 -0.2181 -0.0432
28689W        W44823   1.690   9.921   5.640  0.2261 -0.1398 -0.1879
28690W        W44824  14.676   4.324  12.555 -0.2216 -0.0987  0.1626
28691W        W44825  10.273  15.201  14.092 -0.0808  0.1053  0.0723
28692W        W44826  13.492  12.118  15.942  0.1027  0.0655  0.0448
28693W        W44827   0.211  17.244   4.513  0.1827  0.1754 -0.0497
28694W        W44828  10.834   0.466   2.949  0.1155  0.4339  0.0600
28695W        W44829   7.024  10.111  15.959  0.1841 -0.0327 -0.0158
28696W        W44830  11.192   9.425   4.897  0.0211 -0.3325 -0.0833
28697W        W44831   5.291   7.042   2.108 -0.3142 -0.4738 -0.2938
28698W        W44832  12.286  13.621   6.280 -0.2006 -0.1764 -0.2985
28699W        W44833   1.398   6.238  14.193 -0.0511 -0.2519  0.0716
28700W        W44834   1.342  10.105   4.554 -0.0369  0.0786 -0.0613
28701W        W44835   3.036   1.793   4.547  0.2604  0.0473  0.1548
28702W        W44836   3.557   6.277  11.689  0.0813  0.0335  0.0226
28703W        W44837   0.768  10.532   1.235  0.1187  0.2600  0.3019
28704W        W44838   9.142  11.691  11.907 -0.2843  0.0249  0.0024
28705W        W44839   9.497   9.760  12.578  0.4765  0.0932  0.3133
28706W        W44840  14.488  11.462  14.954  0.0137 -0.1698 -0.0509
28707W        W44841  10.219   8.791   0.072 -0.0440  0.1220 -0.2291
28708W        W44842  10.723  17.636  15.258  0.1174  0.1125  0.0507
28709W        W44843  10.908   1.800   6.201 -0.1551 -0.0543  0.2688
28710W        W44844   9.334  17.493  13.706 -0.0129  0.1561  0.2680
28711W        W44845   7.350   2.803  15.873  0.0974  0.2040  0.2597
28712W        W44846   9.303   6.416   6.101 -0.1533 -0.1760  0.0862
28713W        W44847  10.427   4.441   3.622  0.0304  0.1659  0.0227
28714W        W44848   7.387  10.478  15.049 -0.1367  0.1071 -0.4956
28715W        W44849   6.402  13.869   0.114  0.4121 -0.0039 -0.0306
28716W        W44850  14.435  10.427   4.876  0.1957 -0.3045 -0.1508
28717W        W44851  16.549   9.513   1.168  0.0547  0.1304  0.2451
28718W        W44852   2.912   1.215  16.595  0.0033 -0.2582 -0.3069
28719W        W44853   3.063   8.309   1.040 -0.0777  0.2027 -0.0492
28720W        W44854   6.992   3.449  16.364  0.1870  0.1282  0.1143
28721W        W44855  15.405  10.117  13.859  0.0735 -0.0861 -0.1307
28722W        W44856  12.543   7.660  16.493  0.0867 -0.0499  0.2425
28723W        W44857  11.417  13.775  17.165 -0.1322  0.0277 -0.1058
28724W        W44858   3.972  12.180  15.788  0.1734  0.3481  0.2597
28725W        W44859   6.186   3.915   0.690  0.2523  0.1601  0.2008
28726W        W44860   1.950   0.608  15.294 -0.2970 -0.2614 -0.1064
28727W        W44861   9.777   3.680   0.292  0.1998 -0.1176 -0.1764
28728W        W44862  14.628  16.955  16.092 -0.0940  0.1143  0.2411
28729W        W44863   7.635   0.555   1.062  0.1614  0.1541  0.1127
28730W        W44864   1.826   1.049   3.223 -0.3346 -0.2843  0.1910
28731W        W44865   8.184   0.469  15.531  0.2088  0.1907  0.1583
28732W        W44866   4.100  12.074  13.876  0.0196  0.1414  0.2751
28733W        W44867   2.289   1.699   0.523  0.1385  0.0058  0.1234
28734W        W44868  16.086  16.112  11.179 -0.1675  0.1983 -0.0401
28735W        W44869  10.615  14.624  16.721 -0.0623  0.2577 -0.2884
28736W        W44870  14.245  10.464   6.158 -0.2067  0.0652  0.0133
28737W        W44871  14.518  17.151  13.442  0.1652  0.2115 -0.0986
28738W        W44872  11.296  16.440  16.216 -0.0276 -0.1493 -0.0762
28739W        W44873  11.152   3.979  12.146  0.1205 -0.3747  0.1829
28740W        W44874  12.723   1.910   3.839  0.0506  0.1615 -0.0051
28741W        W44875  10.050   7.188  15.959 -0.1386 -0.2653 -0.1180
28742W        W44876   8.542   0.118  13.358 -0.0345 -0.0669  0.3203
28743W        W44877   0.024  13.813   0.669 -0.1958  0.3055 -0.0644
28744W        W44878   5.081   1.305   1.257 -0.1356  0.1009  0.1005
28745W        W44879   5.540  11.345  12.386 -0.0198 -0.1160 -0.0186
28746W        W44880  16.827   5.162   6.081 -0.0790 -0.2900 -0.0812
28747W        W44881  11.681   5.769   0.063  0.2227 -0.1146  0.0898
28748W        W44882  14.017   8.759   0.184  0.1556 -0.2629  0.0576
28749W        W44883   5.014   3.702  12.468 -0.1900 -0.1879 -0.0221
28750W        W44884   4.267  12.039  12.992  0.3871 -0.0308 -0.0779
28751W        W44885  15.125  12.497   2.307  0.1563 -0.1943 -0.1911
28752W        W44886  16.557  14.975  14.583 -0.1046  0.3921  0.0625
28753W        W44887  12.480   7.513   2.963 -0.1886  0.0246 -0.0244
28754W        W44888   4.791   7.889   6.062  0.0333  0.3265 -0.0231
28755W        W44889   4.631   8.675   1.694  0.0006 -0.0511 -0.1512
28756W        W44890  12.833   2.422   4.130 -0.0888 -0.2145 -0.2231
28757W        W44891   6.258   3.817   2.434 -0.3237  0.2307  0.3037
28758W        W44892  10.170  13.577  13.523 -0.0889  0.1017  0.1436
28759W        W44893   8.771   1.571  17.008 -0.0158 -0.1615  0.3056
28760W        W44894  16.749   5.146  11.721 -0.3089  0.1412  0.0310
28761W        W44895   8.731  13.012  13.003  0.3347 -0.1172 -0.2368
28762W        W44896   4.957   7.650  12.837 -0.2264 -0.1613 -0.5562
28763W        W44897   5.316   3.849   2.010  0.1813 -0.1415 -0.1254
28764W        W44898   0.630  14.593  15.247  0.1732  0.0908  0.0267
28765W        W44899  16.353   2.355  12.111  0.0125 -0.0160 -0.1383
28766W        W44900   2.858  10.030  16.266  0.2515  0.0826 -0.1205
28767W        W44901   1.741  15.568  13.679 -0.1795  0.3008 -0.0106
28768W        W44902   7.078  14.007   1.538  0.1285  0.2917  0.0769
28769W        W44903   8.169  15.366  16.646  0.0728 -0.1077  0.0129
28770W        W44904  15.582   0.506  12.153 -0.0639 -0.0894 -0.0987
28771W        W44905   0.600  16.590   0.973 -0.0367 -0.2647  0.1769
28772W        W44906   3.501   5.285  14.605  0.1104 -0.1479  0.0928
28773W        W44907   6.359  14.974  13.099 -0.0305 -0.1561  0.2640
28774W        W44908   4.423  13.345  11.835  0.1972 -0.0149  0.0163
28775W        W44909  16.280  14.160  14.151  0.0957 -0.2014 -0.1308
28776W        W44910   0.476  16.950   5.776  0.1044  0.0565  0.0294
28777W        W44911  17.324  16.266  15.609 -0.0182  0.2974  0.1983
28778W        W44912   1.462   6.667  11.493 -0.1363 -0.1358  0.0403
28779W        W44913   6.525   1.068  16.943  0.1547 -0.0856 -0.0417
28780W        W44914  12.682  11.543  14.026  0.1894  0.0562  0.0886
28781W        W44915  13.544  11.267   0.219 -0.0301  0.0817 -0.0121
28782W        W44916   3.463   3.706   1.309  0.0538  0.2352 -0.0306
28783W        W44917  14.955   1.014  16.982 -0.0490 -0.3217  0.0652
28784W        W44918  11.367   3.750  13.589  0.5047  0.1588 -0.0446
28785W        W44919  12.882   3.172  11.486  0.0535 -0.4030  0.1675
28786W        W44920   2.348   2.991  15.625  0.1533 -0.1623 -0.2785
28787W        W44921  17.497  11.074  12.796  0.0757 -0.0595 -0.3047
28788W        W44922   5.864  13.568   0.194  0.1110 -0.1419 -0.1981
28789W        W44923   6.018   6.866   1.772  0.1446 -0.0091  0.1425
28790W        W44924  16.914   0.127   4.011  0.0445 -0.1253  0.2150
28791W        W44925   7.491   6.383   2.483  0.1077 -0.1618 -0.0658
28792W        W44926   1.454   4.751  15.575 -0.2148 -0.2821  0.1742
28793W        W44927   3.221   6.331   2.427  0.1244  0.0018  0.1165
28794W        W44928   0.166   7.499  12.525 -0.0054  0.0165  0.0286
28795W        W44929  16.913   1.624  12.262 -0.0429 -0.2751 -0.0328
28796W        W44930   0.610   0.331  12.693  0.3080  0.0726  0.0685
28797W        W44931   5.894  11.842   1.192 -0.2022  0.2319  0.0308
28798W        W44932  14.349   1.103   2.447 -0.1002 -0.1682 -0.1192
28799W        W44933   8.318  15.196   3.173 -0.1944  0.0650 -0.1127
28800W        W44934   3.358  12.501   0.347 -0.0538  0.0302  0.0924
28801W        W44935  15.360   1.577  16.096 -0.0770 -0.0318 -0.0027
28802W        W44936   0.764  15.664  12.966  0.0860  0.0175 -0.0033
28803W        W44937  16.483   7.085  15.559 -0.0700  0.0694  0.1865
28804W        W44938   5.538  11.525  16.830 -0.1726 -0.0054  0.1149
28805W        W44939  16.637  15.515  15.234  0.1885 -0.1543 -0.3307
28806W        W44940   1.900  11.781   3.799 -0.0009  0.1403  0.0637
28807W        W44941  10.749  14.682   5.809  0.2331  0.0681 -0.1518
28808W        W44942   6.867  16.810   2.922  0.0911  0.0196 -0.1020
28809W        W44943  13.545  12.352  12.335 -0.2153 -0.1350 -0.2393
28810W        W44944   2.553  14.413  14.088 -0.0953 -0.0658 -0.1296
28811W        W44945   9.040   8.095   0.235  0.0733 -0.1103  0.3034
28812W        W44946  14.313   0.475  14.520  0.1376 -0.4068  0.2104
28813W        W44947  12.422   9.332  15.479 -0.0816  0.2033  0.0948
28814W        W44948  13.083  13.972   5.994 -0.4036 -0.0492 -0.3590
28815W        W44949   4.364  16.504   0.226  0.1696  0.0305 -0.0538
28816W        W44950  14.710   0.453   3.167  0.0322  0.2460 -0.0298
28817W        W44951   4.798  10.919   5.445 -0.0601  0.2642 -0.1673
28818W        W44952   5.651   5.694  12.639 -0.1592 -0.1576  0.0613
28819W        W44953   4.902  10.018   2.770 -0.2201 -0.0492 -0.0941
28820W        W44954   5.715  16.017  15.701  0.0859  0.0524  0.3462
28821W        W44955   0.912  13.382  12.353 -0.2370  0.0792 -0.2017
28822W        W44956  16.523  13.776  15.062  0.0206  0.1990 -0.0045
28823W        W44957   8.710  10.585  15.785  0.0447  0.2281  0.1028
28824W        W44958   0.035  15.793   3.082 -0.0226 -0.0607  0.1831
28825W        W44959  17.458  10.451   1.312  0.0091  0.1482  0.0678
28826W        W44960  16.015   0.320   2.170 -0.3029 -0.0261  0.1297
28827W        W44961   3.903  12.378   1.195  0.3761 -0.0453 -0.2263
28828W        W44962   9.125   6.951  12.892  0.0659  0.1788 -0.1407
28829W        W44963   6.632   7.993   3.764 -0.2049  0.0791  0.1451
28830W        W44964   4.626  15.904   2.515  0.0280 -0.1136  0.0880
28831W        W44965  13.378  10.370  12.045  0.3117 -0.0260  0.0342
28832W        W44966  15.425   0.613  14.510 -0.0665  0.1597  0.1561
28833W        W44967  12.081  11.893   1.778  0.0182  0.0550  0.0251
28834W        W44968   8.436   2.037  11.814 -0.0224  0.1256  0.1768
28835W        W44969   2.994  11.712   4.647  0.0624 -0.0570  0.1295
28836W        W44970  12.034  14.138   2.367  0.0129 -0.0811  0.1198
28837W        W44971   4.715   4.983   3.143  0.1711  0.0793  0.2221
28838W        W44972   5.331  16.068  15.368  0.0023  0.0053  0.1778
28839W        W44973   7.942  16.703  14.578 -0.0250 -0.0839  0.1186
28840W        W44974   2.863   3.131  14.395  0.0959 -0.0107  0.3160
28841W        W44975  16.703   9.147   2.194  0.2848  0.2424 -0.0216
28842W        W44976   1.730   4.251   5.858 -0.3067 -0.0751  0.0914
28843W        W44977  16.784  12.154   2.940 -0.0907  0.3693 -0.2005
28844W        W44978  15.436   3.108  16.023  0.0189  0.1784 -0.3109
28845W        W44979  12.372  14.259  14.730  0.0261 -0.1004  0.2014
28846W        W44980   8.501  14.664  15.389  0.1269  0.2136 -0.0440
28847W        W44981   3.596   2.505  16.650  0.2357  0.0386  0.1771
28848W        W44982  16.092   7.835   0.540 -0.0155  0.1663  0.2133
28849W        W44983  10.492   6.460  11.691  0.2765 -0.1719 -0.3080
28850W        W44984   9.817  10.007   0.551  0.0835 -0.2317  0.0913
28851W        W44985  10.742   8.801   1.782  0.1358  0.2834 -0.1915
28852W        W44986   1.390   7.760  13.901 -0.2153 -0.4348 -0.0796
28853W        W44987  16.291   9.287   4.014 -0.0435  0.0406  0.1609
28854W        W44988   2.011   0.970   5.716  0.0231 -0.0383 -0.0567
28855W        W44989   8.622   0.671  14.121 -0.2713 -0.1638  0.0583
28856W        W44990   8.730   5.272  16.269 -0.2616  0.1898 -0.2873
28857W        W44991  17.510  12.039   0.335 -0.0399 -0.0315  0.0848
28858W        W44992   9.951  14.993   4.536  0.1064  0.2228  0.0828
28859W        W44993   4.573  16.810  13.138  0.2297 -0.0179  0.0903
28860W        W44994  10.882   0.142   2.441 -0.2226 -0.1924 -0.0513
28861W        W44995   7.429   2.388  12.297 -0.0374 -0.0944 -0.1210
28862W        W44996   7.112  13.590   2.138  0.0495 -0.2319 -0.1947
28863W        W44997   0.486   7.301  14.240 -0.0757 -0.1037  0.1644
28864W        W44998   9.667  10.440  16.749  0.1873 -0.1297  0.2607
28865W        W44999  14.634  12.693  13.802 -0.0409 -0.2004  0.0109
28866W        W45000  11.039   3.689   2.156 -0.0234 -0.1018  0.1055
28867W        W45001   7.453   6.930  15.252  0.0611 -0.0867  0.2389
28868W        W45002  16.996   0.589   3.403 -0.0734 -0.0785 -0.0538
28869W        W45003   9.874   5.439   5.822  0.0150 -0.2504  0.0353
28870W        W45004   7.050   1.735  13.166  0.0470  0.0787  0.2958
28871W        W45005  14.160   0.755   0.703  0.2721 -0.1438 -0.0374
28872W        W45006   0.393  16.664   6.286  0.0487  0.4691 -0.0248
28873W        W45007   7.115  14.928  15.795 -0.1624 -0.0755 -0.3491
28874W        W45008   1.156  14.438  14.413 -0.1739 -0.2173  0.2039
28875W        W45009  10.412   6.551  13.451  0.1818 -0.0364  0.0500
28876W        W45010  14.890  16.805   5.089  0.0906  0.0625  0.1207
28877W        W45011  13.943  14.528  17.095 -0.1515  0.1053 -0.1821
28878W        W45012   0.511   2.532  12.842  0.1286 -0.0828  0.1884
28879W        W45013   5.996   0.715  15.828 -0.0735 -0.0445  0.0603
28880W        W45014   0.645   0.005  13.667 -0.1057 -0.1370  0.0573
28881W        W45015   4.988  15.476   3.407  0.0242 -0.1694 -0.0506
28882W        W45016   2.285  12.862  15.114  0.5012 -0.1802  0.0506
28883W        W45017   5.220   3.462   3.071 -0.0338  0.3723  0.1936
28884W        W45018  16.271   2.843   2.744  0.2027 -0.0045 -0.0778
28885W        W45019  17.463  15.171   2.424  0.0004 -0.0552 -0.0400
28886W        W45020   4.879  17.463   4.747  0.0461 -0.1938 -0.0514
28887W        W45021  12.608  13.089   2.070  0.0111 -0.0350 -0.1763
28888W        W45022   4.086  16.316   0.849  0.1178  0.1646 -0.0373
28889W        W45023   7.582  15.107  13.236  0.0011  0.2477 -0.5586
28890W        W45024   2.153   8.377   1.877  0.1327  0.1032 -0.0770
28891W        W45025   2.126   4.608  16.508  0.2717  0.1658 -0.0859
28892W        W45026   1.789   7.758  12.857 -0.0087 -0.0427 -0.1330
28893W        W45027   6.638  14.842   2.299  0.0048  0.1202  0.0189
28894W        W45028   0.130   0.990   5.501  0.0431 -0.0209 -0.0125
28895W        W45029  14.795   4.616   3.872  0.0562 -0.3073 -0.0469
28896W        W45030   1.075  17.502  13.420  0.0055 -0.0574 -0.0779
28897W        W45031   1.629  14.515  16.722  0.0384  0.0277 -0.1824
28898W        W45032   4.661  14.586  11.637  0.0185  0.2443 -0.1002
28899W        W45033   8.577  15.628   3.325 -0.0879  0.0548  0.1359
28900W        W45034   1.596  16.264  13.140  0.4973 -0.0328  0.0224
28901W        W45035   0.183   6.688  14.583  0.0242  0.1848 -0.0524
28902W        W45036   7.144  16.287  13.228  0.1512 -0.2604 -0.0095
28903W        W45037  15.067   1.666  12.550 -0.2683  0.0124  0.1564
28904W        W45038   1.225   3.978  16.204  0.2944 -0.2046  0.0205
28905W        W45039   1.774  17.315   6.077  0.1080 -0.2370 -0.3160
28906W        W45040  16.927  10.910  14.457  0.1159 -0.1673 -0.1091
28907W        W45041   2.179   5.337  12.704  0.3115  0.0399  0.2397
28908W        W45042  12.474  12.464  13.670 -0.1046 -0.3390  0.0087
28909W        W45043  14.699   0.789  15.798  0.0498  0.1976 -0.2285
28910W        W45044   8.276   3.024   4.974 -0.3910  0.1606  0.2505
28911W        W45045  16.457   4.152  15.506 -0.1267  0.2854 -0.0194
28912W        W45046  15.661   0.194   1.869 -0.0647 -0.0476  0.0202
28913W        W45047   5.280  13.272  14.774  0.1697 -0.2563  0.4134
28914W        W45048  16.888   7.193  16.505 -0.0186  0.3401 -0.0169
28915W        W45049   7.050  10.005  12.094  0.2427 -0.1059  0.0233
28916W        W45050  17.414   3.911   1.509  0.0263 -0.1131 -0.3420
28917W        W45051  11.404   6.192  17.149  0.0584 -0.1099 -0.3049
28918W        W45052   1.750  15.061   0.194  0.0878  0.0416  0.2727
28919W        W45053  10.354   5.638  12.448 -0.1029  0.3216 -0.2481
28920W        W45054   7.507  15.203  12.545  0.0539 -0.2701  0.0381
28921W        W45055  13.886  10.691  15.891  0.0272  0.2130 -0.2370
28922W        W45056  10.809  16.818  13.016  0.0075 -0.1911 -0.2199
28923W        W45057  16.228   3.381  15.925 -0.0833 -0.0578  0.2533
28924W        W45058   5.425   1.195  14.121  0.0713  0.0304 -0.0282
28925W        W45059   9.864   0.147   2.307 -0.1769  0.1794 -0.2107
28926W        W45060  14.609   0.344   5.463  0.2530  0.1219  0.0388
28927W        W45061   8.811   9.421  17.036 -0.1620 -0.0850 -0.0467
28928W        W45062   2.877  16.754   2.934 -0.1267 -0.1649  0.2246
28929W        W45063  10.224  11.345   1.547 -0.1112 -0.3475 -0.2010
28930W        W45064  12.782   4.313  15.430  0.3087  0.2267 -0.1190
28931W        W45065  13.745  14.736   1.568  0.0085 -0.1804  0.0437
28932W        W45066   2.720   4.017   0.596 -0.0772 -0.1837  0.1775
28933W        W45067   5.741  11.629  13.919 -0.3063 -0.1425 -0.1270
28934W        W45068  14.610  10.865  13.698 -0.2152 -0.4102 -0.2495
28935W        W45069   8.145   7.764  16.419 -0.4443 -0.1221 -0.1013
28936W        W45070  14.377  14.742   5.360 -0.2685  0.2324  0.1380
28937W        W45071   9.552  12.314  12.975  0.2679 -0.0019  0.2487
28938W        W45072  14.413  12.290   4.895 -0.0879  0.1743  0.1874
28939W        W45073   5.855  14.641  16.392  0.0230  0.3414 -0.2403
28940W        W45074  13.685   1.246   3.029  0.0296  0.0289 -0.2612
28941W        W45075   9.160  17.272   5.659  0.1572  0.2597  0.1647
28942W        W45076   6.375   8.916   1.100 -0.0188  0.0527  0.0852
28943W        W45077  13.796   5.482  16.243  0.3070  0.2040  0.0930
28944W        W45078  10.915   3.662  13.106  0.3413  0.0379  0.0032
28945W        W45079   1.025   1.429   2.977 -0.1912 -0.0582  0.0908
28946W        W45080   0.080  16.305  16.660  0.1605 -0.0284 -0.2908
28947W        W45081  13.385   8.111  11.726 -0.0163  0.1570 -0.0110
28948W        W45082  13.994   4.122  13.886  0.2316  0.0857  0.0693
28949W        W45083  12.578   9.438  11.861  0.4334 -0.1520  0.1651
28950W        W45084   9.591   2.854   1.872  0.2312 -0.1184  0.1355
28951W        W45085  15.749   2.582  13.793 -0.1649  0.4699  0.2019
28952W        W45086  14.420  12.783  14.679 -0.1508  0.1620  0.2108
28953W        W45087   8.590   1.093   2.674 -0.0113 -0.4474  0.1713
28954W        W45088   8.753  12.591   1.833  0.1291 -0.2331  0.3426
28955W        W45089  13.512   6.557   2.547 -0.1417 -0.0595 -0.3508
28956W        W45090  17.581  14.678   3.391  0.2689  0.1382 -0.1534
28957W        W45091  13.030  17.655  14.402  0.0319  0.0558  0.2381
28958W        W45092   7.812  11.653  13.991 -0.0181  0.1855  0.1244
28959W        W45093  11.053   6.273   0.329  0.0773  0.0179  0.0147
28960W        W45094  11.035   9.208   4.460 -0.0013 -0.1772 -0.2522
28961W        W45095  13.847  10.124   5.315 -0.1035  0.0531  0.1586
28962W        W45096  16.626  14.555  15.777  0.1173 -0.2752  0.1208
28963W        W45097  12.056   3.754   4.540 -0.0399 -0.3997 -0.1644
28964W        W45098   6.572  15.578  14.902 -0.0997 -0.0029 -0.0511
28965W        W45099   3.484  14.976  16.920  0.0875 -0.3207  0.1206
28966W        W45100  11.765   3.433  14.652  0.0722 -0.3497 -0.0093
28967W        W45101   2.772   0.600   3.108  0.2911 -0.0916  0.2011
28968W        W45102  14.102  10.110  12.461 -0.0064  0.2016  0.1984
28969W        W45103  15.783  11.867  13.290 -0.3176  0.3424 -0.2049
28970W        W45104   3.196   6.687  12.648  0.0683 -0.1647  0.0791
28971W        W45105   7.337  15.538   5.542 -0.0707  0.1755  0.0356
28972W        W45106   0.780   7.472   4.294  0.0240  0.0072  0.0241
28973W        W45107  13.262  16.563   4.181  0.1771 -0.0516  0.2650
28974W        W45108   7.705   4.536  12.006  0.0956  0.1913 -0.1239
28975W        W45109  14.683   6.520  15.866 -0.1060 -0.0292  0.3030
28976W        W45110   1.513   4.421   0.662  0.1349 -0.0127 -0.0289
28977W        W45111   2.487  16.602  14.003 -0.0257  0.0252 -0.1634
28978W        W45112   3.830   5.856   0.547 -0.3559 -0.1424  0.0501
28979W        W45113   4.346   8.681  10.693  0.0696  0.2355  0.0952
28980W        W45114  16.501   9.754   4.806  0.4588 -0.0649  0.0843
28981W        W45115  17.057  12.219   6.323 -0.1167  0.2186  0.0960
28982W        W45116   5.460  11.770   4.914  0.0216  0.0329 -0.1289
28983W        W45117   7.968   1.328  16.340  0.0406 -0.2126 -0.2200
28984W        W45118   0.697   0.491   4.284 -0.0237  0.1253 -0.0751
28985W        W45119   1.238   8.750  10.336 -0.2128 -0.1820  0.0544
28986W        W45120  14.247   0.860  14.809  0.0678  0.0190 -0.0539
28987W        W45121  15.306   7.946   2.369  0.3027  0.2333  0.1069
28988W        W45122  11.950   2.528   0.819 -0.1498 -0.3673 -0.1386
28989W        W45123  14.200   6.507   4.786 -0.0836  0.1922  0.0193
28990W        W45124  13.344  15.449   0.858  0.0224 -0.1053  0.3102
28991W        W45125  14.044   8.156   3.071  0.0535 -0.0819 -0.0945
28992W        W45126   0.863  17.436   5.017  0.1841  0.1561  0.0010
28993W        W45127   4.228  17.106  16.910  0.1752 -0.0586 -0.2063
28994W        W45128   3.630  10.261  16.324  0.0036 -0.2352  0.1513
28995W        W45129  11.671   7.682  12.091  0.0016 -0.0137  0.1603
28996W        W45130   1.437  11.093   1.769  0.1447 -0.1396  0.0702
28997W        W45131   9.743  15.441  16.247  0.0028  0.0896 -0.3057
28998W        W45132  17.631  12.167   2.028 -0.0747 -0.0265 -0.2484
28999W        W45133   1.625   6.939  13.155 -0.1066  0.3171  0.2660
29000W        W45134  17.575  17.169  12.089 -0.0223 -0.1970 -0.0566
29001W        W45135   4.419  12.209   1.677 -0.0329  0.2557  0.0147
29002W        W45136   4.618  13.313  14.133 -0.0210  0.3230  0.2131
29003W        W45137  13.898  10.098  14.627  0.0905  0.1879  0.3062
29004W        W45138   7.542  12.909  13.316  0.2800 -0.2386 -0.0973
29005W        W45139   4.716   1.807   2.740 -0.1978 -0.0787  0.0223
29006W        W45140  17.379   8.357   4.172 -0.2303 -0.1350 -0.1167
29007W        W45141   5.211  10.935  13.803 -0.0435 -0.0503  0.0748
29008W        W45142  13.348   8.041   2.404  0.2854  0.1871 -0.0136
29009W        W45143   8.597   4.314  16.658  0.0330  0.2068  0.0694
29010W        W45144   3.592  15.079   6.570  0.2919  0.0970 -0.3937
29011W        W45145   6.534  14.879   3.775 -0.0409  0.1642 -0.1212
29012W        W45146  11.804   0.177  13.604 -0.3084  0.0602 -0.0007
29013W        W45147  15.566  13.677  11.868 -0.0843 -0.0544  0.1313
29014W        W45148  16.216   2.611   1.021  0.0186  0.0705  0.3409
29015W        W45149   9.729   5.873   2.515 -0.3336 -0.0531  0.0734
29016W        W45150   8.731   0.369   5.837  0.0733 -0.1908  0.2431
29017W        W45151  15.222   4.290   0.062 -0.1277  0.1414 -0.1369
29018W        W45152   4.206   9.809  15.833  0.1926  0.0985  0.1590
29019W        W45153   4.060  12.963   3.706 -0.1953 -0.0748  0.0548
29020W        W45154   5.871   2.606   4.198 -0.0636  0.1815 -0.0186
29021W        W45155  13.237   5.390   0.613  0.0359  0.1119  0.1061
29022W        W45156  15.799  16.383   5.971 -0.3065 -0.1025  0.0997
29023W        W45157   9.221  11.903   2.816 -0.3852 -0.1925  0.1533
29024W        W45158   5.837  12.557  14.844 -0.0870  0.0239 -0.1549
29025W        W45159   8.444   8.217   3.867  0.1042 -0.2106 -0.1529
29026W        W45160   0.925   8.800  12.021  0.0516 -0.0756  0.1805
29027W        W45161  11.089   3.763  11.638  0.1607  0.0722  0.1461
29028W        W45162   6.881  10.996  12.981  0.1990 -0.1583  0.2088
29029W        W45163  15.096  14.889  15.389  0.2509 -0.0814  0.0423
29030W        W45164  12.644  13.721  13.166  0.2153 -0.1526  0.1155
29031W        W45165   3.387   8.721  16.220  0.2431  0.0089  0.0852
29032W        W45166  13.039   8.718   0.523  0.1542 -0.1654  0.0752
29033W        W45167  17.249  14.448   2.543  0.1326 -0.1153  0.1399
29034W        W45168  17.555  17.431  16.758  0.1860  0.1085 -0.2960
29035W        W45169   6.104   9.042   3.561  0.1446  0.0207  0.0820
29036W        W45170  14.372   4.456  12.214 -0.0483 -0.0216  0.2740
29037W        W45171   7.432   7.095  14.707 -0.2883 -0.3210 -0.0876
29038W        W45172   4.237   0.014  13.995 -0.1670  0.1242  0.3731
29039W        W45173   1.460   8.231   3.293  0.2160  0.2637 -0.0264
29040W        W45174  13.265   2.296   4.753  0.0737  0.2319  0.0606
29041W        W45175   5.306   6.647  16.589  0.2252  0.2953 -0.2224
29042W        W45176   7.689  17.422   5.418  0.1526 -0.0673 -0.0999
29043W        W45177  13.416   9.488   3.177  0.1481  0.0232 -0.0214
29044W        W45178   8.203   0.261   4.509 -0.1284  0.1607  0.0846
29045W        W45179   6.864  16.540  16.031 -0.2554 -0.1290  0.1369
29046W        W45180   9.035   6.180  12.395  0.0039 -0.0077  0.3523
29047W        W45181   1.701  15.314  14.143 -0.1343 -0.1835 -0.0120
29048W        W45182   7.177   6.860  11.485  0.3253 -0.0151 -0.2342
29049W        W45183  17.664   9.298  16.526 -0.2978 -0.1747  0.3360
29050W        W45184  16.942   2.633  16.494  0.2580 -0.0617  0.2987
29051W        W45185  11.406   1.068   2.653  0.1562  0.0545 -0.2347
29052W        W45186   1.715   2.773  15.119  0.1396  0.2787 -0.2440
29053W        W45187   8.480   2.498   1.128  0.2223 -0.1071  0.0328
29054W        W45188  15.980  15.316  12.609 -0.1708  0.0338 -0.1611
29055W        W45189   1.264  12.407   2.706  0.2593 -0.0472 -0.1405
29056W        W45190  14.597   1.455   0.520  0.1866 -0.0512  0.0553
29057W        W45191  15.622  12.892   0.915  0.1219  0.2708 -0.1043
29058W        W45192   1.248  16.601   0.038 -0.1462 -0.0947  0.4371
29059W        W45193   3.614  12.568   2.204  0.0942  0.2129  0.0931
29060W        W45194   2.026  15.454  12.358 -0.1501 -0.2573 -0.2746
29061W        W45195   6.300   6.693   3.535 -0.2332  0.1816  0.0751
29062W        W45196  13.468  16.852  16.434 -0.2815 -0.1978  0.0407
29063W        W45197   3.472  11.801   2.847 -0.0643 -0.0247  0.2455
29064W        W45198   4.499   3.437   1.735 -0.0204  0.3547  0.2282
29065W        W45199  11.871   0.436  16.953 -0.2242 -0.1769 -0.0790
29066W        W45200   2.893  14.727   0.601 -0.2607  0.1785 -0.0344
29067W        W45201  10.904  13.136   6.327 -0.1882  0.1673 -0.0223
29068W        W45202  17.189   5.448  14.424 -0.1728  0.1965  0.2487
29069W        W45203   1.844  13.148  13.887 -0.1662 -0.0242  0.0293
29070W        W45204   4.977  12.819  14.823 -0.0570 -0.1046 -0.0492
29071W        W45205  14.548  13.774   4.744  0.1277  0.0538 -0.1082
29072W        W45206   9.477   5.497   2.843 -0.0220  0.0529  0.1541
29073W        W45207   4.361  15.263  16.110 -0.0075  0.2728  0.0884
29074W        W45208   3.152   1.709   1.170 -0.3385 -0.2537 -0.3011
29075W        W45209  10.232  17.659  15.260  0.0394  0.1164 -0.0486
29076W        W45210   0.986   4.504  14.268  0.0184 -0.0205  0.2521
29077W        W45211  15.001   5.451  14.049  0.0032  0.1491  0.0147
29078W        W45212  14.904   8.092   4.519  0.2651 -0.2169  0.3061
29079W        W45213   1.295   1.330   1.303 -0.1585 -0.3518 -0.0711
29080W        W45214  14.273  11.786   4.248 -0.0332  0.0474 -0.2063
29081W        W45215   6.698  11.793   4.599 -0.0423  0.2034  0.5838
29082W        W45216   7.727   2.536   5.010 -0.2299  0.1383  0.2310
29083W        W45217   4.765  15.882   1.128  0.1086  0.3951  0.3108
29084W        W45218  11.729  14.249  14.191  0.0628  0.0082  0.1210
29085W        W45219  11.985   2.450   1.798  0.2403  0.0509  0.1079
29086W        W45220   2.606  15.954   1.509 -0.0361 -0.3020 -0.1199
29087W        W45221  13.991  17.381   3.224 -0.2964  0.1553  0.1698
29088W        W45222   6.729   4.602  14.236  0.0736  0.1045 -0.1187
29089W        W45223  13.852  11.383  15.517 -0.2275  0.0290  0.3380
29090W        W45224   1.934   2.414  16.862  0.0375  0.0107  0.2896
29091W        W45225  13.608   2.366   1.778  0.2129  0.2403 -0.0805
29092W        W45226   0.738   4.890   1.071  0.0039  0.1519  0.2542
29093W        W45227   7.072   8.529  13.253  0.0678 -0.1555 -0.2281
29094W        W45228  10.866   1.429   1.735  0.0538  0.3601  0.1682
29095W        W45229  17.661  12.445   4.749  0.0313 -0.0629  0.1007
29096W        W45230   1.406   8.587  16.173  0.2495 -0.3189  0.3683
29097W        W45231   8.792  11.234   6.236  0.4507  0.1507 -0.3045
29098W        W45232   9.110  12.809   3.793  0.0724  0.1201  0.0056
29099W        W45233  13.901   0.999  14.311  0.2411  0.0587 -0.2345
29100W        W45234   9.237   5.512   5.167 -0.1819 -0.1194 -0.2747
29101W        W45235   7.124   7.314   4.481 -0.2231  0.3111 -0.2294
29102W        W45236   2.263   9.271   3.779 -0.0024 -0.1943  0.4242
29103W        W45237   9.538   0.460   4.522 -0.2277  0.0156  0.3400
29104W        W45238  11.354   0.737   4.741  0.2424  0.2074  0.1683
29105W        W45239   0.979  11.066   1.915  0.0727  0.3779  0.1275
29106W        W45240   6.024  10.509  14.862  0.0459  0.0799 -0.1895
29107W        W45241  10.140   7.504   3.356 -0.2815 -0.0152  0.0205
29108W        W45242  13.440   7.591  15.318 -0.0013 -0.0173  0.0466
29109W        W45243  16.745   3.661  13.262  0.1893 -0.0210 -0.2214
29110W        W45244   7.513  12.471   5.259 -0.0456  0.1908  0.1914
29111W        W45245   9.913  14.922  12.726  0.0806 -0.0594 -0.1775
29112W        W45246  10.717  10.200  14.738 -0.1074  0.0074  0.1980
29113W        W45247  14.499   3.178  15.336 -0.0923  0.2125 -0.0972
29114W        W45248  15.635   5.775  15.762 -0.0728 -0.1017 -0.0962
29115W        W45249  14.279  15.033  15.344 -0.0552 -0.1925  0.2461
29116W        W45250   4.948  17.555  13.367 -0.0618  0.1465  0.0172
29117W        W45251   4.326  13.531   6.001  0.0524  0.1492  0.2568
29118W        W45252  16.444  11.528   6.031  0.0462 -0.0769 -0.1610
29119W        W45253   0.626   2.833  13.227 -0.1195 -0.2755 -0.6388
29120W        W45254  14.569   4.147  11.710  0.1354  0.2069 -0.0756
29121W        W45255   9.185   3.579  13.146  0.0791  0.3796  0.0902
29122W        W45256  12.439   2.405  14.409 -0.4167  0.1396  0.0127
29123W        W45257  15.961   3.057  14.511 -0.0095  0.0330  0.1800
29124W        W45258  11.704  15.295   3.219 -0.0697 -0.1474 -0.1359
29125W        W45259  14.372   3.486   5.513  0.3380 -0.5309 -0.1287
29126W        W45260  17.146   4.831  13.372  0.3355 -0.0830 -0.0449
29127W        W45261  14.093   0.485   2.545 -0.2867 -0.1735 -0.2397
29128W        W45262   5.036  12.375   2.857 -0.0558 -0.1453 -0.0342
29129W        W45263   4.653   7.774   1.861  0.2034 -0.1535 -0.0483
29130W        W45264   1.772  11.519  13.054  0.0218 -0.2059 -0.1661
29131W        W45265   9.170  16.333   1.043  0.0888 -0.2056 -0.3953
29132W        W45266  17.162  12.929  15.187 -0.2924 -0.1679 -0.2091
29133W        W45267  15.313   6.477  16.890  0.1331 -0.0868  0.1118
29134W        W45268   0.830  11.850   1.269 -0.3221  0.0826 -0.1072
29135W        W45269   6.488   6.935   0.129 -0.1407 -0.0534  0.3719
29136W        W45270   0.969   7.748  16.358  0.2671 -0.2152  0.1019
29137W        W45271  13.235  16.688   0.399 -0.0817  0.0672 -0.2315
29138W        W45272   2.664   4.920   2.842  0.1386  0.0321  0.0262
29139W        W45273  12.057   6.937   0.432 -0.1114 -0.0392 -0.0618
29140W        W45274   0.666   6.640   3.991  0.1496 -0.1384  0.0784
29141W        W45275   2.368  15.218   0.919 -0.0400 -0.0263  0.4056
29142W        W45276   3.489   0.613  12.453 -0.1159 -0.0030 -0.3480
29143W        W45277   3.331   4.599  11.721  0.0369 -0.4785 -0.0080
29144W        W45278   0.608   6.451  16.989  0.0989 -0.1156  0.0863
29145W        W45279   7.878   7.663   2.923  0.1903 -0.1728  0.0913
29146W        W45280   8.752  15.099   1.356  0.1728  0.4345 -0.0804
29147W        W45281  12.917  17.368   3.974  0.0375  0.0718 -0.1310
29148W        W45282   0.059   7.501  13.435  0.1930  0.3973 -0.2550
29149W        W45283  14.088   5.451  15.778  0.1500 -0.0179  0.2416
29150W        W45284   9.086  15.728   3.258 -0.1134  0.0705 -0.1998
29151W        W45285   6.967  13.581  15.841  0.0452 -0.0641 -0.2851
29152W        W45286   3.803  13.060  16.765 -0.1999  0.0802 -0.2992
29153W        W45287   8.191  11.887  14.851 -0.5562 -0.2064  0.1942
29154W        W45288  10.233  16.400   5.707  0.3855 -0.2162 -0.0217
29155W        W45289  12.320  11.650  15.460  0.0132  0.2507  0.1477
29156W        W45290   7.847   9.651  16.918 -0.2455  0.1064 -0.0074
29157W        W45291  15.641   7.547   5.120  0.0413 -0.0099  0.2916
29158W        W45292   6.115  15.650   1.548  0.0200 -0.0952 -0.0734
29159W        W45293   3.057   3.880   0.250 -0.2401  0.0502  0.0938
29160W        W45294   4.943  17.218  12.050 -0.0115 -0.2277 -0.1523
29161W        W45295   4.883   4.383   4.649  0.2612  0.1657  0.3392
29162W        W45296   7.506   8.909  15.317 -0.1446 -0.1009 -0.1679
29163W        W45297  14.620  12.837   5.293 -0.0958  0.1641 -0.1451
29164W        W45298  15.110   7.128  16.129  0.0439  0.1276 -0.1515
29165W        W45299   2.650   5.056  15.973 -0.0800 -0.0676 -0.1020
29166W        W45300   9.318  14.188   3.679 -0.4958  0.1131 -0.2576
29167W        W45301  14.730   7.689  13.080  0.0987  0.1058 -0.2442
29168W        W45302   8.957   7.407  12.877 -0.1037  0.0296 -0.1403
29169W        W45303   8.276  10.720   5.445  0.2725 -0.1821 -0.3716
29170W        W45304   0.468  16.495   4.164  0.1163 -0.0311 -0.0462
29171W        W45305  11.523   5.705   5.257  0.2959  0.0138 -0.0447
29172W        W45306  17.290   6.055   2.237  0.2569 -0.0002 -0.1510
29173W        W45307   7.050   9.157   5.968 -0.0280 -0.0924  0.1289
29174W        W45308   9.254   2.973  14.790 -0.0429  0.1647  0.1125
29175W        W45309  12.896   3.472   4.216  0.0629 -0.0356  0.0434
29176W        W45310  14.135   1.521   0.666  0.0416  0.1264 -0.3126
29177W        W45311  16.325  11.719  12.426 -0.1873 -0.2089 -0.1154
29178W        W45312  12.705   3.623   1.803 -0.1593  0.2159 -0.1027
29179W        W45313  12.018  10.673   4.061 -0.2511  0.0738 -0.0467
29180W        W45314  15.548  15.060   5.589  0.0570  0.0004  0.0986
29181W        W45315  17.303  15.609  12.247  0.1178  0.3997 -0.2243
29182W        W45316   3.277  10.605  11.445  0.2984 -0.0034  0.5692
29183W        W45317   3.152  16.943  14.154  0.3910  0.2626 -0.0354
29184W        W45318   9.521   3.639   5.049  0.0989  0.0476  0.1012
29185W        W45319  12.172   7.598   4.615 -0.1190 -0.2596  0.2765
29186W        W45320  10.680  16.913   1.240  0.1100 -0.1780  0.0182
29187W        W45321   1.736  16.733   4.293  0.1422 -0.1703 -0.0092
29188W        W45322   5.765   7.731   2.772  0.1274  0.0781 -0.0336
29189W        W45323  11.892   2.549   5.261 -0.1920  0.2974  0.2633
29190W        W45324  14.907   6.047   4.507  0.1982  0.0229 -0.0121
29191W        W45325  15.653  10.020  12.642  0.0727 -0.2295 -0.0397
29192W        W45326   2.432   4.912   3.283 -0.0463 -0.0412  0.0017
29193W        W45327   0.023  14.914   5.279  0.0785 -0.0566 -0.0226
29194W        W45328  13.638  16.047   0.140  0.1873 -0.0018  0.0322
29195W        W45329   4.123   5.952  16.445 -0.1053 -0.0698 -0.0890
29196W        W45330  10.429  11.839  12.617 -0.0688 -0.1134  0.0311
29197W        W45331   6.459  14.924  16.608  0.0215  0.1449  0.1110
29198W        W45332  13.856  16.966   1.186  0.0924 -0.1194 -0.2447
29199W        W45333  11.774  11.774  16.325 -0.0024 -0.1413  0.0741
29200W        W45334  17.039   0.676  13.939  0.1304 -0.0268  0.1250
29201W        W45335   7.137   5.473   3.031  0.1829 -0.2277  0.2096
29202W        W45336   6.609   0.823  12.856 -0.0803 -0.3156  0.0830
29203W        W45337   6.289  10.992  12.117 -0.1769 -0.2860  0.1613
29204W        W45338   2.917  10.996   1.891 -0.0820 -0.0095 -0.0692
29205W        W45339   1.339  13.246  12.627 -0.0272  0.0969  0.0004
29206W        W45340   0.649  10.054   1.882 -0.0193  0.1475  0.3777
29207W        W45341   1.409  17.169   4.579  0.0973  0.0512 -0.0122
29208W        W45342  12.154   5.878  16.429 -0.0415  0.0124  0.1641
29209W        W45343   8.093   5.066   0.498  0.0072 -0.3102 -0.3431
29210W        W45344  11.445  12.033  15.066 -0.0653 -0.0527 -0.0386
29211W        W45345   6.294   7.747   4.366  0.0711 -0.0570  0.1746
29212W        W45346   9.616   0.152   3.290  0.0717  0.0054  0.1851
29213W        W45347  15.404   6.762  15.603 -0.0626  0.0986 -0.0602
29214W        W45348   4.909   3.077   5.496  0.0227  0.0712 -0.4065
29215W        W45349   4.779   1.800  14.620 -0.4056 -0.0117  0.1904
29216W        W45350   6.445  13.211   1.584 -0.0454  0.1756  0.0839
29217W        W45351  15.348  10.377  11.303 -0.0712 -0.0013  0.1715
29218W        W45352  17.307   3.158   0.257 -0.0465 -0.1280  0.4310
29219W        W45353   1.640  13.260   0.349  0.3696 -0.1980 -0.1738
29220W        W45354   6.378   8.415   1.275 -0.0129  0.0999  0.0158
29221W        W45355   2.240   1.472  17.170 -0.0226 -0.0107 -0.1971
29222W        W45356   2.771   3.141   1.028 -0.1226 -0.3144  0.0711
29223W        W45357  11.091   1.533   2.655 -0.0442 -0.1567 -0.1110
29224W        W45358  13.323  11.271  15.498 -0.3382  0.2480  0.1313
29225W        W45359  17.641   9.256  12.913 -0.1322  0.2336  0.2569
29226W        W45360  10.734   9.092  15.024  0.1752  0.0343  0.0930
29227W        W45361  10.304  11.528  13.211 -0.0304  0.2895 -0.2609
29228W        W45362  15.145   9.891   0.824 -0.2060 -0.0439  0.1012
29229W        W45363  16.419   5.151   0.821  0.1162 -0.1444 -0.1347
29230W        W45364  17.113  12.403   3.177 -0.0985  0.1460 -0.2363
29231W        W45365   1.765  13.700   0.683  0.1718  0.1382  0.0602
29232W        W45366   0.281  10.857   1.848  0.0287 -0.0913 -0.0118
29233W        W45367   2.887  14.024   3.420  0.2097  0.0280  0.1222
29234W        W45368   8.356  12.720   4.930  0.1396  0.0806  0.1261
29235W        W45369   1.586   0.983   4.462 -0.0877  0.1418  0.0347
29236W        W45370   2.790   8.884   2.782  0.2499 -0.1231 -0.1486
29237W        W45371   9.820  10.149   1.657  0.1623 -0.3760 -0.1562
29238W        W45372   5.628   2.462   1.063  0.0943  0.0506 -0.0863
29239W        W45373   3.657  12.606  13.525  0.1285  0.0650 -0.2491
29240W        W45374   4.811   1.266  16.380  0.0995 -0.0179  0.0856
29241W        W45375   5.816  12.919   4.113 -0.0807  0.0838 -0.0756
29242W        W45376  15.914   2.132  15.843  0.2225  0.2885 -0.1568
29243W        W45377   7.176   3.157  16.959  0.0030 -0.4414  0.0722
29244W        W45378  11.337  11.784   2.407 -0.2931  0.2791 -0.2742
29245W        W45379   7.114   0.225  15.664 -0.0369  0.2118 -0.3353
29246W        W45380  16.192  14.187   5.778 -0.1058  0.0883  0.0411
29247W        W45381   4.966   3.451   2.213  0.1757  0.0350 -0.1600
29248W        W45382  15.621  13.520   5.658 -0.0501  0.0348  0.0018
29249W        W45383   4.788   3.627   2.671 -0.3478  0.0669  0.0098
29250W        W45384  12.129  10.257   2.164 -0.1871 -0.3351  0.0281
29251W        W45385  13.454   8.563   5.432  0.0861 -0.3506  0.2464
29252W        W45386   3.804  11.312   0.278 -0.1221  0.2253  0.2422
29253W        W45387   1.306   3.565  16.517 -0.1087 -0.2472 -0.0681
29254W        W45388  14.828   7.760   2.367  0.0598  0.1182  0.0060
29255W        W45389   9.044  16.064   1.481 -0.2856 -0.0041  0.1226
29256W        W45390   4.387  14.652  16.230  0.2697 -0.1535 -0.3152
29257W        W45391   7.962   8.826   1.427 -0.0719 -0.0204 -0.0821
29258W        W45392   5.181   1.741  14.246  0.3011 -0.1569  0.2518
29259W        W45393   5.449   6.797   6.561 -0.3149  0.0362 -0.0839
29260W        W45394   0.413   6.245   5.712 -0.2068  0.2048 -0.0511
29261W        W45395  10.187   8.447  14.905  0.2314  0.1478 -0.0521
29262W        W45396   4.156   8.167   0.450 -0.2590  0.0190 -0.1255
29263W        W45397  14.731  17.565  16.201 -0.2641  0.0568 -0.1562
29264W        W45398  14.023   1.569   5.213  0.4212  0.0099 -0.2979
29265W        W45399  15.735  11.902  15.955 -0.1156  0.0582  0.2052
29266W        W45400   4.137   6.200  11.568 -0.3944 -0.1887  0.0722
29267W        W45401  13.615  13.898  15.884 -0.2433  0.1855  0.2584
29268W        W45402   6.840  17.308  12.630 -0.1951 -0.0927 -0.2438
29269W        W45403   0.839   4.013   5.306 -0.3103  0.1431  0.0634
29270W        W45404  13.398   9.989   2.394 -0.0842  0.1345  0.2397
29271W        W45405   2.351  14.745  15.836 -0.0120 -0.1139 -0.1277
29272W        W45406  10.510   5.021  14.533  0.0539  0.0403  0.2702
29273W        W45407  14.174   9.109   6.007 -0.2348  0.0317 -0.1795
29274W        W45408  10.192   2.804  14.152  0.2229 -0.1590  0.0562
29275W        W45409   2.772  10.869  12.710  0.0707  0.0633 -0.0691
29276W        W45410  10.435  13.830   5.910  0.2789 -0.0700 -0.0030
29277W        W45411  11.253   1.543   1.422 -0.0660 -0.1614  0.2153
29278W        W45412   5.399   0.762   0.813  0.0610 -0.0381  0.2205
29279W        W45413   3.431   4.924  14.979  0.2860  0.0516 -0.1962
29280W        W45414  16.581   8.618   2.251  0.2325 -0.3911  0.1739
29281W        W45415   3.091   4.104  14.755  0.2504  0.4385 -0.0227
29282W        W45416  17.117  10.289  12.463 -0.0287  0.2257  0.1893
29283W        W45417  12.611   8.017   2.473  0.0789 -0.1273  0.1040
29284W        W45418  15.828  13.098  12.540  0.1120  0.0871 -0.3379
29285W        W45419   3.653  15.069  15.702  0.0648 -0.3032 -0.0434
29286W        W45420   6.203  17.009   1.783 -0.3881  0.2974 -0.1543
29287W        W45421  17.474   3.367   5.406  0.2098  0.1672 -0.0859
29288W        W45422   2.639  16.421  15.849 -0.0099 -0.2718 -0.0052
29289W        W45423   0.943  11.220   5.877 -0.2742  0.0050 -0.0896
29290W        W45424   5.312   7.931   4.022 -0.2056 -0.2259  0.1032
29291W        W45425   6.585   8.481   3.734  0.1153 -0.3314 -0.0675
29292W        W45426   8.792  10.200  13.673 -0.2820  0.2031  0.2001
29293W        W45427  12.585   6.714   4.674 -0.0631 -0.2225 -0.0957
29294W        W45428  15.258   6.959  10.509 -0.0949 -0.1276  0.2003
29295W        W45429   8.499  14.285   3.905 -0.0561  0.0259  0.0490
29296W        W45430  10.857   2.618  14.822  0.1164 -0.1047  0.0523
29297W        W45431  17.012   8.146  16.819  0.0749 -0.0383 -0.0377
29298W        W45432   6.949  13.032   5.837 -0.1165 -0.0295  0.3152
29299W        W45433   4.023  10.413  16.604  0.1633 -0.2920  0.0529
29300W        W45434  15.310   3.882  10.990 -0.2836  0.0432 -0.0824
29301W        W45435  11.573   8.949   4.106 -0.2738  0.2521 -0.0379
29302W        W45436   2.087  11.894   0.279  0.2890 -0.2057  0.1189
29303W        W45437   5.849   6.706  17.165  0.2077  0.0915  0.2649
29304W        W45438  10.337   9.441   3.466 -0.2128  0.1003  0.3355
29305W        W45439  13.375   6.310   3.338  0.1864  0.2748 -0.1507
29306W        W45440   3.232   2.946  14.728  0.0816 -0.3505  0.0292
29307W        W45441   7.019  15.619   2.039 -0.2178 -0.4165  0.1655
29308W        W45442   4.480  13.953  12.169  0.2012 -0.0222 -0.0889
29309W        W45443  16.244  10.662   4.402 -0.1573  0.2849  0.0258
29310W        W45444   9.195  11.008   2.873  0.1708 -0.2494  0.0736
29311W        W45445   0.006   3.218  14.555 -0.1420  0.2709  0.0072
29312W        W45446   0.094   0.147   3.834 -0.0577  0.0504 -0.1570
29313W        W45447   8.625   7.263  16.529  0.2944  0.0266 -0.2157
29314W        W45448  13.371  16.822  17.097  0.2069  0.0731  0.4263
29315W        W45449   7.072   0.778  11.518 -0.0145  0.1387 -0.0603
29316W        W45450   5.289   0.884   1.272  0.2220 -0.0397 -0.0529
29317W        W45451   8.197   8.437   1.783 -0.2132  0.0055  0.1445
29318W        W45452  11.918   2.970  13.439  0.0809 -0.2072 -0.1701
29319W        W45453  14.049  15.846  16.534 -0.3352 -0.0481 -0.1037
29320W        W45454   2.458   0.880   3.857  0.2618  0.0379  0.0766
29321W        W45455   0.984   8.289  16.255  0.2392  0.2322 -0.1208
29322W        W45456   1.652   6.902   2.032 -0.2918 -0.2436 -0.0764
29323W        W45457   0.735   5.206   1.916 -0.1395  0.0997  0.0851
29324W        W45458  12.926   0.131  14.921  0.0076 -0.1603  0.0460
29325W        W45459   8.280  11.970   1.524 -0.1377  0.1006 -0.0402
29326W        W45460   3.322  16.106  14.102  0.1754 -0.3256  0.0454
29327W        W45461   8.106  17.499  14.297  0.2076  0.1554  0.0881
29328W        W45462  14.467   2.357  14.881 -0.0924  0.4056  0.1134
29329W        W45463  14.679   6.087  13.882 -0.2480  0.2093  0.0938
29330W        W45464   5.166  11.786   1.829 -0.4612  0.3887 -0.1523
29331W        W45465   7.941  11.632  11.885  0.1623 -0.2314  0.3039
29332W        W45466  16.052   4.892  14.539 -0.1796  0.0159  0.0483
29333W        W45467   8.977   9.892   1.933 -0.1570 -0.0579  0.2111
29334W        W45468   9.531   4.731  16.540  0.0944  0.0683 -0.0455
29335W        W45469  10.698   1.808  11.794 -0.0026 -0.0257 -0.5055
29336W        W45470   4.775   3.204   4.014 -0.1970  0.0371  0.1271
29337W        W45471   0.121  12.184  15.323 -0.1128  0.4242 -0.0803
29338W        W45472  11.309  14.735  13.334 -0.0052 -0.1449 -0.3026
29339W        W45473   5.367   3.866  17.125  0.0722  0.0099  0.2301
29340W        W45474   3.468  12.252   3.034 -0.0376  0.3225 -0.2217
29341W        W45475  15.509   3.853   1.835 -0.0515 -0.1124  0.2086
29342W        W45476   2.832   4.993   0.405 -0.1900 -0.2079  0.0612
29343W        W45477   8.179   3.154  13.264 -0.1943  0.2686 -0.2356
29344W        W45478   4.292  13.165   4.140 -0.1352  0.0650  0.0070
29345W        W45479  12.524   1.311  12.718 -0.0993  0.2255  0.1665
29346W        W45480   0.850   4.418   4.319  0.0091 -0.1565  0.2146
29347W        W45481   7.044   9.221   3.316  0.1735  0.0375 -0.4191
29348W        W45482   1.101   7.332   1.760  0.1903 -0.2793  0.1442
29349W        W45483   5.427  11.381  11.923  0.2104  0.1624  0.2641
29350W        W45484  12.039  13.784   4.874  0.0459 -0.1881  0.1792
29351W        W45485  16.325   5.084  15.954 -0.1992 -0.1117  0.0210
29352W        W45486  15.619   6.959  14.254  0.2178  0.1666  0.1769
29353W        W45487   2.022  14.633   3.723  0.0336 -0.1180  0.0318
29354W        W45488  11.263  17.022  11.779  0.0479 -0.0715 -0.1551
29355W        W45489   7.513  14.381   2.902  0.0934  0.3190  0.0997
29356W        W45490  11.929   5.376   1.569 -0.5149 -0.5356  0.1772
29357W        W45491   9.499   7.137  14.765  0.0719 -0.0480 -0.1132
29358W        W45492  14.184  10.221  15.615 -0.0820  0.1856  0.0806
29359W        W45493  13.724   1.387  12.167 -0.1561  0.1128  0.1808
29360W        W45494  14.082   9.964   3.020 -0.2154 -0.1655 -0.1154
29361W        W45495  15.406   5.150  16.944  0.2705  0.3186  0.0968
29362W        W45496   1.101   9.486   2.194  0.0631  0.0584  0.2008
29363W        W45497  13.922  11.148  17.010  0.0314  0.0704  0.0789
29364W        W45498  13.631  17.628  11.032  0.0182  0.2653 -0.4045
29365W        W45499   9.314   0.838  15.286  0.1623 -0.0266  0.0000
29366W        W45500  17.113   3.457  10.618 -0.0345 -0.0739 -0.1085
29367W        W45501   4.982  16.047   3.356 -0.1935 -0.1712 -0.1054
29368W        W45502   0.522  15.629   1.168 -0.0341  0.0990 -0.1777
29369W        W45503  12.875   3.553  11.973 -0.1252 -0.1269 -0.0375
29370W        W45504  10.709  14.102   5.058 -0.1633 -0.0036  0.0123
29371W        W45505   0.014   9.660  16.189 -0.2730  0.1847 -0.2719
29372W        W45506   5.721   4.218   0.705  0.2746 -0.0034  0.1440
29373W        W45507  13.629   2.701  15.727  0.1276 -0.2511 -0.1120
29374W        W45508   1.154  15.994   1.811 -0.0413  0.2805  0.0183
29375W        W45509   8.225   4.375   4.980  0.0861 -0.1121  0.3055
29376W        W45510   9.154   3.696  15.704  0.1781 -0.0869 -0.3195
29377W        W45511   1.850  17.654   1.666  0.0783  0.3735 -0.0921
29378W        W45512   7.445   2.836   5.415  0.2266  0.1097 -0.0858
29379W        W45513  17.124  14.393  14.583 -0.0283 -0.1411 -0.1073
29380W        W45514   0.606  17.433   5.901 -0.0606  0.0622  0.4643
29381W        W45515   5.624   1.196   1.231 -0.0496 -0.1295 -0.1107
29382W        W45516  12.645  11.046   4.069 -0.0407 -0.0366 -0.0692
29383W        W45517  17.576   6.059   0.525  0.0126 -0.0728  0.0576
29384W        W45518   8.123   7.531   0.763 -0.2511 -0.2469  0.2227
29385W        W45519   1.352  15.109   4.874  0.0205  0.0753 -0.2074
29386W        W45520  13.299   1.053  15.276  0.0925 -0.0522  0.1170
29387W        W45521  12.808  13.612  11.795  0.0054 -0.0150  0.2589
29388W        W45522  17.322  14.502  12.821 -0.1176 -0.1934 -0.1266
29389W        W45523  17.499   1.096  13.446 -0.1948  0.2162  0.3236
29390W        W45524   3.048   3.033   1.389 -0.3722  0.0791  0.1076
29391W        W45525  17.468   2.249   3.153  0.1374  0.2638 -0.0861
29392W        W45526   3.891   6.957   3.725 -0.1811 -0.0068  0.0783
29393W        W45527  16.853   2.238   4.231  0.2334 -0.1400  0.1415
29394W        W45528  17.126   1.513  16.447  0.0149  0.1322 -0.0801
29395W        W45529   8.802  11.269  11.179  0.1203 -0.1877  0.1350
29396W        W45530  16.419   9.609   0.062 -0.2397 -0.0805  0.0506
29397W        W45531   9.646   1.380  17.148 -0.0381 -0.0402  0.3907
29398W        W45532  16.596   7.587  16.847  0.3800 -0.0009  0.0567
29399W        W45533   7.534  11.514  12.550  0.2321  0.0048  0.0326
29400W        W45534   6.957   8.059  15.293  0.1156 -0.1251  0.0423
29401W        W45535   0.602  16.315  16.037 -0.0587 -0.1173 -0.3072
29402W        W45536  16.295   3.901   5.936 -0.0737  0.1909 -0.0239
29403W        W45537  14.588   1.972   0.561  0.2152  0.1292  0.0956
29404W        W45538   3.853   5.778  16.057 -0.1127 -0.0706  0.0877
29405W        W45539  10.861  15.946   1.083 -0.1650  0.1400  0.3289
29406W        W45540   5.839   0.090   3.602  0.1929  0.0446 -0.2083
29407W        W45541  14.443  12.600   2.545  0.1072  0.1828 -0.0055
29408W        W45542  17.523   5.474  14.765 -0.1263  0.0476 -0.0984
29409W        W45543  16.332  16.216   5.994  0.1575 -0.3004 -0.0310
29410W        W45544   9.655   8.708   3.948  0.1364 -0.0513  0.0146
29411W        W45545   4.177   6.895   4.894  0.1192 -0.1298 -0.2364
29412W        W45546  17.338  15.950   5.788 -0.3427 -0.1278 -0.0543
29413W        W45547  14.637  14.072  14.908 -0.2024  0.4531 -0.0202
29414W        W45548  16.636   2.591   4.532 -0.0752 -0.1824  0.0332
29415W        W45549  10.855   4.584  10.999  0.3271 -0.1296  0.0343
29416W        W45550   6.897   4.819  15.412  0.1252  0.3740 -0.2020
29417W        W45551  14.312  17.646  12.690 -0.0350  0.0784 -0.1941
29418W        W45552   0.843  13.984  13.017  0.0869  0.1327  0.0224
29419W        W45553   1.283  16.148   3.685  0.3230  0.2093  0.1592
29420W        W45554   8.965  12.063  13.550 -0.0306  0.1211 -0.2690
29421W        W45555  16.846   3.203   3.143 -0.0404  0.0683  0.1171
29422W        W45556  13.584   3.412   3.074  0.0456 -0.1552 -0.2893
29423W        W45557   5.232  16.738  15.685  0.0605 -0.0624 -0.1276
29424W        W45558   9.159  16.837  16.089  0.0066  0.2924 -0.0448
29425W        W45559   2.304   7.081  11.114  0.2199  0.1179 -0.2891
29426W        W45560   7.911  15.499  15.864 -0.0951 -0.2849 -0.0877
29427W        W45561  13.727   4.285  16.473  0.0974  0.5052 -0.0430
29428W        W45562   6.119   9.975   2.828 -0.1540  0.4872  0.1573
29429W        W45563  11.588   4.950   0.490  0.1021  0.1658  0.1680
29430W        W45564  10.584   7.037  16.054 -0.1617  0.0887 -0.2642
29431W        W45565  12.555  12.346   2.943 -0.1761  0.1061 -0.1157
29432W        W45566   2.938   2.109   4.041  0.0827 -0.0241 -0.0263
29433W        W45567   4.914   2.364   2.704  0.1247  0.0758  0.0415
29434W        W45568  15.059  13.539  12.682  0.5603 -0.2945 -0.0302
29435W        W45569  14.182  10.700   4.565  0.0539 -0.2158  0.1091
29436W        W45570  15.658  13.990   0.437  0.1264 -0.1037  0.3138
29437W        W45571  13.315   5.256  16.029  0.1160  0.1514  0.0895
29438W        W45572  11.296   2.665   3.357 -0.2420 -0.0302 -0.0384
29439W        W45573  15.490   0.445  15.445 -0.0702 -0.3563  0.0887
29440W        W45574   7.525   8.326  11.714 -0.0488 -0.1434  0.1426
29441W        W45575   8.034  13.454  16.370 -0.1304 -0.1464 -0.0532
29442W        W45576   1.993  15.081   2.810 -0.1005 -0.0755 -0.0057
29443W        W45577   6.148   3.633   4.325 -0.0417 -0.0268  0.1551
29444W        W45578   7.448  17.139   5.105 -0.2049  0.0718  0.1061
29445W        W45579  10.680   0.011  14.630 -0.0031  0.1963  0.3182
29446W        W45580   9.655  17.439   2.066  0.1205 -0.1152 -0.1380
29447W        W45581  15.790  17.400  14.708  0.1816  0.1584 -0.2786
29448W        W45582   7.092   5.701  15.452 -0.2082 -0.0965  0.0585
29449W        W45583  16.078   8.263   4.090  0.0398  0.0990 -0.1735
29450W        W45584  17.299   9.667  16.538  0.1844  0.3066  0.1165
29451W        W45585  15.030   4.803   2.453  0.0229  0.3625  0.2550
29452W        W45586   7.901  12.268  14.595 -0.0278  0.0692  0.0965
29453W        W45587   3.559  14.267  14.324 -0.0450  0.1780  0.1010
29454W        W45588  16.458   7.966   2.426 -0.1230  0.0948 -0.1146
29455W        W45589   7.669  12.254  15.676  0.1304  0.0976 -0.0066
29456W        W45590  10.020  12.522  14.239 -0.1688  0.0705 -0.1686
29457W        W45591  17.540   1.345   3.468  0.0952  0.0175 -0.1335
29458W        W45592  16.945  15.864   1.579  0.4598  0.3388 -0.0475
29459W        W45593   1.254  14.174   3.603 -0.0983  0.0837  0.0864
29460W        W45594  11.175   2.331  11.542  0.0677 -0.0459 -0.1619
29461W        W45595  17.533   8.945   2.494  0.2740 -0.2733  0.1981
29462W        W45596   2.637  13.843  13.337 -0.0847  0.0214 -0.1538
29463W        W45597  12.780   7.786   3.246  0.2410  0.0074 -0.2362
29464W        W45598   0.239   2.248   0.161  0.0384  0.0284 -0.1937
29465W        W45599   3.398  16.087   4.091 -0.0168 -0.4454  0.0946
29466W        W45600  11.546  14.019   6.579  0.0494 -0.0436  0.0258
29467W        W45601  11.064   7.215   2.267 -0.1968  0.0457 -0.2160
29468W        W45602   9.606  14.158   2.653 -0.0495  0.1260  0.0075
29469W        W45603  12.970  13.928   2.456 -0.0549 -0.2383  0.2622
29470W        W45604  17.602  12.450  12.648 -0.0127  0.2042  0.1289
29471W        W45605   5.821   6.645  14.937  0.0907 -0.2996  0.1016
29472W        W45606  12.918   2.589   0.628  0.1281 -0.1685 -0.0324
29473W        W45607   6.410   6.759  14.193  0.2572 -0.0219  0.1585
29474W        W45608   2.242   7.351  13.614  0.0282 -0.1923 -0.3652
29475W        W45609   7.582  16.719  12.630  0.0881  0.1970 -0.0912
29476W        W45610  17.386   0.953  12.496  0.0755  0.0808 -0.3127
29477W        W45611   3.691   6.749  12.743  0.1168 -0.0461 -0.1069
29478W        W45612   4.901   9.459  12.302 -0.2144 -0.0026  0.1289
29479W        W45613  17.550  14.344   1.303 -0.0990 -0.0101  0.1582
29480W        W45614   7.632  14.848  13.726  0.0823 -0.0265  0.4254
29481W        W45615  15.540   0.506   0.982  0.0136 -0.0316 -0.1312
29482W        W45616   6.822  12.751  12.299  0.1225 -0.1491  0.1501
29483W        W45617   8.878  15.048   5.633  0.0121 -0.0305  0.0712
29484W        W45618  10.442   3.719   3.125  0.3160  0.0495  0.3096
29485W        W45619   4.675  16.791  16.503  0.1889  0.0108  0.0043
29486W        W45620  11.716   6.300  12.944  0.1298  0.0147  0.0765
29487W        W45621   3.288  12.002  12.275  0.0544  0.1057 -0.0650
29488W        W45622   7.043   1.326   4.370 -0.2220 -0.2441 -0.4554
29489W        W45623   3.900  15.271  15.367 -0.1770 -0.0523 -0.0084
29490W        W45624   7.922   9.622   1.077 -0.0060  0.1519 -0.0045
29491W        W45625  11.166   8.499  16.473 -0.0510 -0.0180 -0.1913
29492W        W45626  14.606   5.776  15.682  0.0670  0.0109 -0.0399
29493W        W45627   0.819  13.179   3.239 -0.1347 -0.0667  0.1252
29494W        W45628   4.214  10.082   0.249  0.1455 -0.2044 -0.0076
29495W        W45629  14.285   2.442   2.147  0.3566 -0.1088  0.0393
29496W        W45630   1.172  15.638   5.687 -0.0221 -0.2820 -0.2478
29497W        W45631   2.624  12.827   3.523  0.0356  0.1680  0.2615
29498W        W45632  17.018  11.526   0.852  0.0139 -0.5470 -0.1152
29499W        W45633  15.850  10.341   1.817 -0.4850  0.0059 -0.3569
29500W        W45634   0.415   2.786   5.393 -0.0619 -0.2788  0.1699
29501W        W45635   5.064  14.701   4.838 -0.0406 -0.1219 -0.0544
29502W        W45636   8.426   4.203  16.193 -0.1216 -0.0133 -0.0993
29503W        W45637   0.880  14.715   2.042  0.1608  0.1014  0.2649
29504W        W45638   5.562   7.059   0.264 -0.0985 -0.0540  0.1133
29505W        W45639   1.191   0.342   4.310 -0.0824 -0.0491 -0.0498
29506W        W45640   7.615  14.805  14.844  0.1630 -0.0730  0.0301
29507W        W45641  12.524  17.583   3.554  0.2327  0.1563  0.2325
29508W        W45642   7.524   0.193  12.289  0.0438  0.1158 -0.1143
29509W        W45643  17.611   6.032   1.716  0.4183 -0.0293 -0.1760
29510W        W45644  13.910   5.701  11.422 -0.3525 -0.2097 -0.0505
29511W        W45645   2.088  14.577  12.872 -0.1638 -0.2110  0.0355
29512W        W45646  13.408  11.787  13.293  0.1309  0.1791  0.0383
29513W        W45647   4.484  12.612   2.209  0.3246  0.1086 -0.0114
29514W        W45648  15.109  13.065  12.130  0.1082 -0.2208 -0.2770
29515W        W45649   6.768  13.640   4.108 -0.1557  0.1631 -0.1098
29516W        W45650   4.485  14.936   2.126  0.0583 -0.0817 -0.2280
29517W        W45651   1.196   6.116  15.637 -0.2770 -0.0083  0.0326
29518W        W45652   8.152  15.964   5.757  0.0169 -0.0750 -0.1272
29519W        W45653   6.556   4.179  12.702 -0.0793 -0.0689 -0.1834
29520W        W45654  13.361   2.502  13.250 -0.3289 -0.1101  0.0862
29521W        W45655  10.215   1.842   3.138 -0.1115 -0.0740  0.3094
29522W        W45656   4.698   3.388  16.263  0.1779  0.0651  0.1497
29523W        W45657  13.339  11.164   4.610 -0.1361 -0.1371  0.1522
29524W        W45658  10.673   0.060   3.181 -0.1749 -0.1377 -0.1878
29525W        W45659  10.616   6.902  12.033  0.1316 -0.1710 -0.0108
29526W        W45660   5.971   6.398   2.510 -0.1240  0.1555  0.1062
29527W        W45661  16.783   2.182  15.759 -0.1450 -0.1236  0.0108
29528W        W45662  16.737  10.814   2.158  0.0884 -0.0658 -0.0858
29529W        W45663  14.923  11.899  16.257  0.2976 -0.2218 -0.0528
29530W        W45664   9.918  14.715  11.731 -0.0045 -0.0320 -0.0759
29531W        W45665  12.408   5.940   0.083  0.1402 -0.0368 -0.0738
29532W        W45666  13.628  16.281  12.116  0.0690 -0.0906 -0.0319
29533W        W45667  14.957   4.438   3.196  0.0860  0.2308 -0.4112
29534W        W45668  11.646  15.276   0.105 -0.0343  0.1026  0.0095
29535W        W45669   3.193   4.103   1.538  0.1421  0.2256 -0.2065
29536W        W45670  12.066  16.229   3.579 -0.2825 -0.1428  0.2298
29537W        W45671  13.939   8.940  12.726  0.1515  0.0845  0.1221
29538W        W45672   6.660   3.161  12.213 -0.1007  0.0695  0.2966
29539W        W45673   1.370  17.266  16.519  0.3457  0.0482  0.1437
29540W        W45674   5.321  17.611   1.078  0.2711 -0.3729  0.0031
29541W        W45675  11.970   0.958  15.611  0.3211  0.1442  0.4767
29542W        W45676  13.608   0.042  12.736  0.1862 -0.0513 -0.3821
29543W        W45677  12.063  17.150   4.346  0.1865  0.1993 -0.0504
29544W        W45678  13.911   4.454   2.344 -0.1178  0.0644  0.1311
29545W        W45679  16.010   6.320  17.019 -0.1168  0.0536 -0.2186
29546W        W45680  11.219   3.157   0.825  0.2403  0.1031 -0.1702
29547W        W45681   5.047  16.045   1.591 -0.0134 -0.2080  0.1109
29548W        W45682   4.847  16.446  14.057 -0.1967  0.1049 -0.0788
29549W        W45683  11.993  13.532  12.842  0.1202  0.0055 -0.0212
29550W        W45684  16.698   8.478   6.077  0.1704  0.1428  0.2682
29551W        W45685  13.972   2.053  14.898 -0.0408  0.2533 -0.2114
29552W        W45686   0.477  16.575  16.756 -0.1185 -0.1377 -0.0083
29553W        W45687   2.286   0.280   0.397  0.0887 -0.1502 -0.0370
29554W        W45688   7.115  10.917  14.285 -0.4281 -0.0688  0.0657
29555W        W45689   0.004  13.198   1.349  0.1167 -0.2175 -0.1006
29556W        W45690   8.524  11.012  12.079  0.3581 -0.1514  0.0437
29557W        W45691   2.054   5.477  12.172  0.0597  0.3175 -0.1766
29558W        W45692   0.539   6.929   4.394 -0.2410 -0.1211 -0.3144
29559W        W45693   5.557   4.070  13.576 -0.0616 -0.0617  0.1479
29560W        W45694  15.969   5.014   5.603  0.0597  0.0700  0.2052
29561W        W45695  15.731  15.075   2.501 -0.3058 -0.0179  0.2368
29562W        W45696  14.232   3.534   2.356  0.0825  0.1004  0.0070
29563W        W45697  13.541   1.251  14.572  0.1539 -0.2628 -0.2266
29564W        W45698  12.483   8.532  12.936  0.0419  0.0955  0.1298
29565W        W45699   9.580   6.365   2.540 -0.1821  0.1177 -0.0498
29566W        W45700   7.525  13.523   3.412  0.2857  0.1065 -0.0536
29567W        W45701   3.984   0.598   1.733  0.1768  0.1056  0.0468
29568W        W45702   6.352  11.003  16.497 -0.0394 -0.0002  0.0583
29569W        W45703  15.885   9.656  12.482  0.2579  0.2749 -0.0339
29570W        W45704  12.881  16.785  16.494  0.1422 -0.1081  0.3046
29571W        W45705   8.267  10.495   0.884 -0.3587 -0.0990 -0.1898
29572W        W45706   1.870  13.716   4.960  0.0559  0.1102 -0.1513
29573W        W45707   2.539   6.764  15.930 -0.0044  0.0152  0.1246
29574W        W45708  11.939  13.138  12.509 -0.1255 -0.0594 -0.2184
29575W        W45709  12.099  11.832   5.306  0.2545  0.1579 -0.0818
29576W        W45710  12.179   0.112  13.293  0.0059  0.0507  0.0746
29577W        W45711   1.045  17.216   2.354 -0.1702  0.2220 -0.0636
29578W        W45712   7.849   7.545   2.068 -0.1109  0.3699  0.0743
29579W        W45713  11.547  11.421   6.243 -0.1660  0.1416  0.1017
29580W        W45714   8.494  16.799  13.269  0.2124  0.0535  0.3929
29581W        W45715  10.030  15.649   6.078 -0.1857 -0.0800 -0.1016
29582W        W45716   0.425   5.162   4.768  0.2056  0.0539 -0.2051
29583W        W45717   7.532   0.607   2.035  0.0852 -0.0353  0.0695
29584W        W45718  16.419  10.416   5.816  0.0197 -0.0590 -0.1567
29585W        W45719  13.603   0.242   1.757  0.2472  0.2079 -0.1077
29586W        W45720   0.528  17.133   0.959  0.0822  0.2233  0.0127
29587W        W45721   4.099  14.356   3.275  0.1453 -0.0976  0.0999
29588W        W45722   6.585   0.542   5.827  0.2334  0.0042 -0.5254
29589W        W45723   4.312   2.488   5.769 -0.1136 -0.1371 -0.0737
29590W        W45724   9.524  12.551  13.909 -0.2090  0.0796  0.3127
29591W        W45725   9.898  11.809  16.278  0.0267 -0.0777  0.1360
29592W        W45726   9.722  15.174  14.879  0.0534 -0.0073 -0.3605
29593W        W45727   1.261  15.533  12.833 -0.1319  0.0283  0.2326
29594W        W45728  16.021   6.700  14.742  0.0128 -0.1383  0.1381
29595W        W45729  17.652   5.220  13.246  0.0455 -0.2454  0.3276
29596W        W45730   0.610   9.665   4.737 -0.1184  0.1972  0.1447
29597W        W45731  16.282  10.876   3.418 -0.1003  0.0719  0.0727
29598W        W45732   6.459  12.473  16.256 -0.1106 -0.2461  0.0833
29599W        W45733   1.567  17.642  13.008  0.2828 -0.4064  0.1321
29600W        W45734   3.278   0.018   5.600 -0.2978  0.3996 -0.2100
29601W        W45735   0.649  14.159   2.491  0.0584  0.0810 -0.0013
29602W        W45736   7.707   2.994   2.395  0.1573  0.0264 -0.2339
29603W        W45737   6.882   6.247  16.594  0.0364  0.3614 -0.0739
29604W        W45738   6.020  10.644  16.673 -0.1569 -0.0624 -0.1132
29605W        W45739   8.757   7.108   5.011 -0.1844  0.4817 -0.2362
29606W        W45740  12.388  11.938   5.778 -0.3627  0.0143  0.0180
29607W        W45741   5.239   7.844   4.535  0.1781  0.2276 -0.1758
29608W        W45742  16.388   3.691   4.955  0.0026 -0.1659 -0.0785
29609W        W45743  14.957  15.409   1.305  0.0677  0.1176  0.1999
29610W        W45744  11.147   5.080   4.938  0.1738  0.3261  0.0044
29611W        W45745  15.408   0.982   5.577 -0.1014 -0.0905 -0.0604
29612W        W45746   7.247  15.758   5.954 -0.1371 -0.0719 -0.0989
29613W        W45747   6.670   3.892  16.285 -0.0827  0.1538  0.0059
29614W        W45748  15.607   6.148   4.506 -0.0666  0.0108  0.1617
29615W        W45749  11.146   4.154  10.192  0.0084  0.0293 -0.2005
29616W        W45750  17.633   6.864   0.617  0.0678  0.0936  0.0047
29617W        W45751  17.484   2.223  15.147  0.0038  0.1566 -0.2331
29618W        W45752  15.533   0.148   5.332  0.0496  0.0358  0.0989
29619W        W45753  16.246   1.303   5.623  0.0790  0.4442  0.0383
29620W        W45754  13.485   9.462   5.105 -0.1789 -0.2073  0.0941
29621W        W45755   2.132  12.871  12.030 -0.1812 -0.2375 -0.1135
29622W        W45756  14.160  16.130   1.081 -0.1485  0.4078  0.0203
29623W        W45757  10.905   2.794  13.728 -0.0023 -0.0247  0.4338
29624W        W45758  15.673  10.390  16.484  0.0190 -0.1889 -0.0403
29625W        W45759  14.946  16.092   3.823  0.0866  0.0791  0.0159
29626W        W45760  10.289  15.009  14.605 -0.0877  0.3856  0.1532
29627W        W45761   9.790  11.640  13.296  0.1166 -0.2001  0.0267
29628W        W45762  15.840  17.550  15.955 -0.1616 -0.2239  0.2343
29629W        W45763  13.607   6.567   3.739 -0.0676 -0.2370  0.0077
29630W        W45764  17.281   0.469   2.473 -0.1531 -0.4718 -0.0105
29631W        W45765   9.245   0.612   1.693  0.1523 -0.2347 -0.0447
29632W        W45766   6.444  10.458  16.711 -0.0603 -0.0484 -0.1846
29633W        W45767   3.087  16.797  16.405 -0.0466  0.0455 -0.1092
29634W        W45768   2.106  10.862   5.879 -0.1234 -0.1715 -0.1890
29635W        W45769   0.385   8.241   2.009  0.1178  0.1003  0.0627
29636W        W45770  12.092  14.047  16.902  0.0078  0.1504  0.1819
29637W        W45771   7.090   0.366   6.600 -0.2351  0.0208 -0.1030
29638W        W45772   2.221   0.014   5.040 -0.0835  0.0537  0.0082
29639W        W45773   4.887   7.839   3.089 -0.0111 -0.2692  0.0840
29640W        W45774  14.974   4.886   2.981 -0.0916  0.2060 -0.1270
29641W        W45775  13.806  14.964  15.282  0.0849 -0.1261 -0.3770
29642W        W45776  13.733  14.276   1.309  0.0485  0.5741  0.1994
29643W        W45777  16.729  14.658  12.041 -0.1881 -0.2097 -0.4826
29644W        W45778   8.822   7.153   1.585 -0.0766  0.2056  0.1244
29645W        W45779  11.820   5.212   0.977  0.1136  0.0110  0.3003
29646W        W45780  13.458  17.006  13.964 -0.0644  0.1833  0.0908
29647W        W45781   9.270  16.155   2.979  0.1061 -0.3300  0.0495
29648W        W45782  16.866  11.672   0.195  0.0826  0.1066  0.2469
29649W        W45783   8.354  13.457  15.376  0.0110 -0.1047 -0.2497
29650W        W45784   4.500   4.227   3.216 -0.0133 -0.2060  0.3550
29651W        W45785   9.803  17.417  13.119  0.2152  0.0570 -0.0667
29652W        W45786  14.384  11.323  12.035  0.0577 -0.3718 -0.0501
29653W        W45787  14.175  13.506  17.101  0.4304  0.0575 -0.0901
29654W        W45788   7.982  13.421   3.032  0.0095  0.0385 -0.0938
29655W        W45789  17.300   0.447  12.324 -0.0875 -0.4566  0.0693
29656W        W45790  16.225   4.507   4.370  0.1753  0.4148 -0.1712
29657W        W45791   2.016   7.171   5.407  0.2410 -0.1644 -0.0935
29658W        W45792   3.501   5.547  11.321  0.0329  0.0510 -0.1229
29659W        W45793   8.617   1.780   5.467 -0.2728  0.1976  0.0817
29660W        W45794   3.318  16.840   1.657 -0.0369  0.0141 -0.2798
29661W        W45795   1.511   2.330  17.001  0.2418 -0.1075 -0.2479
29662W        W45796   9.142   3.149   5.067 -0.1651  0.2022  0.0374
29663W        W45797  11.472   7.141   5.264 -0.0104 -0.0386  0.2505
29664W        W45798   4.127  14.903   5.201  0.1075  0.3039  0.2492
29665W        W45799  10.370  12.362   3.745  0.1269  0.2135 -0.0144
29666W        W45800   0.206  10.678   4.820 -0.2474 -0.0502  0.0336
29667W        W45801   1.195   2.170   5.686  0.1313  0.2406 -0.1330
29668W        W45802   0.148  11.655   1.911  0.0476 -0.1151  0.2227
29669W        W45803   1.096  16.500  14.825 -0.1066  0.0146  0.0349
29670W        W45804  14.622  12.255  14.846  0.3389 -0.4819  0.2549
29671W        W45805  13.560   7.402   4.521 -0.3469  0.0283 -0.2085
29672W        W45806  13.871  17.296   3.809  0.1817  0.0240  0.1018
29673W        W45807   5.263  12.234   6.274 -0.1315  0.0395  0.0087
29674W        W45808  13.008   7.091   3.809 -0.2546 -0.0677  0.2055
29675W        W45809  14.814   8.218  13.002 -0.0421 -0.0527  0.0089
29676W        W45810   9.081   9.100  12.686 -0.0422  0.3395  0.0561
29677W        W45811  16.274   5.045  16.840  0.2021  0.0315  0.2228
29678W        W45812  12.266   7.141  16.173 -0.1991  0.3406  0.0330
29679W        W45813   2.066   7.202   4.898  0.0271  0.2095  0.0381
29680W        W45814  11.709   2.717   1.456  0.3822 -0.1942 -0.0367
29681W        W45815  17.410   9.007   5.413 -0.1673  0.1610 -0.1698
29682W        W45816  16.992  14.808   0.056  0.1520 -0.2567 -0.0606
29683W        W45817  11.754   2.890  15.960  0.2707 -0.0649  0.0630
29684W        W45818   1.345   1.862  15.986 -0.2468  0.1459 -0.2890
29685W        W45819   5.979   9.914   0.198  0.1118 -0.0536  0.0173
29686W        W45820   7.568  14.370   3.805 -0.0013 -0.1402 -0.0912
29687W        W45821   0.591  16.582  14.900 -0.1312 -0.3018  0.0616
29688W        W45822  15.657  10.216   3.134  0.0689 -0.3374 -0.0448
29689W        W45823   9.126  16.607   2.622 -0.1045 -0.0980 -0.3419
29690W        W45824   4.988   7.658  16.907 -0.0465  0.0644  0.0481
29691W        W45825   0.929   2.157  16.060 -0.1458  0.0040 -0.3728
29692W        W45826  11.683   6.483  15.690 -0.2733 -0.1074 -0.1497
29693W        W45827   5.902   4.523  15.638 -0.2887  0.0971 -0.3161
29694W        W45828  13.897   5.965  13.924  0.0611  0.0589  0.1028
29695W        W45829   8.404   1.102  14.349 -0.1108  0.1416 -0.0879
29696W        W45830   1.605  11.655   1.746  0.2289  0.0190 -0.2471
29697W        W45831   4.529   6.824  16.722 -0.2769  0.0567 -0.0664
29698W        W45832  10.217   2.883  16.041 -0.1922  0.1100  0.1052
29699W        W45833   2.921   8.295   4.387 -0.1229 -0.1663  0.0975
29700W        W45834   2.273   0.927  14.245 -0.0516  0.0576  0.0871
29701W        W45835   8.091   3.004   6.128  0.0405  0.3000  0.0131
29702W        W45836   8.012  13.526   4.498 -0.1314 -0.0885 -0.0631
29703W        W45837   4.008  12.510  14.335 -0.1878  0.1010 -0.2467
29704W        W45838  17.043   0.691   4.892 -0.1237  0.1057  0.0179
29705W        W45839   0.865  16.850   4.009  0.1275 -0.2258 -0.0299
29706W        W45840  17.482  10.249  12.025  0.2662 -0.1527  0.3356
29707W        W45841  16.885  12.995  14.783 -0.0896  0.1793 -0.1927
29708W        W45842   8.096  12.084  13.426  0.1336 -0.4761 -0.0297
29709W        W45843   7.465  10.933   5.540  0.0675 -0.0342 -0.1354
29710W        W45844   0.705   2.579   0.981 -0.1593 -0.1030  0.1239
29711W        W45845  17.126  15.732   3.741  0.4389  0.1350 -0.1474
29712W        W45846  10.184   9.291  16.248  0.1916  0.2773  0.2715
29713W        W45847   0.899   3.678  14.594  0.0589  0.1943 -0.2337
29714W        W45848   4.328   1.022   5.544  0.0370  0.2076  0.1087
29715W        W45849  11.006   5.110  11.956  0.3258  0.0581  0.0334
29716W        W45850  15.408   4.532  12.069  0.2301  0.0375  0.0204
29717W        W45851   4.151   1.568  13.461 -0.1181  0.1061 -0.2754
29718W        W45852   0.352  10.486   5.343 -0.0258  0.1123  0.1736
29719W        W45853   7.900   7.071   0.834 -0.0057  0.1665 -0.1456
29720W        W45854  17.666   3.935   4.762 -0.0561  0.4101 -0.1707
29721W        W45855  10.027   2.843   4.056  0.1671  0.1661  0.0229
29722W        W45856   3.555   0.957   5.071  0.0667  0.0874  0.1564
29723W        W45857  10.739   4.141   2.994 -0.1297  0.0421 -0.1382
29724W        W45858   7.332  16.945   2.161  0.4830 -0.0884  0.0395
29725W        W45859   9.295   6.059   4.170 -0.1780  0.1145 -0.1786
29726W        W45860   6.807   2.219   3.294 -0.0623  0.1116  0.0108
29727W        W45861   1.724  12.536   2.557  0.0507  0.0415 -0.1615
29728W        W45862   2.768  13.624   3.174 -0.0314 -0.0428 -0.2406
29729W        W45863  10.727   4.695  12.104 -0.1440 -0.1021 -0.0278
29730W        W45864   0.356   0.912   4.350 -0.1120 -0.3257  0.0991
29731W        W45865  11.669   2.891   1.909  0.0190  0.0109  0.1894
29732W        W45866   9.382  16.849   5.649  0.0907  0.0302 -0.3506
29733W        W45867  11.180   5.938  16.699 -0.1515 -0.1037  0.1489
29734W        W45868   1.130   4.225  12.028 -0.2295 -0.0777 -0.1093
29735W        W45869  14.932   4.920  14.887 -0.1037  0.1950  0.1576
29736W        W45870   6.173   3.781   1.902  0.1265 -0.2036 -0.2448
29737W        W45871  12.571  11.847   3.180  0.2919 -0.1718  0.1843
29738W        W45872   9.089  15.445  16.349  0.0751 -0.1221  0.0981
29739W        W45873  12.853  16.633  16.985  0.0132 -0.1622 -0.0349
29740W        W45874   8.079  16.195  11.474 -0.0689 -0.1122 -0.2735
29741W        W45875  10.715  16.474   5.456  0.1917  0.0660 -0.2762
29742W        W45876  14.028  17.053   2.766  0.0969 -0.0384  0.0016
29743W        W45877  14.639   2.714   1.471  0.0205 -0.1416  0.1735
29744W        W45878   0.638   5.583  16.050  0.0746  0.0616  0.1072
29745W        W45879  13.908   9.071  14.452 -0.0005 -0.0725  0.1684
29746W        W45880   3.942   4.343  12.192  0.5785 -0.0454  0.1356
29747W        W45881   8.735  14.851   5.214  0.1163 -0.0616  0.0280
29748W        W45882  11.429   4.512  15.153  0.0211 -0.2721  0.1781
29749W        W45883  13.806  12.571   5.488  0.3668  0.0611 -0.0965
29750W        W45884   5.663   4.806  16.248  0.0462 -0.0637 -0.0461
29751W        W45885   9.689   3.212  14.744 -0.2586 -0.0106  0.3439
29752W        W45886   7.978  10.832  16.438 -0.0660  0.2343 -0.2233
29753W        W45887   8.565   1.018   4.682  0.1291 -0.0326  0.0315
29754W        W45888   0.566  10.972   4.617  0.0333  0.0238  0.0190
29755W        W45889  15.611  14.187  15.135 -0.0670  0.0420  0.2327
29756W        W45890   2.283   1.698   4.591 -0.1202  0.0258  0.0231
29757W        W45891   3.679   3.877   1.770 -0.2919 -0.2253 -0.0901
29758W        W45892   0.409   1.147   5.876  0.1332 -0.1209 -0.0236
29759W        W45893   4.040  14.555   4.848  0.0492  0.1212 -0.2280
29760W        W45894   1.232   2.854  12.012 -0.0388  0.1651  0.0448
29761W        W45895  10.671   7.527   3.442  0.2811  0.1430  0.1518
29762W        W45896   3.571   5.445   0.362 -0.1534 -0.0266 -0.4105
29763W        W45897   9.059   3.531   2.022 -0.2533  0.1610 -0.2327
29764W        W45898  13.352   0.131  12.229 -0.1741 -0.4592  0.1539
29765W        W45899   3.256   2.283   3.497 -0.0207 -0.1592 -0.0718
29766W        W45900  13.092   0.371  14.065  0.2063 -0.1512 -0.2455
29767W        W45901   7.425  10.082  14.607  0.0189 -0.0983  0.0061
29768W        W45902   0.471  15.502  14.079  0.0144 -0.0204  0.0268
29769W        W45903   4.981  12.293  16.311 -0.0449  0.1867  0.0047
29770W        W45904   0.775   5.709  14.436 -0.1115 -0.2001 -0.0237
29771W        W45905   5.370   9.953   4.002  0.0133  0.0086  0.0373
29772W        W45906   4.463  10.772  13.400 -0.0216  0.3725  0.1933
29773W        W45907  14.205   2.422  16.349 -0.3629  0.0413 -0.0780
29774W        W45908   2.611   3.791  14.623 -0.1125  0.1164 -0.3510
29775W        W45909  10.601  16.247   6.482  0.0994  0.0883  0.0530
29776W        W45910   3.635   4.308  14.726  0.3010 -0.0668 -0.1539
29777W        W45911  16.354  13.618  13.412  0.0047  0.0301 -0.1035
29778W        W45912   2.532   2.990  13.377  0.1201 -0.0013  0.2407
29779W        W45913  13.927  11.897  15.753 -0.2308  0.3329  0.1360
29780W        W45914   4.028   9.610  12.698  0.1503 -0.2099 -0.0756
29781W        W45915   7.681   2.266  14.685 -0.1525  0.0137  0.0219
29782W        W45916   1.827  17.461   2.681  0.1151 -0.0838  0.1687
29783W        W45917   0.500  11.300  11.289 -0.0420 -0.1589  0.0359
29784W        W45918   3.177   4.943   3.728  0.0950 -0.2168  0.1654
29785W        W45919  17.445   3.586   4.082  0.1666 -0.0151  0.0096
29786W        W45920  15.360  14.920   0.954  0.0303  0.0382  0.2059
29787W        W45921  11.795  12.883   0.942  0.1153 -0.2666 -0.1059
29788W        W45922   9.777   8.351   1.815  0.1307 -0.1297 -0.1538
29789W        W45923   3.301  17.504  13.211  0.0432  0.0324 -0.0994
29790W        W45924   0.368   5.899  16.304 -0.0935 -0.1361  0.0393
29791W        W45925   1.408   8.706   1.523 -0.1211 -0.2241  0.1464
29792W        W45926   5.697  16.812   5.416  0.1204  0.1497  0.1297
29793W        W45927   2.072   9.803   4.062  0.0009 -0.2608 -0.0110
29794W        W45928  14.484  11.762   5.797  0.0077  0.1170 -0.1225
29795W        W45929   7.965  12.088  12.139  0.0083 -0.1351 -0.1656
29796W        W45930   7.090   1.289   5.262  0.0676 -0.2434 -0.0573
29797W        W45931  12.503  10.497   5.460 -0.1411  0.1098  0.3255
29798W        W45932   4.985  10.372   2.302  0.2405 -0.1176  0.1198
29799W        W45933   1.313  14.013   4.113  0.0124  0.3042 -0.1782
29800W        W45934  13.350  15.058  16.627  0.0861  0.0112 -0.2048
29801W        W45935  15.118   4.934  16.575  0.1622  0.0884  0.0085
29802W        W45936  10.550   3.090  13.969 -0.0391 -0.0949 -0.1937
29803W        W45937   0.110   8.197  11.277  0.0579 -0.5902 -0.0273
29804W        W45938  14.210  13.729   6.063  0.0919  0.2679  0.1998
29805W        W45939   4.247   6.251   2.624 -0.0592 -0.0337  0.0960
29806W        W45940   2.319   8.725  11.763 -0.0703 -0.2777  0.3124
29807W        W45941  10.615  11.004   0.721 -0.1856 -0.0669 -0.2601
29808W        W45942  11.179  16.180  16.647  0.0374  0.0406  0.0636
29809W        W45943   3.369   2.671  15.784 -0.1235 -0.0703 -0.1911
29810W        W45944  17.331   8.989   0.760 -0.3968 -0.2429  0.4110
29811W        W45945   9.460   0.264   2.615  0.0748 -0.0617 -0.2172
29812W        W45946   9.965   6.107   5.089 -0.1381 -0.0842 -0.3947
29813W        W45947  12.659   8.813  13.838  0.1024  0.2628 -0.2174
29814W        W45948  16.306   3.952  16.131  0.1404  0.1923 -0.3060
29815W        W45949   5.794   2.168   0.103  0.0273 -0.0340 -0.0001
29816W        W45950   5.201  17.389   3.613  0.0342 -0.3042  0.0044
29817W        W45951  15.294  16.369   4.102 -0.2588 -0.0645 -0.1881
29818W        W45952  11.678   6.961   1.258 -0.1359  0.0150  0.1836
29819W        W45953   2.023   8.189  12.682 -0.2140 -0.2718 -0.0738
29820W        W45954   2.598  14.293   0.571  0.1426 -0.3550 -0.2646
29821W        W45955  11.025   1.454  16.171 -0.1687 -0.0497  0.3261
29822W        W45956  10.251   8.358  16.227  0.0535  0.0787 -0.1340
29823W        W45957   8.096   5.283  15.654 -0.1145 -0.0537  0.1293
29824W        W45958   9.793   9.608  12.190  0.2409  0.0489  0.2886
29825W        W45959  14.685   1.370  12.821 -0.2066  0.1172  0.2064
29826W        W45960  14.085   3.163  15.657 -0.1540 -0.1356  0.2855
29827W        W45961   1.546  13.478  13.665 -0.0123 -0.1903  0.0973
29828W        W45962  12.445   3.533  12.358 -0.1476 -0.3083  0.3168
29829W        W45963   7.240  14.621  13.273 -0.1409  0.2007  0.5547
29830W        W45964   8.383   2.487  15.420  0.1088 -0.1850  0.0076
29831W        W45965   1.555  12.635  15.864 -0.0813 -0.3671 -0.2417
29832W        W45966   8.540  16.280  15.877  0.1013  0.1003 -0.0093
29833W        W45967   3.986   3.150   2.409 -0.1056  0.1452  0.0863
29834W        W45968   1.309  14.599   0.409  0.0569  0.1968 -0.1599
29835W        W45969  10.351  15.853   2.453 -0.1471 -0.0978 -0.0358
29836W        W45970   0.795   3.240  13.546  0.0253 -0.0655  0.1006
29837W        W45971   9.850  15.490   3.743  0.0461 -0.1578  0.1207
29838W        W45972  15.015  16.924  14.931  0.1465 -0.0281  0.0614
29839W        W45973  16.803  17.003   4.464 -0.2329  0.4170  0.4422
29840W        W45974   8.289   4.858  15.451  0.0271 -0.0468 -0.1926
29841W        W45975  16.690   3.705   3.957 -0.1412  0.2494  0.0471
29842W        W45976   7.260  12.645  16.584 -0.1253 -0.2261  0.2646
29843W        W45977   6.720   7.919   0.147  0.1607  0.3703 -0.4135
29844W        W45978  11.709   6.048   3.643 -0.1835 -0.1099  0.2435
29845W        W45979  10.357  16.229   4.513  0.0206 -0.1465  0.0189
29846W        W45980  10.831   4.560   3.396  0.0264  0.0987 -0.1806
29847W        W45981  14.042  16.921  15.314  0.1179 -0.1480 -0.2924
29848W        W45982   5.452   6.957  12.885  0.1685 -0.1560 -0.5462
29849W        W45983   6.011  12.093  17.089  0.0458 -0.0790  0.1800
29850W        W45984  15.472   7.228  14.732  0.1140 -0.1901 -0.0898
29851W        W45985   1.491  16.563   3.458 -0.0965  0.1057 -0.0964
29852W        W45986   8.465   9.133  15.031  0.1705  0.3214 -0.4990
29853W        W45987  16.002   6.749  13.790  0.0379  0.2573  0.1304
29854W        W45988   4.668  13.875   3.461 -0.1116 -0.0093  0.1934
29855W        W45989   2.962  14.462   1.793 -0.3056 -0.0045  0.3189
29856W        W45990   8.662  14.181   5.617  0.2568 -0.1506 -0.0322
29857W        W45991   8.772  13.615  13.280  0.0908  0.1189 -0.2021
29858W        W45992   0.376   3.408  16.177  0.1181  0.2288  0.1218
29859W        W45993   9.851  17.014   1.060 -0.2050 -0.1787  0.0763
29860W        W45994   9.728  14.704   0.179 -0.0887 -0.2546  0.2033
29861W        W45995   9.774   2.713   4.606  0.0657 -0.1834 -0.0492
29862W        W45996   9.787  10.785  14.582  0.2458 -0.1324 -0.0278
29863W        W45997   3.959   7.335   2.212 -0.1240  0.1443 -0.0367
29864W        W45998   8.379   7.265   3.327 -0.1029 -0.0047 -0.0419
29865W        W45999  15.316   1.649   1.671  0.2617  0.0794 -0.0016
29866W        W46000   4.299   4.709   3.216 -0.3198  0.1973 -0.1449
29867W        W46001   3.950   1.742   1.057 -0.2362 -0.1083 -0.1230
29868W        W46002  16.203  14.257  15.733 -0.0436 -0.0118  0.2809
29869W        W46003  11.856   3.877  16.850 -0.2276  0.0892  0.1361
29870W        W46004   0.836  10.606  12.619  0.1536  0.0163  0.2827
29871W        W46005   1.455  13.925  13.775  0.0061 -0.0835  0.0770
29872W        W46006   4.489  14.141  16.323 -0.2253  0.0595  0.0206
29873W        W46007   8.310   5.559   5.926 -0.2394 -0.0511 -0.1445
29874W        W46008   0.222   6.571   0.954 -0.1087  0.2729 -0.1659
29875W        W46009  10.620  16.838  12.003 -0.1390  0.0239  0.0182
29876W        W46010  11.130  10.792  12.166  0.0946  0.1043  0.1227
29877W        W46011  10.274  17.269   1.179 -0.1117  0.1794 -0.0138
29878W        W46012   0.698  15.283  17.020 -0.0545 -0.1455  0.0724
29879W        W46013   1.372   0.100  16.489 -0.1490 -0.0358 -0.0071
29880W        W46014   4.536   7.325  12.911  0.1013  0.0913  0.1223
29881W        W46015   8.968   3.942   1.518  0.1661  0.0985  0.0943
29882W        W46016  17.425   2.286  13.276  0.0666  0.2136  0.0432
29883W        W46017  10.274  13.014  13.495 -0.1273  0.0049 -0.0477
29884W        W46018   4.861  10.165  14.451  0.1614 -0.0599 -0.3011
29885W        W46019  12.682   4.108   2.971 -0.4718 -0.2260  0.0081
29886W        W46020   2.514  17.273   5.621  0.0505 -0.2445 -0.1246
29887W        W46021   1.364  17.657   3.988 -0.6099 -0.1799 -0.0709
29888W        W46022   1.422   2.405  14.535  0.0254 -0.0691  0.1191
29889W        W46023  14.514  13.169   4.503  0.3530  0.0741  0.0783
29890W        W46024   5.585  14.275   1.624  0.1083  0.0113  0.2358
29891W        W46025  11.630   6.035  16.372  0.2945 -0.1391  0.0636
29892W        W46026   5.342   5.069   5.325  0.2391  0.1004 -0.1729
29893W        W46027  16.205   7.005  13.337  0.2864  0.2280  0.0379
29894W        W46028  13.940  11.456  12.404 -0.1203 -0.2882 -0.1647
29895W        W46029   5.188   5.358   4.383 -0.0372 -0.0817  0.2016
29896W        W46030   0.605   0.886  15.526 -0.0556  0.3035 -0.1134
29897W        W46031   0.579  12.472  11.844  0.1057 -0.0001 -0.4440
29898W        W46032   0.867  15.003   2.956 -0.1715 -0.1048 -0.0340
29899W        W46033  12.171   1.763   4.598 -0.0031  0.0429 -0.0236
29900W        W46034   0.481  12.585   3.167 -0.1084  0.0309  0.0170
29901W        W46035  17.140   0.585  15.646  0.0705  0.1545 -0.2594
29902W        W46036  12.679   1.527   1.468  0.2467  0.0579  0.0650
29903W        W46037  11.406   6.325  14.389  0.3852 -0.0840 -0.0382
29904W        W46038   8.391   9.568  12.143  0.1295  0.1072  0.2196
29905W        W46039   2.733   5.171   4.068 -0.2336 -0.2386 -0.0305
29906W        W46040  11.787   3.871   5.075 -0.1621 -0.2475  0.3039
29907W        W46041   7.775   8.860   3.355  0.1520 -0.0430  0.2015
29908W        W46042   3.428  17.325   4.679  0.1981  0.1110  0.1240
29909W        W46043   7.059   1.574   5.670  0.0795 -0.0272 -0.2885
29910W        W46044  11.812   5.092  13.585 -0.0915 -0.1440  0.1203
29911W        W46045  14.907   4.513  15.243 -0.1461 -0.0779  0.0516
29912W        W46046   2.014  10.241   1.711 -0.0332  0.1738 -0.0036
29913W        W46047  14.002   7.652  14.716  0.1824 -0.0915  0.0525
29914W        W46048  17.399   8.399  14.100  0.1086 -0.0516 -0.0886
29915W        W46049   6.133  17.021  12.313 -0.2006  0.0454  0.0197
29916W        W46050  14.653  15.887   5.619 -0.0838 -0.1744 -0.0923
29917W        W46051   4.796  10.269  15.503 -0.1106 -0.0353  0.3239
29918W        W46052   5.361  12.813  13.890 -0.2170  0.0663 -0.0275
29919W        W46053  12.563   0.064  17.088 -0.0806 -0.0086  0.0201
29920W        W46054   3.100  14.734   2.246  0.0359  0.1200 -0.0705
29921W        W46055  13.896  10.519   3.707 -0.0893  0.1142  0.1943
29922W        W46056   1.069   8.222   3.831  0.0829  0.0565 -0.0482
29923W        W46057   9.200  17.490   5.162 -0.3240 -0.1514 -0.2064
29924W        W46058  15.334   8.641   3.954  0.1324 -0.2721 -0.0720
29925W        W46059   5.590   4.993  15.727  0.0420  0.0994 -0.1346
29926W        W46060   8.517   2.944   6.397  0.0423 -0.1512 -0.3015
29927W        W46061  15.680   3.287   4.606 -0.0904  0.1442 -0.0128
29928W        W46062   3.167   4.214   0.697 -0.2105  0.0974 -0.2809
29929W        W46063   8.200  10.647  16.056  0.2028 -0.3016  0.1386
29930W        W46064   1.117   1.994  16.841  0.0030  0.2001 -0.2971
29931W        W46065  13.854   0.524  14.670  0.2892  0.0099  0.1401
29932W        W46066  11.042   0.608  12.679  0.1084 -0.2992 -0.1309
29933W        W46067  17.156   9.915  16.144  0.2632  0.2682  0.0918
29934W        W46068   8.642   6.399  16.818  0.1053  0.1146 -0.3228
29935W        W46069  14.213  10.974   5.512 -0.3794 -0.0310 -0.0492
29936W        W46070  12.506  13.403  16.206 -0.0324 -0.1904 -0.0616
29937W        W46071   9.887   9.198   1.148  0.2151 -0.1195 -0.0699
29938W        W46072  15.085  10.334  16.328  0.0117 -0.1059 -0.0397
29939W        W46073   7.529   7.548  11.924  0.1893 -0.2234 -0.0510
29940W        W46074   0.108   1.000  14.753  0.0189  0.0388  0.1852
29941W        W46075  15.353  11.326   2.449 -0.0455 -0.0111 -0.1470
29942W        W46076  12.756  11.176   1.410 -0.2421 -0.0058  0.1532
29943W        W46077   7.072   1.278  13.404 -0.1391  0.2448 -0.1087
29944W        W46078   4.369  12.706   5.735 -0.1603 -0.0612 -0.0653
29945W        W46079   8.751  10.539   0.478 -0.4355 -0.2713 -0.2398
29946W        W46080  15.008   6.321  11.774  0.2860 -0.1926 -0.1880
29947W        W46081   6.720   7.849  14.507  0.2525 -0.0367 -0.2553
29948W        W46082   4.734   9.198  16.519  0.3346  0.0918 -0.1327
29949W        W46083  12.750  14.530   3.433 -0.0884 -0.0956  0.1196
29950W        W46084  12.598   5.088   3.028  0.1198  0.1315  0.1115
29951W        W46085  11.045  11.365   3.267 -0.1454 -0.1280 -0.0271
29952W        W46086   8.894   9.106   1.606 -0.0301  0.0566  0.1791
29953W        W46087   6.892   0.018   2.519  0.2545 -0.0094  0.1743
29954W        W46088   2.778   9.813  15.829  0.2746  0.0204  0.2905
29955W        W46089  15.990  16.097  15.706 -0.1452  0.0844  0.3125
29956W        W46090  16.278  11.591  13.324  0.4159  0.3154  0.1330
29957W        W46091   3.327   3.107   4.133  0.1665 -0.4239  0.0047
29958W        W46092   0.613  14.383  13.346  0.1143 -0.0473  0.0037
29959W        W46093   6.444   3.425   4.706  0.0376  0.0981  0.0735
29960W        W46094   8.918  15.451   0.148  0.0606 -0.2778 -0.1353
29961W        W46095  14.897   7.775   4.919 -0.5279  0.0941  0.0148
29962W        W46096   6.818  12.812  16.430  0.1730  0.0531  0.1885
29963W        W46097   9.270   9.135   2.978  0.0786 -0.0540  0.0593
29964W        W46098   1.725   9.138  16.281 -0.3977 -0.3121 -0.3863
29965W        W46099  13.807   0.717   5.106 -0.3397 -0.0948 -0.1874
29966W        W46100  12.371   9.918   0.111 -0.2821 -0.2156  0.4065
29967W        W46101   7.926  15.261   5.462 -0.0032  0.1439 -0.0290
29968W        W46102   0.909   4.138  13.908 -0.1953 -0.2211 -0.0148
29969W        W46103  14.779   3.217   4.154 -0.1281  0.3052  0.1053
29970W        W46104   0.424   7.858   5.483 -0.2028 -0.1841 -0.0217
29971W        W46105  10.249   3.568  11.483  0.1798 -0.1335  0.2240
29972W        W46106   6.087   6.935  16.395  0.1077 -0.2499 -0.0096
29973W        W46107   5.905   4.086   2.676  0.1228 -0.1933 -0.0368
29974W        W46108   5.355   4.823  17.135  0.2868  0.0475 -0.1840
29975W        W46109   4.607  15.850   1.897 -0.0370 -0.2347 -0.0991
29976W        W46110   1.922   3.335   4.398 -0.0439  0.1106 -0.1777
29977W        W46111  13.050   5.778  14.356 -0.1385  0.1148 -0.3420
29978W        W46112  10.861  11.390  15.000  0.0429  0.0825  0.0865
29979W        W46113   2.138  12.369   2.763  0.1028 -0.0226  0.2195
29980W        W46114   0.930   0.427  12.338  0.0229 -0.0637  0.2647
29981W        W46115   2.802  16.072   6.213  0.2603  0.0879  0.1483
29982W        W46116  14.858  11.026  14.164  0.1429 -0.2511 -0.0451
29983W        W46117   0.350  15.013   6.068 -0.1635  0.1486  0.0379
29984W        W46118  15.315   9.045   3.690 -0.2563  0.0993  0.2510
29985W        W46119  17.004  16.254   5.510 -0.1801  0.0714  0.0687
29986W        W46120   3.556   1.568   4.707 -0.1241 -0.1159  0.2530
29987W        W46121   9.546   4.355  16.927  0.1485  0.0501  0.0854
29988W        W46122   9.513   4.210  16.385  0.1503  0.0615 -0.1621
29989W        W46123  12.624   9.601   5.376  0.0550  0.0377 -0.1477
29990W        W46124   8.055   2.221  14.998  0.0022  0.0361 -0.2418
29991W        W46125  11.114   5.454   5.307  0.0630 -0.0797  0.0883
29992W        W46126   7.822   7.477   5.046  0.0168  0.1920  0.0247
29993W        W46127   9.087  15.644   4.831  0.0146 -0.0597 -0.0842
29994W        W46128   2.217  16.497  15.477  0.2527  0.1727 -0.0588
29995W        W46129   4.278   9.705   0.643  0.1842  0.1967  0.0387
29996W        W46130   1.854  10.557  11.511  0.3019  0.0400  0.2906
29997W        W46131   9.385   1.612   3.229 -0.0016  0.1935 -0.1448
29998W        W46132   3.671  10.420  13.931  0.1486 -0.4418 -0.3660
29999W        W46133   4.796   9.503   0.435  0.1592  0.0208  0.2341
30000W        W46134   1.160  10.589   1.917  0.0803  0.0132  0.0930
30001W        W46135  11.059  16.976   4.612 -0.2103  0.1946  0.4538
30002W        W46136  13.161  11.604   4.655 -0.3215 -0.0191  0.3215
30003W        W46137   5.942   1.161  14.794  0.0333 -0.0795  0.1223
30004W        W46138   4.606   9.952  12.197  0.1574 -0.2101 -0.3182
30005W        W46139  11.249  15.820  16.313 -0.1911 -0.0889  0.0411
30006W        W46140   2.892  12.884   1.023  0.0941  0.0331  0.1364
30007W        W46141  17.182   8.270  13.616  0.0736 -0.0903  0.1050
30008W        W46142  15.838   6.955  12.973 -0.2631 -0.0736  0.3006
30009W        W46143   9.337  13.665   3.768  0.2599  0.3555 -0.2616
30010W        W46144   1.541   8.148  13.641 -0.0905  0.2187  0.1606
30011W        W46145   7.701  15.515  11.561  0.1900 -0.1071  0.2263
30012W        W46146   4.190   8.691   4.510 -0.0313 -0.0913  0.2094
30013W        W46147  13.726   5.959   4.250  0.1432  0.1408 -0.1104
30014W        W46148   6.584  13.349   5.485  0.1928 -0.1400 -0.2743
30015W        W46149   7.466  15.272   2.768  0.4605 -0.0091  0.2063
30016W        W46150   2.113   8.449   0.937 -0.0351  0.1063  0.3250
30017W        W46151  14.323   0.182  16.221 -0.2114  0.1712  0.1653
30018W        W46152  14.253  12.625   4.023 -0.0254 -0.2489  0.0815
30019W        W46153   6.959   0.753  16.886  0.0862 -0.1757  0.0524
30020W        W46154  14.949  15.012   5.903  0.1552  0.0889 -0.0513
30021W        W46155   1.031  14.722   1.489 -0.0786  0.0815  0.0021
30022W        W46156  16.076  13.306   1.712 -0.1965 -0.0544 -0.0429
30023W        W46157  11.043   7.152  14.442 -0.2167 -0.5020 -0.0554
30024W        W46158  10.755   0.408  15.422  0.0158 -0.3676  0.2723
30025W        W46159   9.762  13.215  12.227 -0.1062  0.0551 -0.0581
30026W        W46160  17.604  15.685   5.409  0.0701 -0.1075 -0.0014
30027W        W46161   4.157   0.609  14.180  0.0820 -0.0665  0.1702
30028W        W46162  16.007  10.055   2.803 -0.1657 -0.2353 -0.2085
30029W        W46163  17.257   9.326  16.904  0.0419  0.2885 -0.1862
30030W        W46164   9.387   5.662  14.886  0.1555 -0.3356  0.1622
30031W        W46165   9.822   2.554   0.101  0.3012 -0.3601  0.1000
30032W        W46166   2.479   0.927  16.423  0.0077 -0.0435  0.0650
30033W        W46167  12.923   5.149  15.699  0.0891 -0.1123 -0.1566
30034W        W46168  14.124   4.560   1.915  0.1456  0.0421 -0.2350
30035W        W46169   4.505  14.887   6.215 -0.0328 -0.0078  0.0275
30036W        W46170  17.106  14.866  14.450 -0.2840 -0.1802 -0.2875
30037W        W46171   0.227  15.922   5.785  0.4852  0.0855  0.2013
30038W        W46172  12.956  14.579  13.786  0.2982  0.2600  0.0117
30039W        W46173  16.972   3.153  16.194 -0.2172 -0.0784  0.1147
30040W        W46174  10.786   5.003   0.506  0.4231 -0.2369 -0.0119
30041W        W46175   1.265   7.508   4.104 -0.2583  0.0032  0.3134
30042W        W46176   9.348   8.025  14.973  0.1004  0.3139 -0.1003
30043W        W46177   2.932  11.524   4.102  0.0200 -0.0210 -0.1287
30044W        W46178  14.809  17.597   3.397 -0.2222 -0.0496  0.0095
30045W        W46179   6.670  15.359  12.933 -0.1359 -0.2333 -0.0516
30046W        W46180   6.770  10.222   1.073  0.1229  0.0554 -0.0278
30047W        W46181   6.302   6.927  12.922 -0.1753  0.2177 -0.1370
30048W        W46182  12.253  16.291   5.410 -0.0438  0.1179 -0.4525
30049W        W46183   4.979   2.571  16.300 -0.1916 -0.0026  0.0343
30050W        W46184  10.058  13.418   3.078  0.0141 -0.1675 -0.0849
30051W        W46185   7.340   0.384   4.195 -0.2006  0.2867  0.0585
30052W        W46186   9.407  10.316  12.566  0.0096  0.0291  0.1714
30053W        W46187  12.122  12.514  16.726  0.0709 -0.0278 -0.0796
30054W        W46188  11.981   2.326  12.837 -0.0759  0.1448  0.2705
30055W        W46189   5.424   2.209  16.266  0.2226 -0.0698  0.0423
30056W        W46190  16.047  14.494  13.789 -0.1557 -0.1560  0.0195
30057W        W46191   0.326   1.996   5.455 -0.0602 -0.0952  0.0183
30058W        W46192  17.551  13.141  15.497 -0.1280 -0.1205  0.1782
30059W        W46193   2.952  10.221  14.617  0.1781 -0.1198  0.0613
30060W        W46194   3.345  14.393  13.237 -0.1923  0.0055  0.0191
30061W        W46195   6.743   3.063   3.364  0.3810  0.2354 -0.2024
30062W        W46196   2.653   0.030  14.954  0.1514 -0.3194 -0.0282
30063W        W46197  12.546   5.764   0.934  0.1838 -0.2218  0.0983
30064W        W46198   3.819  11.179  14.906 -0.1029 -0.1560  0.2826
30065W        W46199   5.179   3.523   0.530  0.1081  0.3123  0.1085
30066W        W46200  16.897   4.626  11.698 -0.1767 -0.3526  0.1199
30067W        W46201   9.670  15.658   1.886  0.0163 -0.1787 -0.0255
30068W        W46202  12.973  11.851   0.552  0.2118  0.1842 -0.2971
30069W        W46203   5.575   4.966   2.993  0.1663  0.0022 -0.3023
30070W        W46204   4.201   7.189  11.176  0.1216 -0.0540  0.0925
30071W        W46205  10.077   1.835   1.782 -0.1420  0.1130 -0.0559
30072W        W46206   6.237   5.544   2.590 -0.0952 -0.1880 -0.2280
30073W        W46207   5.322   9.940   3.014  0.0798  0.2549 -0.0472
30074W        W46208  13.744   3.304   2.483  0.0142 -0.1103 -0.1944
30075W        W46209  10.621   1.130  17.127  0.0636  0.0067  0.1742
30076W        W46210   2.732   5.196  16.539  0.1952 -0.0601 -0.1597
30077W        W46211   3.424  11.007  15.635  0.0253  0.1352  0.1299
30078W        W46212   3.678   8.271   1.879  0.0119 -0.1883  0.2181
30079W        W46213   7.353   1.538  15.814  0.0983 -0.0235 -0.2751
30080W        W46214   7.057   9.856  11.608  0.2990 -0.1421  0.1401
30081W        W46215  16.512   0.474   5.202  0.1016  0.2331  0.2700
30082W        W46216   0.269  10.262   1.653 -0.0118 -0.0911  0.1179
30083W        W46217   4.681   2.424   1.949  0.1086 -0.2074 -0.1059
30084W        W46218   1.314  15.362   6.066 -0.0689  0.0529 -0.0785
30085W        W46219  15.621   4.415  12.920 -0.1880 -0.0155  0.0804
30086W        W46220   2.403  12.039   0.856  0.0461  0.3132 -0.2259
30087W        W46221  13.377  11.492   5.077 -0.0884  0.1072  0.0419
30088W        W46222   5.337   3.226   5.724  0.2465 -0.2016 -0.2116
30089W        W46223   8.064   4.610   4.053  0.3173  0.0493  0.1834
30090W        W46224   8.053   1.906   3.594  0.2743  0.2067 -0.0211
30091W        W46225  10.129   4.236   4.588  0.1754 -0.1307 -0.1146
30092W        W46226  16.170  11.470   3.421 -0.0928 -0.0036 -0.0681
30093W        W46227   2.592   0.459   3.597  0.1920 -0.0087  0.1037
30094W        W46228  16.020  16.565  15.270 -0.2008  0.3129  0.1343
30095W        W46229  11.803   5.994  15.363 -0.0427  0.0310  0.0668
30096W        W46230  17.203   5.386   4.694  0.1744 -0.2261  0.5148
30097W        W46231   0.373  11.266  13.895 -0.2046 -0.2128 -0.0203
30098W        W46232  16.285  10.413   0.039  0.0355 -0.0863 -0.0472
30099W        W46233   8.937   3.324   6.265  0.2650  0.0590 -0.2414
30100W        W46234   5.559  14.345   4.600 -0.0764  0.0527  0.3915
30101W        W46235   1.931  15.945  12.909  0.2266 -0.2029 -0.1132
30102W        W46236  16.033   8.856  15.034  0.0720 -0.0955 -0.0083
30103W        W46237   1.423   6.362   1.635 -0.2960  0.1265 -0.0399
30104W        W46238  16.676  13.284   4.562 -0.0538 -0.0159  0.1236
30105W        W46239   4.935   8.499  15.185 -0.3735  0.1519  0.0118
30106W        W46240  15.863  15.852   5.895 -0.0677 -0.1761 -0.1690
30107W        W46241   6.266  15.785  14.544 -0.0035  0.3477 -0.3784
30108W        W46242  17.142   4.605   4.326  0.0330  0.0041 -0.0008
30109W        W46243  12.856  15.021  14.039 -0.2932  0.3204 -0.0837
30110W        W46244  11.822   1.468   4.895 -0.0014  0.0775  0.2018
30111W        W46245  13.383  15.465   5.307  0.0102 -0.0389  0.0671
30112W        W46246   8.568  13.172  14.495  0.0321  0.1334 -0.3155
30113W        W46247   2.245   6.449   2.156  0.1447  0.2382 -0.0152
30114W        W46248   0.890   2.783  12.353  0.1378  0.2264 -0.1171
30115W        W46249  11.296  14.433  14.605  0.2080 -0.3764 -0.0305
30116W        W46250   1.381   4.753   0.192  0.0560  0.2123 -0.0013
30117W        W46251  13.264   9.482   3.668  0.1790  0.0353 -0.1076
30118W        W46252  16.222   9.237  12.620 -0.0137 -0.0196  0.0908
30119W        W46253  16.735   3.864   0.375  0.0939 -0.1836  0.3028
30120W        W46254   2.044   0.454   5.313  0.2530 -0.0493 -0.1196
30121W        W46255   6.089   8.873  16.493  0.1277 -0.1449  0.0850
30122W        W46256  15.289  13.625   0.713  0.1107  0.3150  0.3768
30123W        W46257   1.851   9.315   1.618 -0.0657  0.1085  0.1663
30124W        W46258  13.701   9.011   5.120  0.0253 -0.0917  0.0509
30125W        W46259  15.374   7.021  12.990  0.4249 -0.1236  0.0592
30126W        W46260   3.629   7.392   3.469 -0.2465 -0.2141  0.0518
30127W        W46261  13.475   5.799   2.118 -0.1060 -0.1776 -0.1659
30128W        W46262  14.619  13.741  16.933  0.2155  0.0169 -0.0208
30129W        W46263  12.459  13.735  12.645 -0.0950  0.1194 -0.2270
30130W        W46264  12.549  10.318  14.250  0.1678 -0.1849  0.0708
30131W        W46265  10.408   1.186  15.136  0.2226 -0.1348 -0.1836
30132W        W46266  10.110   2.888   1.935 -0.1332 -0.0892 -0.1654
30133W        W46267   6.277  12.534  12.002 -0.0332 -0.0615 -0.1688
30134W        W46268   1.087   1.201   1.738 -0.0254  0.0780  0.2019
30135W        W46269  16.252   9.659  16.781  0.0851  0.0856  0.0457
30136W        W46270   2.553   6.820  16.544 -0.4100 -0.0901 -0.0413
30137W        W46271   6.449  12.376   1.209 -0.1072 -0.1393 -0.0476
30138W        W46272  16.906   4.261   2.149 -0.2439  0.0678 -0.1905
30139W        W46273   6.300  10.173  12.579  0.1493  0.1890 -0.0327
30140W        W46274   9.724   6.010  15.720  0.2593  0.0270  0.3621
30141W        W46275   0.904   2.709  13.703 -0.4463  0.2488 -0.0560
30142W        W46276   0.941  13.107  14.759  0.3080  0.0650  0.1947
30143W        W46277   9.067  17.518  12.217 -0.1567 -0.2379 -0.2629
30144W        W46278   5.104   4.525  13.949  0.0172 -0.0323 -0.0930
30145W        W46279   4.594  11.622  11.743 -0.0795  0.0180 -0.1023
30146W        W46280   1.947  11.053   2.111  0.1510  0.1609 -0.2253
30147W        W46281   4.108  17.235  13.873 -0.0754  0.0199  0.2412
30148W        W46282  11.708  14.930   4.170 -0.0813 -0.0293  0.0739
30149W        W46283   9.254   5.686  12.148 -0.1252 -0.2027 -0.0622
30150W        W46284  11.209   7.571   5.102 -0.1651  0.0447 -0.0210
30151W        W46285   1.238   3.869  12.470 -0.0493 -0.1097 -0.0772
30152W        W46286  11.835  11.708   0.550  0.0025 -0.0563  0.0016
30153W        W46287   9.751  15.923  13.525 -0.2036 -0.1902  0.2237
30154W        W46288  15.400  11.299  14.579 -0.1175 -0.1603 -0.0115
30155W        W46289   5.664   9.659   2.731 -0.0710 -0.1101 -0.0775
30156W        W46290   5.210  16.060   3.859  0.0967 -0.0251  0.0079
30157W        W46291  14.665  14.583   4.378  0.7659  0.1246  0.0407
30158W        W46292   0.292  13.031   0.276 -0.0370 -0.2798  0.0903
30159W        W46293  13.837  13.001   1.861 -0.2697  0.0325 -0.0617
30160W        W46294  14.407  11.838  14.597  0.2094 -0.0112 -0.3023
30161W        W46295   2.584   8.419  13.823 -0.3228 -0.2075 -0.1764
30162W        W46296   5.701   0.331   0.902 -0.1689 -0.1582  0.4528
30163W        W46297  10.295   3.917  14.779 -0.1811  0.1148  0.1478
30164W        W46298  10.609  10.183  13.705  0.2500 -0.0359 -0.0221
30165W        W46299   0.906  12.683   4.799 -0.3565  0.0543 -0.1627
30166W        W46300  12.021  14.160  15.172 -0.0425 -0.0081  0.0854
30167W        W46301  13.414  17.099  15.569 -0.0532  0.1840  0.0190
30168W        W46302  10.510  16.600   4.234  0.1225  0.0180  0.2717
30169W        W46303   8.790  13.192   2.412 -0.0124  0.2670 -0.0637
30170W        W46304  16.603   0.871   3.542  0.0401 -0.2079 -0.0898
30171W        W46305  16.061   7.493  13.353  0.1561  0.1891 -0.0134
30172W        W46306   3.957   3.255  16.925  0.2901 -0.0027 -0.1540
30173W        W46307  17.436  13.487   0.976  0.2743  0.0199  0.1079
30174W        W46308   0.252   7.457   2.965 -0.0719  0.0452 -0.1117
30175W        W46309   5.449   4.033   4.960  0.0191  0.0847 -0.2119
30176W        W46310   9.586   1.494   1.882  0.0052 -0.3473  0.0590
30177W        W46311   6.576   0.994   5.129  0.2927 -0.0569 -0.3212
30178W        W46312   1.448   5.074  16.806 -0.1171  0.2614 -0.1062
30179W        W46313  15.043  10.967   4.281  0.0214 -0.1459  0.1441
30180W        W46314  10.558   9.955   1.203 -0.0177 -0.1501  0.1941
30181W        W46315  17.043  13.833  14.891  0.1195  0.0618 -0.2611
30182W        W46316   3.130  16.038   4.518 -0.2115 -0.0456  0.3423
30183W        W46317  16.536   1.899  14.179 -0.0788  0.2418  0.3420
30184W        W46318   2.334  15.990   2.459  0.1740  0.3851  0.2295
30185W        W46319   4.855  14.775  13.037  0.0323 -0.0125  0.0733
30186W        W46320   8.949  15.846   3.716  0.2410 -0.0080 -0.1322
30187W        W46321   7.972  17.123  15.648  0.2431  0.0425 -0.1176
30188W        W46322  15.818   7.324   2.098  0.1099  0.1577  0.0629
30189W        W46323   0.831  14.793   6.545 -0.0414  0.2357  0.1165
30190W        W46324  14.595  17.332   0.893 -0.0586 -0.1780 -0.0229
30191W        W46325  12.487   5.972  15.979 -0.2951 -0.4071 -0.0609
30192W        W46326  13.377  12.377   5.253  0.1490  0.0288 -0.3539
30193W        W46327  17.088   2.076   3.856  0.0724  0.0104 -0.1558
30194W        W46328   2.900  11.418   3.566  0.0293 -0.2918 -0.2360
30195W        W46329   5.137   8.361   4.823 -0.1587  0.1103 -0.1568
30196W        W46330  14.421   3.557  14.307  0.2243  0.2653 -0.1939
30197W        W46331  15.699  14.096   1.627  0.2643  0.2405 -0.0156
30198W        W46332  16.336   5.588  16.551 -0.1314  0.2067 -0.1478
30199W        W46333   4.232  11.839  12.524  0.3187 -0.2879 -0.1043
30200W        W46334  14.211  13.777  12.534 -0.0009 -0.5738  0.0163
30201W        W46335   2.029   9.333  15.003 -0.0337 -0.2752  0.0207
30202W        W46336   2.112   6.254   1.630  0.3729 -0.2884  0.0771
30203W        W46337  16.220   6.926   5.428  0.1657  0.2317  0.0812
30204W        W46338   3.935  16.918   0.796  0.1016  0.0713  0.2097
30205W        W46339  16.037   8.015   0.033  0.2108 -0.2999 -0.1463
30206W        W46340   1.943   9.705   2.546  0.1908 -0.0281 -0.1488
30207W        W46341   1.248   0.392  14.185 -0.1193 -0.4420  0.1880
30208W        W46342   7.143  14.663  11.611  0.0705  0.0162  0.3334
30209W        W46343   9.996  12.117   3.987 -0.1888 -0.0691 -0.1360
30210W        W46344   8.290  11.875   4.559 -0.0662  0.0202  0.1159
30211W        W46345   2.903  15.352   5.113 -0.0229  0.0980  0.1976
30212W        W46346   1.106   6.653   5.035 -0.0182 -0.4283  0.1091
30213W        W46347  15.243   3.649  15.945  0.2895 -0.2419  0.1776
30214W        W46348   4.638   0.682   2.821 -0.0714 -0.2213 -0.1438
30215W        W46349   9.350  14.593   1.390  0.2674 -0.2959 -0.0811
30216W        W46350  13.112   2.896  17.035  0.2294  0.0287  0.0090
30217W        W46351   2.062   5.916   2.016 -0.1408 -0.3099  0.2157
30218W        W46352   4.519   9.300   6.317 -0.1395  0.0086 -0.0106
30219W        W46353  16.400   5.781  13.033  0.0065 -0.2094 -0.2336
30220W        W46354  15.624   9.182  14.278  0.2145 -0.3078  0.2711
30221W        W46355  16.129  10.402  16.249 -0.1735  0.0231 -0.0338
30222W        W46356   8.114   1.686   1.658  0.1526 -0.2187 -0.1456
30223W        W46357  16.116   7.482  17.088 -0.3088  0.0058 -0.1418
30224W        W46358  11.775   4.143   2.747  0.0808 -0.0819 -0.3914
30225W        W46359  14.077  11.401   1.230  0.1526 -0.0316  0.0615
30226W        W46360  11.599  12.577  14.324  0.2091 -0.0244  0.2671
30227W        W46361  16.713  17.451   6.255  0.0290 -0.0306 -0.2852
30228W        W46362   1.198   9.778  11.101 -0.1945  0.0984  0.1937
30229W        W46363   1.851   7.023  11.304  0.0923 -0.2978  0.2823
30230W        W46364   6.928  17.077   5.105 -0.1160 -0.1306 -0.3043
30231W        W46365   3.510  10.461   5.287 -0.0542 -0.1180  0.3183
30232W        W46366   8.711  13.069   3.931  0.1474  0.0466 -0.4843
30233W        W46367   2.084   0.485   2.411  0.2059 -0.1942 -0.1256
30234W        W46368   1.573  13.792   2.726  0.3601  0.2030  0.0568
30235W        W46369   9.587   2.094  15.221 -0.0084  0.0609  0.0882
30236W        W46370   3.845   4.511  15.181  0.1644  0.4053  0.0465
30237W        W46371  10.347   6.243   5.417  0.1517 -0.1359 -0.4473
30238W        W46372   1.287  12.402   3.627  0.2049 -0.0941  0.1339
30239W        W46373   8.914  16.590  13.439  0.2692 -0.1458  0.0135
30240W        W46374  15.385  14.662  15.071 -0.1937  0.1570 -0.0062
30241W        W46375  12.496  11.099  13.717  0.0898  0.0317  0.0875
30242W        W46376  17.351  10.577   4.667 -0.1042 -0.1872 -0.0296
30243W        W46377   5.849   6.059   3.209  0.0435  0.1421  0.0645
30244W        W46378  12.964  10.098  15.055  0.0262  0.0451 -0.0963
30245W        W46379   7.784  15.506   4.134  0.3001  0.0671  0.1016
30246W        W46380   6.939  11.452   2.441 -0.2591 -0.0197 -0.0606
30247W        W46381   6.407   9.812   0.959  0.2088  0.1907  0.0637
30248W        W46382   0.217   6.471  13.504  0.1729  0.1469 -0.0004
30249W        W46383   9.432   4.986   0.731 -0.0820  0.0266  0.0144
30250W        W46384   4.330  15.474  16.681  0.0901 -0.0404  0.3963
30251W        W46385   9.878   1.161  12.558 -0.3273 -0.1867  0.0995
30252W        W46386   2.326  11.336  16.078 -0.5500  0.2400 -0.1197
30253W        W46387  13.300   3.267  12.517  0.0486  0.3095 -0.0281
30254W        W46388  11.090  16.745  14.556  0.2326  0.1225  0.0289
30255W        W46389  11.271  12.668   2.340 -0.1676 -0.2283  0.0310
30256W        W46390  11.459   6.388  16.682 -0.0206  0.0311  0.0933
30257W        W46391   3.670  15.575   2.394 -0.1108 -0.1313  0.2589
30258W        W46392  12.260   9.002  13.569  0.0900  0.0395  0.4140
30259W        W46393   9.464  13.220  15.483  0.1215 -0.0277 -0.2249
30260W        W46394  14.076  10.428   5.625  0.0371  0.1275  0.2025
30261W        W46395  17.541   5.187   2.074  0.1365 -0.1894  0.0287
30262W        W46396  15.162   1.089   3.954  0.1869 -0.1326  0.1173
30263W        W46397   5.237   6.436   5.959 -0.2823 -0.0686  0.0978
30264W        W46398   9.584   0.467   5.389  0.0244  0.1312 -0.2695
30265W        W46399   3.635   9.268  17.178  0.2359 -0.2478  0.0935
30266W        W46400  14.733   6.854   3.036  0.0314  0.1404  0.2686
30267W        W46401   2.604  16.845  14.434  0.2375  0.1773  0.4540
30268W        W46402   6.919   4.697  13.317 -0.0373 -0.0329  0.1095
30269W        W46403   7.896   6.809  16.096 -0.0891 -0.3656 -0.0462
30270W        W46404   3.144   6.032   3.055  0.1087  0.0270 -0.0366
30271W        W46405  13.461   5.583   0.997 -0.2651  0.2753 -0.3555
30272W        W46406  12.597   3.930  16.179 -0.0478 -0.1055  0.0952
30273W        W46407   4.135   2.501   0.159 -0.0712  0.1108  0.1235
30274W        W46408   7.907  13.047  13.605 -0.0577 -0.1574 -0.0435
30275W        W46409  16.481  13.535  17.072  0.0196 -0.1187 -0.0407
30276W        W46410  17.638   0.440   1.997  0.1196  0.0585  0.2455
30277W        W46411  15.392  12.810   0.113  0.1001  0.0870 -0.4043
30278W        W46412  15.102  13.477  16.987  0.3373 -0.0869  0.1540
30279W        W46413  13.462  15.452  12.447 -0.2390 -0.1754  0.0685
30280W        W46414  17.500  16.714  12.868 -0.1048 -0.1423  0.0613
30281W        W46415   5.875  10.481   0.387 -0.0832  0.2486  0.1662
30282W        W46416   6.757   2.196   2.824 -0.1709  0.0770  0.0163
30283W        W46417   2.908   4.456   4.745 -0.1521 -0.1889 -0.1621
30284W        W46418   5.150   6.960   4.206  0.1116  0.0910 -0.0208
30285W        W46419  16.134   4.954  11.912  0.0465  0.1311 -0.0236
30286W        W46420   9.515   8.318   2.349  0.1809  0.3133 -0.1625
30287W        W46421   0.713  11.199   3.631 -0.1416 -0.0708  0.1505
30288W        W46422  10.561  17.540  15.721 -0.2552 -0.1444  0.0026
30289W        W46423   6.904  12.524  17.003 -0.2143 -0.0193 -0.0374
30290W        W46424  11.595   1.597  13.871  0.2999  0.0891  0.0837
30291W        W46425   5.554   8.966  16.676  0.1668 -0.1017  0.2154
30292W        W46426   4.076   7.294  15.508 -0.0675  0.1546 -0.1154
30293W        W46427   4.961   0.467  15.770 -0.1332  0.0095 -0.2167
30294W        W46428  12.794  16.173  16.937  0.0971 -0.0107 -0.0135
30295W        W46429  15.393   1.001   0.958  0.1990  0.1256  0.0782
30296W        W46430   0.532  11.238   2.660  0.1565  0.2009  0.0863
30297W        W46431  11.975  13.041  13.084  0.1019  0.1269  0.1939
30298W        W46432   7.452  11.585   1.595  0.1923  0.1389 -0.0521
30299W        W46433  13.197   6.178  13.491  0.0270  0.3537 -0.1428
30300W        W46434   2.238  15.253  16.142  0.1220  0.0082 -0.0820
30301W        W46435  14.252   4.906  15.780 -0.1983  0.0753  0.1416
30302W        W46436  13.964  15.696   0.406  0.1468  0.1251  0.0809
30303W        W46437   6.963   1.830   4.493  0.0186  0.1361  0.2014
30304W        W46438  14.886  12.445   2.761  0.1432 -0.3945 -0.0220
30305W        W46439   2.988  13.248   0.575 -0.1251  0.1329  0.0309
30306W        W46440   4.600   1.930  16.843 -0.0597  0.0615 -0.0086
30307W        W46441  11.208  10.529   4.362 -0.0315 -0.0685 -0.1087
30308W        W46442  12.536   6.694  16.610 -0.1631 -0.0046 -0.1162
30309W        W46443  14.728  14.725   3.094  0.0891  0.0332  0.0151
30310W        W46444   9.035   7.544  15.487  0.1669 -0.0378 -0.0280
30311W        W46445   9.183   2.814  15.702  0.0622 -0.2410  0.1082
30312W        W46446   5.886  10.494   2.427  0.0315 -0.0597 -0.2257
30313W        W46447   0.429   5.822  13.603  0.1777  0.1033 -0.0108
30314W        W46448   4.482   7.964  13.349 -0.0684  0.0951 -0.5725
30315W        W46449   6.677  15.356   2.363  0.1123 -0.1101  0.0881
30316W        W46450  14.039  10.004   0.831  0.2833  0.0624 -0.0879
30317W        W46451  10.143  10.825   0.504  0.0632  0.0342 -0.0826
30318W        W46452  15.367   9.159   1.420  0.2261 -0.1652 -0.0364
30319W        W46453   6.384  10.650   0.364 -0.0163 -0.2143 -0.1145
30320W        W46454  11.640  10.070   2.078  0.0336  0.3604  0.3119
30321W        W46455   2.288   0.419   4.028 -0.1129 -0.0521 -0.4650
30322W        W46456   8.882  13.464  14.184  0.1649  0.0535  0.0530
30323W        W46457   8.068  13.083   0.628 -0.1096  0.1570 -0.0987
30324W        W46458   6.149   8.261  15.775 -0.1761 -0.0987  0.0541
30325W        W46459   2.826  16.733   3.433 -0.0219  0.1149 -0.2916
30326W        W46460   0.865  12.189  13.910  0.1481  0.2865  0.1843
30327W        W46461  11.725  15.491   1.279 -0.0630  0.0070  0.2677
30328W        W46462  16.360  10.996  14.244 -0.1682 -0.0288  0.3414
30329W        W46463   1.807  12.502   6.365 -0.1764 -0.0467  0.0640
30330W        W46464   6.707   7.538   4.236 -0.2527 -0.1269  0.1625
30331W        W46465   1.236  11.877  16.406  0.0560  0.0555  0.2358
30332W        W46466   6.938   8.338   2.986  0.0484  0.1259  0.1286
30333W        W46467  16.006   3.435  12.058  0.0474  0.0263  0.1428
30334W        W46468  14.745  10.540   1.931 -0.1418 -0.3513  0.0571
30335W        W46469  14.788   1.382   3.701 -0.1943 -0.0445  0.1132
30336W        W46470   0.705   1.800   5.205 -0.0774  0.2552 -0.1452
30337W        W46471  10.228  17.652  16.159  0.2955 -0.3217  0.2884
30338W        W46472   7.555  10.300   4.449 -0.1824  0.0312  0.1143
30339W        W46473  16.974   3.055  16.698 -0.3912  0.0155  0.3122
30340W        W46474   1.671   3.778  14.462  0.1122 -0.0149  0.0579
30341W        W46475   7.598   1.134   2.675  0.0960 -0.2924 -0.0455
30342W        W46476  12.484   3.573   2.527  0.0051 -0.1165 -0.1756
30343W        W46477   7.054   9.620   6.776  0.1463 -0.0024  0.0121
30344W        W46478  15.762   8.875   1.324  0.3498  0.0702 -0.2299
30345W        W46479  14.929   3.143  15.851 -0.2757  0.1564  0.1179
30346W        W46480   2.147   5.385   1.332  0.0899 -0.0898  0.0053
30347W        W46481  17.292   8.572   0.455  0.1119 -0.2035  0.2541
30348W        W46482   4.643  17.058   3.028  0.0617  0.0878  0.2135
30349W        W46483  10.304  11.580  16.154 -0.0716 -0.2514  0.0571
30350W        W46484   3.880   0.841   4.699 -0.0517  0.0664  0.0425
30351W        W46485  17.316   5.753  15.692  0.0162 -0.0289  0.0677
30352W        W46486   7.521  13.650   5.787  0.1389  0.0506  0.0906
30353W        W46487   8.828  14.691  11.612  0.0054  0.0744 -0.0768
30354W        W46488  10.545  16.835   5.844  0.5188  0.0392 -0.1692
30355W        W46489   8.868  10.881  12.377 -0.0578  0.1045  0.1327
30356W        W46490  15.240  11.956  15.862  0.0742 -0.0338 -0.0891
30357W        W46491  16.584  15.878   2.319 -0.1244 -0.1783  0.2801
30358W        W46492  12.342  13.476   6.747 -0.0352  0.0913 -0.0333
30359W        W46493   5.459  11.526   5.786  0.1039  0.0600 -0.0482
30360W        W46494   5.922   6.321   0.586 -0.2663 -0.1312  0.0950
30361W        W46495  17.631  14.826   4.682 -0.0937  0.0704  0.1319
30362W        W46496  15.270   7.429   0.463  0.2785  0.2274 -0.2764
30363W        W46497   4.288   4.840  15.182  0.1018  0.2075 -0.2044
30364W        W46498   9.551   7.643   4.688  0.1408  0.1956  0.1371
30365W        W46499   0.547  12.098  14.903  0.0931 -0.0635  0.1109
30366W        W46500  17.204  16.748   4.033 -0.0731 -0.0171 -0.1788
30367W        W46501   5.476  10.253   5.293 -0.0883 -0.0124 -0.0438
30368W        W46502   2.761   0.473   1.670  0.1241 -0.2689 -0.1800
30369W        W46503  12.745   2.365   3.560 -0.2083 -0.2774  0.2676
30370W        W46504  12.261   8.355   2.301 -0.0960 -0.0832  0.0767
30371W        W46505  12.233   3.284  14.078 -0.0683 -0.1249  0.1648
30372W        W46506  17.317   4.280   2.526  0.0812  0.3570  0.2342
30373W        W46507  16.591   4.225   5.685  0.1373  0.3193  0.2153
30374W        W46508   0.714   0.432  13.920  0.1335  0.0753  0.1863
30375W        W46509   6.202   0.880  15.070  0.1109 -0.0288  0.0714
30376W        W46510   6.325   3.306  12.616 -0.0167 -0.1347 -0.1356
30377W        W46511   5.764   9.509   3.619 -0.3882 -0.1790 -0.1613
30378W        W46512  17.495  15.916  13.313 -0.0185 -0.1395  0.2863
30379W        W46513   0.863   7.998  14.520  0.0105 -0.0735  0.0187
30380W        W46514   6.999   6.582  11.867 -0.2607  0.2198 -0.0818
30381W        W46515  16.161  10.139   4.831  0.2332  0.3785  0.1700
30382W        W46516   6.224   1.428  17.038  0.0041  0.1589 -0.0462
30383W        W46517   3.250  15.978   5.033 -0.3562  0.2653 -0.0024
30384W        W46518   7.464   2.671  14.559  0.0374 -0.0034 -0.2434
30385W        W46519   8.496   0.623  13.612  0.1863  0.0002  0.2834
30386W        W46520   2.909   7.634  13.123  0.1706  0.2702 -0.2266
30387W        W46521  10.809   0.025  13.314 -0.1826  0.2965  0.2480
30388W        W46522   6.408   3.814  15.027 -0.1065  0.2463  0.2152
30389W        W46523   2.381  17.452   2.774  0.1188 -0.0811 -0.0222
30390W        W46524   6.972   4.455   0.030  0.1148 -0.1456  0.0682
30391W        W46525   9.095   4.467  16.647  0.0595 -0.2442  0.0700
30392W        W46526   9.911   2.573   2.266 -0.0496 -0.1672 -0.2700
30393W        W46527   6.649   5.804   2.341 -0.0851  0.0169 -0.2270
30394W        W46528   4.509   8.471  12.152 -0.0810 -0.1676 -0.1068
30395W        W46529   3.219   2.952   4.934 -0.0165 -0.0361 -0.0182
30396W        W46530   0.102  11.758   4.728  0.0687  0.0005 -0.1181
30397W        W46531   8.206  10.782  16.891 -0.2677 -0.1795 -0.2081
30398W        W46532   4.869  15.418   1.008 -0.1890  0.2104 -0.2416
30399W        W46533   1.340  12.472   1.631 -0.1958  0.1761 -0.0610
30400W        W46534  13.690  11.130  15.920  0.1649 -0.1511 -0.2224
30401W        W46535  14.461  17.570  15.783 -0.3586 -0.2228  0.0521
30402W        W46536   1.071   6.406  16.793 -0.2541 -0.0092  0.0361
30403W        W46537  17.190  14.556  12.243 -0.1267  0.1614  0.0371
30404W        W46538   0.394  13.485   5.587 -0.1759  0.1252 -0.1805
30405W        W46539  14.364   3.997   4.396 -0.0639  0.0947  0.1004
30406W        W46540   7.198   5.832  13.132  0.0367 -0.1234  0.0112
30407W        W46541  11.602   0.425  16.327 -0.0030 -0.0961  0.1133
30408W        W46542  17.505  11.410   0.927 -0.0842 -0.2170  0.0083
30409W        W46543   4.419   5.410  13.590 -0.2631 -0.0391 -0.0655
30410W        W46544   1.253   2.273  16.440 -0.2304 -0.1285 -0.0060
30411W        W46545   8.029   1.400   3.504 -0.3159  0.1401 -0.1758
30412W        W46546  16.801  14.707  15.344  0.1110 -0.5595  0.0066
30413W        W46547  12.664   6.026  13.662  0.0836  0.1064  0.1194
30414W        W46548  13.234   1.113   3.931 -0.0343 -0.2538 -0.2121
30415W        W46549   0.779   3.604  16.658 -0.2254 -0.1367  0.2047
30416W        W46550  14.981   1.644   5.156  0.2098 -0.1792  0.2964
30417W        W46551  15.286  17.488  15.314  0.1409  0.3267  0.1080
30418W        W46552  12.305  15.563   3.909 -0.2047  0.2404 -0.1030
30419W        W46553  17.529   0.053   4.375  0.2649  0.0368 -0.0745
30420W        W46554   9.447   4.185   5.520 -0.1127 -0.1867  0.0452
30421W        W46555  15.323   5.484  14.500  0.0969  0.0896  0.1244
30422W        W46556   4.956   1.571   0.876 -0.1307 -0.2948 -0.0490
30423W        W46557  15.164   1.675   2.790  0.4409 -0.3173  0.0882
30424W        W46558  12.192   2.080   0.666  0.0274  0.0076 -0.1257
30425W        W46559  14.401   1.245   1.876  0.0443  0.3292 -0.1243
30426W        W46560  11.895  14.083   6.265 -0.1993  0.2968 -0.1350
30427W        W46561   1.722  16.250  13.800 -0.0026 -0.0140 -0.2095
30428W        W46562   9.368   5.536  13.952  0.0608 -0.1935  0.0664
30429W        W46563   4.022  12.011   4.275 -0.0708 -0.0266 -0.2319
30430W        W46564   1.864   5.031  16.550  0.0449  0.1043  0.2127
30431W        W46565   5.958   4.901   3.998  0.0095  0.2193 -0.1630
30432W        W46566  11.638  17.322   2.243 -0.1593  0.1303  0.1938
30433W        W46567  14.578   9.607  12.948  0.0289 -0.0270  0.0093
30434W        W46568  10.079   0.364   5.281  0.0560  0.1140 -0.2168
30435W        W46569  15.687   8.744   0.424 -0.1491 -0.3044 -0.3287
30436W        W46570  15.264  17.388  14.856  0.0201 -0.2373 -0.3214
30437W        W46571   8.754   4.045  17.159  0.2981 -0.2948 -0.2687
30438W        W46572   9.024  10.626   1.501  0.2006  0.0235  0.0957
30439W        W46573   5.581   2.597   3.430 -0.1985 -0.0708  0.0795
30440W        W46574   2.992  16.645  13.244 -0.2538  0.2230  0.3129
30441W        W46575   7.505   9.884  16.665 -0.3714  0.1062 -0.1741
30442W        W46576  10.258   4.842   3.963  0.1169 -0.0476  0.4180
30443W        W46577   4.306  15.807   1.016 -0.2281  0.1959 -0.0004
30444W        W46578   2.551  15.629  14.424  0.3707 -0.2017  0.4229
30445W        W46579  15.857  14.671  17.126  0.1656  0.0078  0.3060
30446W        W46580  10.920   1.259  12.605 -0.0264  0.2502  0.0303
30447W        W46581   1.311   8.252  10.198 -0.0592  0.1782  0.0444
30448W        W46582   6.200  13.915  16.656 -0.1897  0.2118  0.1388
30449W        W46583   5.934   7.226   6.574  0.1123  0.0082 -0.0560
30450W        W46584  11.773   2.619   3.533 -0.0104  0.4327 -0.1364
30451W        W46585  11.859  14.272   0.871  0.3524  0.0113  0.2363
30452W        W46586   8.574   1.650  13.679  0.2475 -0.2595  0.0632
30453W        W46587   3.988  10.712  11.008 -0.2026  0.0065 -0.0375
30454W        W46588  12.691   7.693   1.981 -0.0206 -0.1898 -0.1209
30455W        W46589   2.055  11.163   5.161 -0.1349 -0.0324 -0.0317
30456W        W46590   3.998  10.359  15.276 -0.1045 -0.0660  0.0394
30457W        W46591   7.308   6.262  12.305  0.1856 -0.1412  0.1535
30458W        W46592  12.873  13.543  15.841 -0.1337 -0.0402  0.0626
30459W        W46593   1.426  15.203   2.666 -0.1704 -0.1315  0.1574
30460W        W46594  10.938   9.075  12.053  0.0374  0.0054  0.0155
30461W        W46595   6.866  16.418   1.277 -0.2702  0.2015 -0.1442
30462W        W46596   8.920  16.923   0.237 -0.2592 -0.5121  0.0939
30463W        W46597  11.034   0.321   4.889 -0.0845 -0.0565 -0.0127
30464W        W46598   2.767  14.788  14.360  0.0988  0.0016 -0.0024
30465W        W46599   4.133   1.441   2.924 -0.1598 -0.0844 -0.0697
30466W        W46600   5.440   0.789   5.538 -0.2273  0.2453 -0.3112
30467W        W46601   3.210   6.103  15.183 -0.0034 -0.1732  0.0296
30468W        W46602   4.681   8.615   5.548  0.1513  0.1869  0.1755
30469W        W46603  11.062   8.192  13.196 -0.0771 -0.1020 -0.0951
30470W        W46604  10.251   6.663   1.048  0.4143  0.1083 -0.1076
30471W        W46605   2.329   0.073  14.580 -0.2621 -0.0774  0.0159
30472W        W46606   5.667  13.322   2.173 -0.0311  0.1323 -0.2155
30473W        W46607  13.422  11.935  16.437  0.1305  0.1872  0.1346
30474W        W46608   6.441   0.233   2.271 -0.1763 -0.0381  0.1633
30475W        W46609   6.250  15.943  14.103  0.0268 -0.0197  0.1531
30476W        W46610  15.092  13.241   3.599 -0.0125  0.1739  0.0173
30477W        W46611  13.542   6.290  13.138  0.1160  0.1127 -0.0135
30478W        W46612   9.316   8.631  14.091 -0.1233 -0.1984  0.1508
30479W        W46613  11.036   6.734  16.353 -0.2790  0.2135  0.4159
30480W        W46614  14.075   1.079   5.459  0.2165  0.1661 -0.2084
30481W        W46615   3.898  17.401   1.063 -0.1857  0.0520  0.1325
30482W        W46616   2.837  17.585  14.477 -0.3160 -0.0768 -0.1939
30483W        W46617  17.200  10.993   4.385 -0.1198 -0.1470  0.1389
30484W        W46618  14.803   5.653   1.496  0.0211 -0.1511  0.1749
30485W        W46619   7.462  10.300   2.782 -0.2672  0.0715 -0.2421
30486W        W46620  12.109   7.445   5.134 -0.1828  0.2366  0.1116
30487W        W46621  13.552  13.224   1.079  0.0158  0.1551  0.1908
30488W        W46622  14.071  16.234   2.265  0.4420  0.1771  0.1317
30489W        W46623  10.183   3.073  12.155 -0.0088 -0.2567 -0.0969
30490W        W46624  17.301  11.790   2.824 -0.0071  0.1772 -0.1789
30491W        W46625  12.813  11.341   3.109 -0.0438 -0.2428 -0.1266
30492W        W46626   7.607   9.394   0.720  0.1234 -0.3692 -0.2683
30493W        W46627   0.850  10.075   3.647 -0.2312  0.3351  0.1229
30494W        W46628   6.405   6.382   3.137  0.0378 -0.0804 -0.0099
30495W        W46629   5.620   3.284  13.134 -0.1387 -0.1725 -0.1317
30496W        W46630   1.502   1.447   1.858  0.1114 -0.1659 -0.2424
30497W        W46631   8.306  14.773   3.432 -0.1946  0.1963  0.1398
30498W        W46632   6.558  13.921  15.903 -0.0671  0.0797  0.1359
30499W        W46633  15.111  13.599   5.622 -0.0759 -0.1228 -0.0990
30500W        W46634   4.198   4.382   1.446  0.0164 -0.1487  0.0477
30501W        W46635  11.027  13.811   5.265 -0.0573 -0.0790 -0.0880
30502W        W46636  11.577   7.668   5.390  0.0280  0.1464 -0.0784
30503W        W46637   7.309   6.444   1.211 -0.0010  0.2126 -0.0393
30504W        W46638   2.847   6.197   2.692  0.2040  0.2928  0.0275
30505W        W46639   0.538  14.143   4.725  0.0105  0.0926  0.1180
30506W        W46640   1.021   9.588   0.127 -0.0968 -0.1626  0.1523
30507W        W46641   8.695   7.400   6.013 -0.1250  0.1445  0.1745
30508W        W46642   3.388  14.387  16.447  0.2432  0.3446  0.2347
30509W        W46643  12.218   1.064   3.569 -0.4352  0.0788 -0.0246
30510W        W46644   7.864  11.775  15.545 -0.2187  0.3401 -0.0355
30511W        W46645   6.535  13.900  14.834 -0.0174  0.2463  0.0217
30512W        W46646   8.145   7.120  12.614 -0.2542 -0.0531 -0.0818
30513W        W46647   4.110   6.620  12.486 -0.3869 -0.0753  0.0453
30514W        W46648  17.202   1.890  14.473 -0.1095 -0.0589  0.1280
30515W        W46649   2.783   2.246   3.214 -0.4209  0.1153 -0.1216
30516W        W46650   0.346   9.807   0.854  0.1979 -0.0571 -0.1495
30517W        W46651  15.827  16.139   3.272 -0.0995  0.0136  0.1569
30518W        W46652   3.537  14.444  15.071  0.1033 -0.2193 -0.3445
30519W        W46653   2.150  12.722   3.697 -0.1675 -0.3095 -0.1933
30520W        W46654   1.860   0.409   1.344 -0.1376  0.1341 -0.0816
30521W        W46655   4.596  14.545  14.107 -0.2644  0.1581 -0.3718
30522W        W46656   1.159  10.849   1.450 -0.2018  0.0203 -0.2046
30523W        W46657  16.526  13.857   3.675 -0.0149 -0.0788 -0.0109
30524W        W46658  12.944   8.310  14.444  0.3612 -0.0071  0.0814
30525W        W46659   4.744   6.789  14.932  0.0213 -0.2217  0.0978
30526W        W46660   1.652   7.307   6.292  0.0363  0.1016  0.1048
30527W        W46661  11.242   8.793   1.640  0.2166 -0.3707 -0.0119
30528W        W46662   8.465   9.971   6.324 -0.0569  0.1320 -0.0633
30529W        W46663  13.168   9.869  12.273 -0.0647  0.2531 -0.0014
30530W        W46664   7.474   7.593  13.536  0.0947 -0.0416  0.2155
30531W        W46665  15.935  12.504   1.945  0.0317 -0.2698 -0.1479
30532W        W46666  14.372   2.968   2.886  0.1944  0.0232  0.2759
30533W        W46667  15.801  16.570  13.876  0.1140 -0.0820 -0.1234
30534W        W46668   3.155   6.783   2.021 -0.2357  0.3353  0.2966
30535W        W46669   3.501  17.622   2.061  0.0822  0.1016  0.0846
30536W        W46670  12.565  16.764   0.970  0.0250  0.1633  0.2899
30537W        W46671  14.045  13.472   4.511  0.0690 -0.0246 -0.0425
30538W        W46672  10.649  16.443  15.258 -0.2287 -0.0693  0.5653
30539W        W46673   0.951   3.408   2.537  0.0295 -0.1601 -0.2154
30540W        W46674  10.593   9.170   0.208  0.0976 -0.0205 -0.1570
30541W        W46675  15.963   1.755  16.726 -0.0956  0.0898 -0.2027
30542W        W46676  14.873  14.181  15.695 -0.2678  0.1671  0.0827
30543W        W46677  10.068   8.140  16.657  0.0517  0.2984 -0.2464
30544W        W46678   3.364   8.062   5.087 -0.2121  0.2962 -0.0050
30545W        W46679  10.633  17.517  12.407  0.0278 -0.1182 -0.2707
30546W        W46680  15.874  11.473   4.595  0.0227 -0.0438 -0.0158
30547W        W46681   0.137   0.798  15.880 -0.2431 -0.2675  0.4165
30548W        W46682   5.381   2.688  16.603 -0.0216  0.2402 -0.0645
30549W        W46683   9.833   5.819  13.244  0.0263  0.1817  0.2707
30550W        W46684  13.950  11.920  12.566  0.0011 -0.0236 -0.2236
30551W        W46685  10.439  16.296   1.071 -0.1213  0.2228  0.0397
30552W        W46686   6.641   0.620   0.923 -0.4572 -0.1923 -0.1207
30553W        W46687   3.810  12.382   4.562 -0.1002 -0.0197  0.0030
30554W        W46688  12.123   7.876   0.632  0.0974 -0.2285  0.0678
30555W        W46689  15.094   6.074   0.074 -0.1552 -0.1409  0.0525
30556W        W46690  11.473   0.132   2.641 -0.0888  0.0888 -0.0281
30557W        W46691   0.606   1.931   4.316 -0.0316 -0.0289 -0.0367
30558W        W46692   1.856   2.031   0.001  0.0687  0.3771 -0.0143
30559W        W46693   7.354   8.093   0.345  0.4142  0.1253 -0.0032
30560W        W46694   3.142  10.830  16.717  0.0847 -0.2892 -0.1292
30561W        W46695   2.001   8.000  13.249  0.2434 -0.1248 -0.1191
30562W        W46696  14.283   4.649   5.307 -0.1013  0.0790  0.3292
30563W        W46697   6.803   4.317  13.656  0.1865 -0.1733 -0.0525
30564W        W46698   7.976  13.529  12.514  0.0640  0.2234 -0.2253
30565W        W46699  11.340   7.458   0.419 -0.1645  0.0595  0.0221
30566W        W46700  16.393   6.613   4.702 -0.0950  0.0969  0.2821
30567W        W46701   7.005  10.787   2.174 -0.2703  0.0728 -0.1716
30568W        W46702   4.621  13.153  16.243 -0.1202 -0.2320  0.1104
30569W        W46703   3.190   5.032  12.824  0.1552 -0.0230  0.1784
30570W        W46704  11.917  12.238   0.158  0.0359  0.3221 -0.0517
30571W        W46705  15.059  17.556  14.053 -0.4695  0.1268  0.1819
30572W        W46706   4.903  10.525  13.485  0.0930  0.0414  0.0885
30573W        W46707   9.945  16.369  14.231  0.0901  0.0712 -0.1787
30574W        W46708   4.821  13.308   1.785  0.0686  0.0620  0.2213
30575W        W46709   6.071   5.153  13.960 -0.2352  0.0563 -0.4089
30576W        W46710  14.763  11.871  15.123  0.0347 -0.1377 -0.0424
30577W        W46711  14.689  14.596  13.638  0.0107  0.1699  0.2834
30578W        W46712  16.199  17.344   5.540 -0.0241  0.1244  0.1910
30579W        W46713   5.058   4.552  15.448  0.2011  0.0580 -0.1137
30580W        W46714   3.523   8.060   4.098 -0.1672 -0.2109 -0.2451
30581W        W46715   5.374   0.254  16.700 -0.4277  0.2876  0.0586
30582W        W46716   9.357   1.065  13.078  0.0849 -0.0072 -0.2392
30583W        W46717  13.022   1.074  13.129 -0.1086 -0.0894  0.0255
30584W        W46718   2.769  16.003  14.027  0.2602  0.0298  0.0983
30585W        W46719  14.656  15.111   5.521  0.0446 -0.1375  0.0997
30586W        W46720   9.910   1.762   0.416  0.1330 -0.0201  0.2104
30587W        W46721   8.394  13.311  14.040  0.1957  0.1320 -0.3222
30588W        W46722   9.502  15.484   2.782 -0.1805 -0.0789  0.1792
30589W        W46723   2.491  12.916  11.218 -0.2153 -0.0893 -0.3260
30590W        W46724  16.695  10.010  14.436  0.0862 -0.0643 -0.0895
30591W        W46725  12.296  17.355   3.921  0.3521 -0.1199 -0.0113
30592W        W46726   7.419   5.182   1.784  0.2023 -0.0737 -0.0868
30593W        W46727  12.067  11.766   0.026 -0.0222 -0.0403  0.0652
30594W        W46728   3.637  13.101   4.984 -0.1259 -0.3229 -0.2487
30595W        W46729  10.192   4.606  13.000 -0.1336  0.1061  0.0178
30596W        W46730  16.262   1.043   0.042 -0.3627  0.2024 -0.3298
30597W        W46731   1.563  12.731  16.384 -0.2376  0.0111 -0.2038
30598W        W46732  16.979   6.701   0.114  0.1482  0.2387  0.1966
30599W        W46733   3.855   3.293   4.114 -0.0143  0.0531  0.0049
30600W        W46734   6.533   1.488   3.002 -0.1673 -0.0622 -0.2883
30601W        W46735  11.468  14.864  14.398 -0.0409  0.2004  0.0070
30602W        W46736   4.022   7.735   3.344  0.1740 -0.1329  0.0398
30603W        W46737   2.964  16.604   6.237 -0.1692 -0.0392  0.2953
30604W        W46738  12.795   3.841  15.247 -0.0511  0.2816  0.3527
30605W        W46739   9.708   5.990  16.233  0.1844 -0.0763 -0.2097
30606W        W46740  14.055   0.228  17.016 -0.0212  0.4569 -0.1662
30607W        W46741   3.015   3.406   3.923  0.0891  0.1293 -0.0500
30608W        W46742  11.311   2.694  15.188  0.1954  0.0248 -0.2082
30609W        W46743   7.521   8.296  13.023 -0.1660  0.1312  0.0163
30610W        W46744   8.503   8.436  15.298 -0.0876 -0.0794 -0.0617
30611W        W46745   5.617   5.450   3.128  0.0120  0.0147  0.0567
30612W        W46746   0.522  14.316   5.479 -0.2020  0.0086  0.0382
30613W        W46747   8.743  10.346   3.204  0.1493  0.0652 -0.1590
30614W        W46748   7.306  14.858   3.564 -0.1578 -0.0667  0.2214
30615W        W46749   0.297   2.150   1.098 -0.4375  0.1083 -0.1453
30616W        W46750   5.122   7.586   2.731  0.0595  0.0204  0.3693
30617W        W46751  15.416   3.085  12.672 -0.1135  0.0483  0.3027
30618W        W46752  14.280   0.712  12.204 -0.0642  0.1655 -0.0678
30619W        W46753   8.340  13.421   2.192  0.0872 -0.0905 -0.0555
30620W        W46754  15.235   7.732  15.454  0.0916  0.1831 -0.0276
30621W        W46755  15.368  10.786  16.439  0.4232 -0.2386  0.1965
30622W        W46756   8.216  14.946   2.474 -0.0128  0.0632  0.2489
30623W        W46757   8.624  11.942   1.110  0.0429 -0.0568  0.3129
30624W        W46758   5.058  16.211   0.975 -0.0172  0.0403 -0.0817
30625W        W46759   9.020   0.456   3.755 -0.3166  0.0353 -0.1398
30626W        W46760  14.739   5.395   5.233  0.0645 -0.0409  0.1628
30627W        W46761  13.135  11.285  14.201  0.0923 -0.2154  0.0205
30628W        W46762   6.172   5.995   5.934 -0.1172 -0.2543 -0.5110
30629W        W46763   9.106   1.974   5.739  0.2892  0.0399 -0.0650
30630W        W46764  16.524  10.391   1.390 -0.1218 -0.0121  0.1584
30631W        W46765  16.670  13.032   1.421  0.0434 -0.0805 -0.0956
30632W        W46766   5.568   6.220  16.281  0.0592 -0.3513 -0.0410
30633W        W46767   7.274  11.857  13.943  0.1038 -0.1653 -0.1809
30634W        W46768   4.638  10.840  13.839 -0.0780  0.0194 -0.1029
30635W        W46769   6.883  17.107   0.509 -0.2158 -0.0972  0.1186
30636W        W46770   9.697  13.397  13.924 -0.3002 -0.2892 -0.1413
30637W        W46771   6.919  13.029   0.538 -0.0885  0.2019  0.3175
30638W        W46772   0.688   4.135   0.263  0.4562  0.0603  0.1339
30639W        W46773   9.939  16.051   4.257  0.1341  0.0873  0.0010
30640W        W46774  11.305   5.047   1.043  0.2104 -0.0215  0.1887
30641W        W46775   3.191   0.464  15.671  0.0359  0.1043  0.2563
30642W        W46776  11.660  10.623   2.023 -0.0367 -0.1895 -0.1206
30643W        W46777  16.507  11.039  14.770 -0.3461  0.0693  0.0973
30644W        W46778  12.413  12.175   1.354 -0.1168 -0.3862 -0.0705
30645W        W46779   6.992  13.815   0.018 -0.0499  0.1491 -0.1545
30646W        W46780  17.239  12.915   0.359  0.2587 -0.0510  0.0306
30647W        W46781  17.035   1.998   5.675  0.1049 -0.2519 -0.0469
30648W        W46782   4.013   4.720   0.626  0.0690  0.0047  0.0438
30649W        W46783  13.497  11.386  13.757 -0.1307  0.0170 -0.0911
30650W        W46784   5.872   0.412  12.637  0.0481  0.2069  0.1136
30651W        W46785  11.497  15.867   5.843  0.1792 -0.0036 -0.1062
30652W        W46786  16.098  12.769  12.236  0.0505 -0.2379 -0.0392
30653W        W46787   3.835   8.377   4.374 -0.1128  0.0583 -0.1019
30654W        W46788   7.805  13.329  15.619 -0.2090 -0.3353 -0.2577
30655W        W46789  12.696  10.351  15.422  0.0616 -0.1859 -0.1715
30656W        W46790   0.518   7.175   3.933  0.0073  0.0370  0.0696
30657W        W46791   0.470  14.352   6.447 -0.4733 -0.3078 -0.0677
30658W        W46792  15.371  13.074  15.924 -0.0796  0.0510  0.0615
30659W        W46793   6.514  14.978  12.608 -0.0275  0.0058 -0.1070
30660W        W46794  11.492  15.562   0.585 -0.2216 -0.2182  0.0934
30661W        W46795  10.673   2.023   5.792  0.2246  0.0102  0.0958
30662W        W46796   7.717  14.152   5.581  0.1352 -0.1983  0.0910
30663W        W46797   2.874  15.150   0.975 -0.0914  0.3384  0.0367
30664W        W46798   0.868   3.511   5.144 -0.2121  0.0722  0.0227
30665W        W46799   9.731   3.336  15.239  0.0684 -0.2158 -0.2633
30666W        W46800   3.061   9.997   4.623  0.2670 -0.1382  0.2455
30667W        W46801  11.627   7.869   0.695 -0.2247  0.0489  0.0608
30668W        W46802  17.231   3.315   2.621 -0.0545  0.3235 -0.2360
30669W        W46803   8.518   2.883  15.752  0.0665 -0.1051 -0.3807
30670W        W46804   0.510   6.657   3.524 -0.1120 -0.1699  0.0270
30671W        W46805  10.740  16.504   3.779  0.0406 -0.0986  0.0386
30672W        W46806  15.557   0.548   4.474 -0.2882  0.2121 -0.1147
30673W        W46807  17.322  11.390  11.738  0.2319  0.4073 -0.1452
30674W        W46808  17.303   3.940   3.248 -0.1579 -0.0513  0.0460
30675W        W46809   7.853   5.464  11.714 -0.2103 -0.2969 -0.0757
30676W        W46810   2.719  15.582   2.317  0.0722  0.3344 -0.1330
30677W        W46811   5.443   7.395   1.106 -0.1923 -0.0392  0.0466
30678W        W46812   6.678  14.639   5.024 -0.0360  0.0485  0.2020
30679W        W46813   9.420   9.638   0.617 -0.0935 -0.2531  0.2706
30680W        W46814   3.107   3.576  15.313 -0.1844  0.2728  0.1369
30681W        W46815   4.069  11.508   4.560  0.0360  0.0284  0.0901
30682W        W46816   1.225  14.259   1.261 -0.2240 -0.4131 -0.3241
30683W        W46817   4.464   1.673  12.327  0.1009 -0.1456 -0.3835
30684W        W46818   8.688   2.887   1.462 -0.1013  0.2122  0.3409
30685W        W46819   5.228   2.957   2.211  0.0022 -0.3438  0.2100
30686W        W46820  11.773   1.242   3.834 -0.1857  0.3153  0.3811
30687W        W46821   3.315   7.583  16.129 -0.1634  0.0211 -0.1106
30688W        W46822  16.099   0.495   5.933 -0.1910 -0.2275 -0.1242
30689W        W46823  13.447   2.522  15.289  0.0527  0.0359  0.2645
30690W        W46824   9.986  10.520   6.024  0.0081  0.1570  0.1849
30691W        W46825  12.097  11.841  12.164  0.0097 -0.1610 -0.0548
30692W        W46826   2.556   1.903   3.641  0.0031  0.0028 -0.0579
30693W        W46827   4.884   3.229   4.990 -0.0003 -0.0793  0.4013
30694W        W46828   6.660   8.493   0.865 -0.1415  0.1025  0.0479
30695W        W46829   4.091  16.503   4.515  0.0985 -0.1925  0.0474
30696W        W46830   0.060   9.732  15.362  0.0314  0.0360  0.0946
30697W        W46831   8.572   1.280  15.058  0.0586 -0.6428 -0.1669
30698W        W46832  16.526  11.488  16.019 -0.2198  0.2669 -0.3258
30699W        W46833   3.448  16.006  15.335  0.3067 -0.0970  0.0056
30700W        W46834   3.834   7.770  15.477  0.0155 -0.0622  0.2975
30701W        W46835   8.140  10.795   4.378 -0.1169  0.1790  0.1335
30702W        W46836   7.930   2.189  16.259  0.2237  0.1641  0.0059
30703W        W46837   1.789   7.945  16.892  0.0566  0.1864 -0.1873
30704W        W46838   9.397   1.290  15.412 -0.2314  0.0837 -0.2768
30705W        W46839  11.439   0.732  15.844 -0.0756 -0.2495  0.0809
30706W        W46840  15.959  16.466  16.843 -0.1083 -0.0089 -0.4312
30707W        W46841  16.343  14.336  12.022 -0.3253  0.2622  0.3339
30708W        W46842   9.601  12.877   3.788 -0.3900 -0.0168  0.0687
30709W        W46843   7.049   6.983  14.349  0.0659  0.0951  0.0737
30710W        W46844  15.655   0.901  15.687 -0.1700 -0.0877  0.1619
30711W        W46845   8.243   2.415  11.485 -0.1718  0.0449 -0.0347
30712W        W46846   5.621  17.033  12.756 -0.2512  0.0454  0.2682
30713W        W46847  12.237   4.792   0.707 -0.2731  0.2527  0.0351
30714W        W46848  12.428   9.221   3.871 -0.1271 -0.0845  0.0701
30715W        W46849   0.634   4.870   5.144 -0.0485 -0.1878 -0.1699
30716W        W46850   4.387   7.568   4.339  0.0982 -0.0567  0.1076
30717W        W46851  16.665  10.050  17.061 -0.1875 -0.1276 -0.0265
30718W        W46852   5.826   4.046   4.555  0.2596  0.0748 -0.1563
30719W        W46853   8.555   1.234  12.450  0.0117 -0.1451  0.0899
30720W        W46854   8.678  13.949   5.145 -0.0175  0.1305  0.1776
30721W        W46855   8.216  11.371   5.592 -0.2513  0.3331 -0.0710
30722W        W46856   1.611   0.981  15.291 -0.2111  0.0483  0.1987
30723W        W46857  13.945   0.275   0.430 -0.1939  0.2248  0.0869
30724W        W46858  15.979  11.525  17.137 -0.0986  0.1607  0.2214
30725W        W46859  13.812   2.740  11.699 -0.1211 -0.0038 -0.4082
30726W        W46860  12.096   6.534   2.968 -0.4176  0.1842 -0.0795
30727W        W46861   0.985   4.061   4.767 -0.0365 -0.1906  0.0084
30728W        W46862   0.831   0.009   1.004  0.1106 -0.0238 -0.0099
30729W        W46863  14.709  10.629   3.983 -0.0102 -0.1087 -0.0416
30730W        W46864  10.980  14.030   2.230 -0.2766 -0.1555  0.0511
30731W        W46865   7.503  13.816   0.041 -0.1753  0.0012  0.1836
30732W        W46866  15.571  10.690  15.099  0.2251 -0.0470 -0.1227
30733W        W46867   4.774   0.954   4.776  0.1200 -0.1075 -0.0729
30734W        W46868  17.373  16.165   1.415  0.1345  0.1404  0.0264
30735W        W46869  12.017  17.404  13.964 -0.1429  0.1661 -0.1139
30736W        W46870  13.804   5.273  11.984 -0.3221 -0.1106 -0.0257
30737W        W46871  10.332   9.854  12.893  0.0483  0.0419 -0.1994
30738W        W46872  13.592  13.877  14.173  0.0692 -0.0541 -0.2915
30739W        W46873  16.465  17.166   4.143  0.0182 -0.1407 -0.3468
30740W        W46874  17.276   7.310   5.461  0.0033 -0.0476 -0.0062
30741W        W46875   7.751   9.931   4.125 -0.1903 -0.0158  0.1595
30742W        W46876  11.098  17.361  12.533 -0.0631 -0.3331  0.3187
30743W        W46877   4.076  14.056  12.531  0.1208 -0.1058  0.0977
30744W        W46878   4.002  16.991   4.714  0.0758 -0.0621  0.1822
30745W        W46879   1.372   9.933  13.495  0.0590  0.1015 -0.2337
30746W        W46880   2.736   5.340   4.853  0.2597 -0.0013  0.0648
30747W        W46881   5.639   7.086  14.831  0.2971  0.0461  0.1487
30748W        W46882  12.613  12.813   3.280  0.0155 -0.2223 -0.2761
30749W        W46883   2.624   1.718   4.217  0.2159  0.0089 -0.0114
30750W        W46884   6.464  13.244   0.955 -0.0797 -0.1701 -0.1339
30751W        W46885   3.391  11.387  14.742  0.3237  0.3103  0.4008
30752W        W46886   6.828   3.546  16.849 -0.0101  0.0252 -0.0560
30753W        W46887   4.867   9.740   3.165  0.0426 -0.2835 -0.0387
30754W        W46888   3.718   9.780   5.171  0.1363 -0.3071  0.1351
30755W        W46889   6.553   9.700   0.014 -0.0180 -0.0209 -0.0530
30756W        W46890   1.906  12.844   6.016 -0.0633  0.1301 -0.1662
30757W        W46891   9.633   9.930   3.363 -0.0811 -0.1445  0.0526
30758W        W46892   7.314   0.405  16.169  0.0843  0.0177 -0.0037
30759W        W46893  12.147  13.300   1.182 -0.3377  0.0488 -0.0667
30760W        W46894  10.823   3.240   2.969  0.3719  0.1750  0.0545
30761W        W46895   4.160  10.433  14.772  0.2017  0.2874 -0.2211
30762W        W46896  11.487  13.290  12.739 -0.0095  0.0623 -0.2427
30763W        W46897  15.428  13.509  15.665 -0.0173 -0.3205  0.0612
30764W        W46898   2.247  14.285   2.082  0.2683  0.4112  0.0699
30765W        W46899  10.843  10.183   4.361 -0.2959 -0.2789  0.2188
30766W        W46900   2.302   8.868  14.987 -0.0467 -0.2675  0.2183
30767W        W46901   1.673   7.429   0.299  0.0453  0.0931 -0.0016
30768W        W46902  15.963  10.678  15.875 -0.0097 -0.1866 -0.1958
30769W        W46903  16.427  16.329   4.118  0.1143  0.0721  0.2056
30770W        W46904   8.728  17.489   5.415 -0.2232  0.2067  0.0874
30771W        W46905  15.321   9.507  15.563  0.1003  0.0377 -0.0855
30772W        W46906  17.440   7.352   2.314 -0.2203  0.2426  0.1105
30773W        W46907  14.843  13.238   5.836  0.1145  0.0285 -0.1007
30774W        W46908   6.838  14.963  13.294 -0.2009 -0.0839 -0.2878
30775W        W46909   2.160   5.379   1.829  0.0667 -0.0226  0.0282
30776W        W46910   6.150   9.753   4.262 -0.0750  0.0306  0.0461
30777W        W46911  17.534   1.844   5.279  0.2219  0.0835 -0.2078
30778W        W46912  15.096   5.208   0.712  0.0852 -0.2469 -0.1610
30779W        W46913   2.975   4.070  14.154  0.0837 -0.1860 -0.2360
30780W        W46914  15.067   8.478   5.339 -0.2510 -0.0505 -0.1050
30781W        W46915  16.942  12.008  14.418 -0.2969 -0.1430 -0.0460
30782W        W46916   0.385   9.652   1.743  0.2366  0.0955 -0.0914
30783W        W46917  11.078   1.853   1.921  0.3387  0.1840 -0.1665
30784W        W46918   8.116   3.915   5.019 -0.3343  0.1098 -0.1538
30785W        W46919   2.145   4.099   5.328  0.1638  0.0499  0.0139
30786W        W46920   9.895   4.571   4.178 -0.2137 -0.0998  0.0711
30787W        W46921  17.313   0.720   0.596 -0.1022  0.1581  0.0302
30788W        W46922   0.650   4.808  11.640 -0.3328 -0.1161 -0.0602
30789W        W46923   8.790  15.585   1.401  0.0299 -0.1697 -0.0195
30790W        W46924   7.479   8.454   3.547 -0.3762  0.2816  0.0468
30791W        W46925   0.714  12.777   1.016  0.0448 -0.2773  0.1301
30792W        W46926   3.192  15.867   2.520 -0.1206  0.2943  0.1326
30793W        W46927  11.887  16.903  12.187  0.2110  0.3624 -0.0230
30794W        W46928  10.920  17.454   2.778 -0.1267  0.1746  0.0943
30795W        W46929  14.429   4.035   2.542  0.0481 -0.0974  0.0540
30796W        W46930   5.781   2.542   0.560  0.1971  0.1408 -0.1819
30797W        W46931   3.704  16.492   2.462 -0.1158  0.0644 -0.0613
30798W        W46932   7.684   6.529  14.886 -0.3304 -0.2252  0.0842
30799W        W46933   4.729  15.618   5.067  0.0547 -0.2976  0.2484
30800W        W46934  12.708   8.133   4.133  0.1263  0.2849  0.2996
30801W        W46935   5.215  13.535   5.663  0.0468  0.2042 -0.0542
30802W        W46936  13.795  10.171  16.311  0.0621 -0.1971  0.0544
30803W        W46937   3.134  11.925  13.521 -0.0094 -0.0703 -0.0614
30804W        W46938   9.594   8.382   0.591  0.1093 -0.0235 -0.0188
30805W        W46939  16.843   2.684  16.005  0.2499  0.2816 -0.0690
30806W        W46940   1.682  10.004   3.851  0.0477  0.0882  0.0203
30807W        W46941  12.234   8.878   2.386 -0.0191  0.2018  0.0816
30808W        W46942   5.160  15.584   4.731  0.0606  0.1218  0.1712
30809W        W46943   7.828   7.752  16.021  0.0054  0.0845 -0.0246
30810W        W46944  14.187  15.009   0.813  0.1815 -0.4343 -0.1401
30811W        W46945  15.957  14.084   4.421 -0.0787 -0.1119 -0.2193
30812W        W46946   0.582   5.792   5.383  0.0905 -0.1210 -0.0963
30813W        W46947  10.004   6.374  15.061 -0.1245  0.1773 -0.1288
30814W        W46948  15.074  10.675  13.236 -0.1231  0.3044 -0.4362
30815W        W46949   2.333  15.683   4.953  0.2119  0.1423  0.0943
30816W        W46950   0.100  13.431   4.050 -0.1736 -0.2457  0.1842
30817W        W46951   4.998   6.191  12.827 -0.0313  0.2284  0.2021
30818W        W46952   5.737   0.719   0.453  0.2929 -0.0448  0.2760
30819W        W46953   1.477   0.413  15.384 -0.1014  0.1826  0.2193
30820W        W46954   2.040  10.666  17.059 -0.0087  0.1113  0.0636
30821W        W46955   6.178  14.253  16.133  0.0292 -0.0285 -0.0051
30822W        W46956  14.006   9.183   1.128 -0.0213 -0.0313 -0.1677
30823W        W46957  15.786   0.317   4.099  0.1066 -0.0906 -0.1951
30824W        W46958  17.165  13.485  15.730  0.2034  0.2871 -0.1418
30825W        W46959  15.818  12.902   0.387 -0.0840 -0.0599 -0.2840
30826W        W46960   0.572  10.724   3.710 -0.1332 -0.4089 -0.0059
30827W        W46961   9.874  14.653   5.097  0.1413 -0.1956 -0.2465
30828W        W46962   7.608   2.064  15.353 -0.1064 -0.0167 -0.1733
30829W        W46963  17.622   6.637   3.342  0.1015  0.1397 -0.0183
30830W        W46964   0.515  13.983  16.359 -0.1569 -0.0165  0.0375
30831W        W46965   5.044  11.244  16.655  0.3027  0.1653  0.2433
30832W        W46966   2.370   1.126   2.942 -0.0796 -0.4906 -0.0813
30833W        W46967   8.137  14.612  14.001  0.0984  0.1326  0.0655
30834W        W46968  15.850  12.066   2.730 -0.1092 -0.1850 -0.3121
30835W        W46969  15.204   9.807   2.354  0.2394  0.0842  0.1750
30836W        W46970   7.292   9.442  16.443 -0.1483 -0.3585  0.1891
30837W        W46971   6.811  12.719  13.371 -0.0370  0.1775  0.1891
30838W        W46972   6.287   9.623   4.882  0.2776 -0.2373 -0.0195
30839W        W46973  10.593   1.237  12.007  0.0396  0.0891 -0.0246
30840W        W46974  15.276   6.814  11.628 -0.2176  0.1070 -0.0255
30841W        W46975   0.455  14.657   4.567 -0.0336  0.0755  0.4064
30842W        W46976   8.542   8.167  16.754  0.0921  0.0034  0.1336
30843W        W46977  12.624   6.265   4.361  0.1025 -0.3003  0.2533
30844W        W46978   3.004   8.500   2.575 -0.1817  0.1225  0.1961
30845W        W46979  11.232  16.539   5.420  0.1804 -0.0390 -0.1069
30846W        W46980  14.918  13.651  14.800  0.1157  0.0535  0.3044
30847W        W46981  15.761  10.468   2.602  0.0693 -0.0256  0.1772
30848W        W46982  16.146   6.966   0.802  0.0349  0.1979 -0.1363
30849W        W46983  10.990   2.816   2.454 -0.2066  0.0353  0.1833
30850W        W46984   1.565  12.100   2.454  0.0999  0.0134 -0.0697
30851W        W46985   7.134  13.276  12.574  0.1575  0.1678 -0.1830
30852W        W46986   7.844   3.862   4.460 -0.2212 -0.1826  0.1053
30853W        W46987  11.737   5.753  14.490  0.2312 -0.0405  0.2807
30854W        W46988   9.268   9.078  15.358  0.2435 -0.1126 -0.0297
30855W        W46989  13.427  15.061   1.171 -0.0631  0.1276  0.0611
30856W        W46990  11.609  12.368   0.947  0.1029 -0.0357 -0.0672
30857W        W46991   6.429  17.395  13.678 -0.0648 -0.1898  0.0226
30858W        W46992   1.821  11.594   3.257  0.0359  0.2348  0.0090
30859W        W46993  16.929  12.784   0.856 -0.1355 -0.2455 -0.0822
30860W        W46994   2.419  16.232  13.671 -0.0109  0.1792 -0.3060
30861W        W46995   6.978  10.208  12.993 -0.0967  0.0887 -0.1011
30862W        W46996  13.655  10.419   2.247  0.2527  0.2278  0.2748
30863W        W46997   5.522   1.261  13.531 -0.0863  0.1912 -0.0383
30864W        W46998  11.264  16.740   0.669 -0.3214  0.2565  0.3285
30865W        W46999   3.382  11.473   3.811 -0.1459  0.0774 -0.0839
30866W        W47000   2.228   3.045  14.388  0.2358 -0.1016 -0.3071
30867W        W47001  11.430  11.388   3.756 -0.0522  0.1263 -0.0708
30868W        W47002   8.086  17.025   2.124  0.0818  0.2688  0.1175
30869W        W47003   2.117  12.873   0.356 -0.0286  0.0790 -0.1374
30870W        W47004   0.946   2.037  14.754  0.1032  0.0639  0.0406
30871W        W47005  15.824   4.543   3.581  0.3714  0.2457  0.1953
30872W        W47006   2.620  11.506  17.080  0.2445  0.1543 -0.2649
30873W        W47007   4.119   9.070   1.055  0.0294  0.1050  0.0932
30874W        W47008   2.921   1.399  12.438  0.2724 -0.1801 -0.2499
30875W        W47009   8.562   6.061   6.451  0.3797  0.3679  0.2644
30876W        W47010   3.071  17.662   4.362  0.0834 -0.1257 -0.0313
30877W        W47011  12.503   0.408   0.322 -0.0982 -0.1742 -0.1183
30878W        W47012   0.327  15.474   0.661  0.0324 -0.1216  0.1307
30879W        W47013   4.491   0.494   1.565  0.0203 -0.2313 -0.0206
30880W        W47014   7.488  10.783   0.629  0.0313 -0.1862 -0.3488
30881W        W47015  16.533   0.426  16.111  0.1622 -0.0197 -0.0242
30882W        W47016   8.164   6.075  12.719  0.1364  0.1490  0.0621
30883W        W47017   4.387   5.056  16.475 -0.1783 -0.0605  0.1577
30884W        W47018   2.828   3.976  16.498  0.1657  0.1421 -0.3921
30885W        W47019  10.849   9.506   3.594  0.3143 -0.2756 -0.2346
30886W        W47020  13.903   4.384  12.350 -0.1608 -0.0218 -0.1583
30887W        W47021  11.245  13.472  16.393 -0.2348  0.1210  0.0996
30888W        W47022   7.232   6.107  15.214 -0.1055 -0.1005  0.2376
30889W        W47023  17.193  17.466   6.425 -0.0034  0.1370 -0.1068
30890W        W47024   5.036  14.280  13.321 -0.1600 -0.3117  0.2750
30891W        W47025   1.066  11.194   2.823 -0.1528 -0.2811  0.0207
30892W        W47026   1.211  16.944   5.291  0.2631 -0.1044 -0.0498
30893W        W47027  16.374   8.301  12.688  0.0596 -0.0857  0.2589
30894W        W47028   3.628   2.736  13.989 -0.3560  0.1061 -0.1313
30895W        W47029   6.418  17.625  14.937 -0.0999  0.0001  0.0856
30896W        W47030  16.923   2.835   2.193 -0.0504 -0.4829  0.1005
30897W        W47031   2.318   4.965  14.086  0.1658 -0.0768 -0.0332
30898W        W47032   2.187   5.163   2.799  0.2838  0.0195  0.0641
30899W        W47033   3.656   9.025  11.157 -0.1952  0.1538  0.4442
30900W        W47034  11.043  13.447   1.458 -0.0405 -0.1553  0.3155
30901W        W47035   9.721  17.047  11.832  0.0122  0.0068  0.1287
30902W        W47036   5.148   3.164  14.900 -0.2461  0.0335  0.1245
30903W        W47037   1.108  10.269  14.162 -0.2824 -0.0512 -0.0367
30904W        W47038  17.300   8.488   5.299  0.2417 -0.1570  0.1569
30905W        W47039   4.545  13.958   5.063 -0.1449 -0.2337  0.0336
30906W        W47040   3.127  14.328  12.785 -0.2694 -0.1282  0.0740
30907W        W47041   2.542  17.283  15.264 -0.2454 -0.2412 -0.0897
30908W        W47042   3.698   8.992   3.647 -0.0914  0.4539 -0.1775
30909W        W47043  12.868   2.117   2.635  0.1691 -0.1094 -0.2380
30910W        W47044  13.262  13.882  13.176  0.0627  0.5510  0.0325
30911W        W47045  10.136   2.564  12.526 -0.2820  0.1723  0.2080
30912W        W47046  10.227   4.092   1.865  0.0762  0.2899  0.0126
30913W        W47047   7.038  15.920  16.167 -0.2327  0.1006 -0.0999
30914W        W47048   8.870   1.971   2.755 -0.0738 -0.0101 -0.0391
30915W        W47049   2.530   5.171   2.229 -0.5174 -0.3576 -0.1179
30916W        W47050   9.120   5.416   1.493 -0.1056  0.2735  0.1841
30917W        W47051  17.202  15.607  13.631  0.0383  0.0033 -0.2595
30918W        W47052  12.166  14.472   0.059  0.1422 -0.0414 -0.0663
30919W        W47053   8.176   3.761   3.636 -0.2720 -0.3390 -0.0636
30920W        W47054   6.252  12.781   3.039 -0.0249 -0.0322  0.1267
30921W        W47055  14.033   5.847   5.083  0.0151  0.2606  0.0149
30922W        W47056  12.760  12.603  15.458  0.1060  0.0175  0.0181
30923W        W47057   4.278   4.550  14.754  0.1740  0.0047  0.1421
30924W        W47058  10.045   0.762   6.170 -0.1991  0.2053 -0.0696
30925W        W47059   8.452  15.363  15.819 -0.0634 -0.2532  0.0130
30926W        W47060   4.709   5.396   4.609  0.1086  0.2232  0.0625
30927W        W47061   8.030   9.597   3.770  0.1050  0.0337  0.0573
30928W        W47062   3.336   8.242  13.499  0.1112  0.1794 -0.0619
30929W        W47063  14.635  16.769   0.175 -0.3852 -0.0270 -0.0230
30930W        W47064  12.694  10.829   5.057  0.0691 -0.1174  0.3822
30931W        W47065   0.176   7.539  15.805  0.0611 -0.0342 -0.0394
30932W        W47066   3.133  14.429  15.633  0.0958  0.1293 -0.4224
30933W        W47067   9.268   8.168  12.495 -0.2012  0.0942  0.0577
30934W        W47068  11.481   0.053   3.450 -0.1311  0.0508 -0.1872
30935W        W47069  14.220   0.621   0.205  0.1880 -0.2315 -0.0412
30936W        W47070  12.722   8.113  13.203  0.3302  0.0104 -0.0218
30937W        W47071  11.522  11.878   0.915 -0.2807  0.2542  0.3620
30938W        W47072   1.813  10.336   1.214 -0.1273  0.0741 -0.1123
30939W        W47073  10.444  15.638  13.712 -0.1158 -0.2346 -0.0907
30940W        W47074   2.812   5.066  15.509 -0.0970 -0.0595 -0.2756
30941W        W47075  10.706   0.566  14.589  0.0596  0.2481  0.0914
30942W        W47076   7.660   5.492  16.768  0.0324  0.0072 -0.5048
30943W        W47077   7.687   0.754  16.192  0.1768 -0.0298  0.3286
30944W        W47078   3.808  17.649   2.452  0.4048  0.0904  0.2175
30945W        W47079  12.060  16.852  15.221  0.1564  0.3677 -0.1511
30946W        W47080  17.646  12.589  13.564 -0.2422 -0.1714 -0.1401
30947W        W47081   0.569  10.144  14.358  0.2785  0.0819  0.0052
30948W        W47082   0.467   0.802   2.555  0.2066  0.0763  0.0430
30949W        W47083   0.406   9.044  14.188 -0.3449  0.0444  0.0895
30950W        W47084   7.617   6.032  14.829 -0.0016 -0.0116  0.1485
30951W        W47085  15.681   7.673   0.212 -0.0512 -0.0692 -0.2884
30952W        W47086  12.782  15.999   0.820  0.0002  0.1119  0.3416
30953W        W47087  11.827   3.529   2.077 -0.0299  0.0266 -0.2071
30954W        W47088   3.892   9.339   0.586 -0.0845  0.0570  0.0848
30955W        W47089   1.033   4.183  15.361 -0.1055  0.1193  0.1638
30956W        W47090   3.135   1.645   5.022  0.1974 -0.0280  0.1324
30957W        W47091   1.271  11.603  15.023 -0.2672  0.0602  0.0551
30958W        W47092   9.197  10.055  16.485  0.1019  0.1956  0.2179
30959W        W47093  10.963   7.186   3.689  0.1815 -0.3243  0.4725
30960W        W47094  15.775  13.671  15.980  0.1865 -0.1990  0.0957
30961W        W47095   1.097   0.504  16.658  0.1218  0.0838  0.3198
30962W        W47096   6.678   1.049  16.379 -0.2829 -0.1204  0.1258
30963W        W47097  12.174   3.581   1.630 -0.0477 -0.0495  0.0172
30964W        W47098   6.284  13.485  17.004  0.0999  0.0142 -0.0237
30965W        W47099   3.024  16.203  16.129  0.1167  0.1976  0.0882
30966W        W47100  15.495   2.282   5.450  0.0397 -0.2459  0.2932
30967W        W47101   0.216  11.090   3.503 -0.1792  0.4125 -0.1090
30968W        W47102   2.674   2.659  14.251 -0.1003 -0.0139 -0.0988
30969W        W47103   1.811  17.471  16.491 -0.5327  0.0873  0.1241
30970W        W47104   9.314   0.327  12.158  0.0933  0.0040  0.0808
30971W        W47105  10.646   8.717  14.657  0.0159  0.2056 -0.0124
30972W        W47106  10.812   6.049   1.219  0.5440  0.0484  0.2282
30973W        W47107   4.100   7.701  13.605  0.0457  0.0056  0.0684
30974W        W47108   5.776  10.994  12.120 -0.0269 -0.0616 -0.0402
30975W        W47109  10.852   0.790   4.989  0.2205  0.4552  0.0260
30976W        W47110  11.457  10.092   4.084 -0.0773  0.1194 -0.0637
30977W        W47111   1.219   4.229   6.035 -0.1540  0.0382 -0.0397
30978W        W47112  13.568  13.065   2.489  0.2381  0.1451 -0.1189
30979W        W47113  12.612   1.283  13.285  0.2164 -0.0462  0.0427
30980W        W47114  13.081   9.524  11.746 -0.2389  0.0989  0.0620
30981W        W47115   3.454   1.216   2.520  0.0673 -0.1877  0.0025
30982W        W47116  16.067   6.084  13.298 -0.1375 -0.0921  0.0947
30983W        W47117   2.222   0.055   5.593 -0.0727  0.1247  0.2416
30984W        W47118   5.167   0.375   0.489  0.0632  0.1315  0.2009
30985W        W47119  15.007  12.677  13.008 -0.1242  0.2017  0.2146
30986W        W47120   8.554   9.668  12.645 -0.1479  0.0968 -0.0207
30987W        W47121  12.620   3.060   0.515  0.0927 -0.2448  0.0640
30988W        W47122  14.426   7.096   0.661 -0.0195  0.0050 -0.0705
30989W        W47123   9.122   7.361   1.217  0.0874 -0.2371  0.0742
30990W        W47124  14.583  13.828  14.421 -0.0283 -0.2840 -0.4654
30991W        W47125  16.912  13.387  15.177 -0.1983  0.0224  0.3165
30992W        W47126   5.883  14.814   4.375  0.0103 -0.1722  0.1072
30993W        W47127   2.377   0.544  15.110 -0.1504  0.1738 -0.2535
30994W        W47128  11.914  13.634   2.228  0.0727 -0.0346  0.1410
30995W        W47129   5.073  17.137   4.115  0.1777 -0.0992 -0.1076
30996W        W47130   7.222  12.789   0.905 -0.1518  0.1303 -0.1154
30997W        W47131   5.049  16.917  14.011 -0.0077  0.1269 -0.2310
30998W        W47132  13.068   5.172   2.826  0.1752 -0.0454  0.1884
30999W        W47133   0.056   3.721  14.452  0.1179  0.2156  0.1535
31000W        W47134  12.072   9.889  16.892 -0.2612 -0.0414  0.2901
31001W        W47135   4.068  17.414  14.868 -0.2554 -0.0604 -0.0391
31002W        W47136   6.324  12.210   4.024  0.1068 -0.0410 -0.1397
31003W        W47137   3.580   2.037  14.786  0.0698 -0.2931  0.2288
31004W        W47138  10.002  11.946  16.701 -0.1521  0.0998  0.1997
31005W        W47139   2.551   7.107  12.765 -0.0207  0.0126  0.2822
31006W        W47140  12.710  15.549   5.177 -0.1785 -0.0444 -0.0572
31007W        W47141  15.912  14.165  12.805 -0.4368  0.2008 -0.0274
31008W        W47142  12.879   7.157   5.822  0.1202 -0.1674  0.1142
31009W        W47143   3.106   9.350  16.977 -0.0037  0.2194  0.0616
31010W        W47144   6.144   1.680  11.981 -0.0613 -0.1144 -0.4137
31011W        W47145  12.778  11.029  17.091 -0.1279 -0.1371 -0.1414
31012W        W47146  15.795   1.657  13.699  0.1824  0.2414 -0.0449
31013W        W47147  16.505  15.029  15.077 -0.3077 -0.4761  0.1001
31014W        W47148  16.469  11.941  14.249  0.1392 -0.0692 -0.2400
31015W        W47149   0.860   7.851  17.107  0.0527  0.0372  0.1542
31016W        W47150  15.937  10.852  16.396  0.2586 -0.1334  0.2954
31017W        W47151  12.708  11.117   3.569  0.1029 -0.0344  0.3206
31018W        W47152   1.684  11.597   0.046 -0.0158  0.0222  0.0355
31019W        W47153   8.598  15.301  16.477 -0.1074  0.0090 -0.1558
31020W        W47154   0.686   7.554   5.794 -0.2668 -0.2401  0.0874
31021W        W47155  15.502   7.061   4.368 -0.1435 -0.1062  0.1440
31022W        W47156  14.548  12.701  17.162 -0.0667  0.0958 -0.0485
31023W        W47157   2.964  15.921   1.182  0.1233  0.1968 -0.2625
31024W        W47158  15.989  10.004   0.070  0.2358 -0.1409 -0.1471
31025W        W47159   9.600  13.652   2.795  0.1843  0.0350  0.0811
31026W        W47160   6.401   2.469   4.722 -0.1114 -0.0754  0.1633
31027W        W47161   1.358   1.336   4.232  0.4326 -0.3319 -0.3673
31028W        W47162   4.319  14.469  13.650  0.1981  0.0264 -0.2165
31029W        W47163   6.886   9.610  15.067  0.2762 -0.1355  0.0388
31030W        W47164   4.252  17.010  14.606  0.2170  0.2381  0.0240
31031W        W47165  15.992  15.477  14.939  0.1266 -0.2480 -0.0931
31032W        W47166   4.752   7.395   5.277 -0.2027  0.2852 -0.2879
31033W        W47167  13.474   1.173  12.886  0.0668 -0.0006  0.1039
31034W        W47168  14.038  13.777  14.499 -0.3490  0.0311 -0.0543
31035W        W47169   9.345   4.307   0.546 -0.0825  0.2270  0.3722
31036W        W47170  16.409  12.841   1.846  0.2656 -0.1665 -0.1143
31037W        W47171   3.959   0.291   4.959  0.0316  0.0920 -0.2198
31038W        W47172  11.824  17.316   0.966  0.1203  0.2125 -0.1449
31039W        W47173  14.456   1.594   4.999 -0.2617 -0.3546  0.0922
31040W        W47174  13.066  10.619  16.301 -0.0898 -0.0350 -0.3071
31041W        W47175   2.495   8.823   1.816  0.2255 -0.2185 -0.0033
31042W        W47176   2.051   0.219   6.308 -0.1983 -0.3138  0.0694
31043W        W47177   5.044   5.706   2.970 -0.0168 -0.2621  0.1509
31044W        W47178  12.791  10.911  14.044  0.1511  0.0800 -0.0730
31045W        W47179   8.222  12.131  15.558  0.0080  0.2621  0.1842
31046W        W47180   1.348  10.479   4.231  0.3179 -0.0683 -0.0870
31047W        W47181   5.582   8.179  12.369 -0.1360  0.0899  0.4054
31048W        W47182   9.132  10.099   4.043  0.2382  0.1503  0.1149
31049W        W47183   7.792  10.696  14.282 -0.1053  0.2015  0.0127
31050W        W47184  14.037   7.738   0.205 -0.2905 -0.2088  0.1177
31051W        W47185   3.943   6.961  13.977 -0.1898  0.4478  0.0592
31052W        W47186   3.786   8.702   6.424 -0.2490  0.0986  0.0379
31053W        W47187  14.591   2.922  12.896  0.0495  0.1873  0.2139
31054W        W47188  15.564   7.928   2.846  0.0504  0.1580  0.1020
31055W        W47189   9.711   6.835  15.097  0.1726  0.0966  0.0655
31056W        W47190  15.027  10.584  13.978 -0.1341  0.0519  0.0093
31057W        W47191   9.895   0.391   4.118  0.0165  0.2247  0.4209
31058W        W47192  12.541   3.933  11.071 -0.1623  0.0483 -0.1240
31059W        W47193  17.065  16.203   4.761 -0.2401 -0.5388 -0.1102
31060W        W47194   6.061   9.016  15.865 -0.1378 -0.1540 -0.0622
31061W        W47195   0.830  16.829   0.458 -0.0865  0.1197  0.1414
31062W        W47196   4.806   1.432  15.443 -0.0076  0.2848  0.1608
31063W        W47197   3.707   0.159   0.285 -0.1992 -0.0291 -0.2233
31064W        W47198  15.799   5.216  14.855 -0.0729 -0.1730  0.0301
31065W        W47199  12.953   4.718  16.759 -0.0421  0.2548  0.0617
31066W        W47200  12.338   0.633  15.976 -0.1752  0.3367  0.1183
31067W        W47201   0.933   7.584  14.104 -0.0627  0.2303  0.0547
31068W        W47202   3.945   8.445   2.832  0.2449 -0.0216  0.0567
31069W        W47203   2.992   7.996  12.358 -0.1972 -0.5942  0.0141
31070W        W47204   4.052   7.299   1.378  0.0191 -0.1240  0.2998
31071W        W47205  10.485  14.725  12.600 -0.0983 -0.2571 -0.0455
31072W        W47206  14.125   9.599   3.977  0.1965 -0.1740  0.2722
31073W        W47207   5.628   5.640  14.498  0.2637  0.1854 -0.1280
31074W        W47208   2.637   3.791   4.000  0.0213  0.2182 -0.1216
31075W        W47209  10.891  15.895  13.901 -0.1478  0.1005  0.0150
31076W        W47210   4.179   3.125   1.866 -0.0023  0.1451  0.0725
31077W        W47211   8.306  16.609   3.024  0.0621 -0.0782  0.0099
31078W        W47212  13.293   2.085   1.452  0.0248 -0.3164 -0.3226
31079W        W47213  11.593   6.971  15.580 -0.1358  0.2684 -0.2007
31080W        W47214   7.457   8.917   1.689 -0.0442 -0.0915 -0.0739
31081W        W47215  13.538   3.761  14.483 -0.0661 -0.1949  0.0828
31082W        W47216  16.448   5.849  16.078 -0.3223 -0.0894  0.0376
31083W        W47217  12.397   2.769   0.024 -0.2485 -0.3772 -0.1408
31084W        W47218  11.925   5.252   4.237  0.0353 -0.0746 -0.1304
31085W        W47219  15.004   6.943  13.555 -0.2551  0.1692 -0.1353
31086W        W47220   4.142   8.075  16.338  0.0688 -0.1751 -0.0409
31087W        W47221  14.945   7.621  15.827 -0.0005 -0.0175  0.0550
31088W        W47222  11.830   2.209   4.794 -0.0151  0.1233 -0.0907
31089W        W47223  13.031  15.742   1.284 -0.0534 -0.0500 -0.1394
31090W        W47224   8.673   1.307   4.070 -0.2422  0.2893 -0.2299
31091W        W47225   7.113  17.288   3.248 -0.0143 -0.2410 -0.1529
31092W        W47226   0.728   4.269   2.066 -0.2850  0.0640  0.1799
31093W        W47227   1.592   4.544  12.007  0.0574  0.0088  0.2677
31094W        W47228   8.901  15.541  12.020 -0.5449 -0.1013 -0.2837
31095W        W47229   4.204   9.763   4.744  0.0278 -0.0538 -0.0560
31096W        W47230   5.410   1.029  14.581 -0.3393 -0.0079  0.0626
31097W        W47231   5.044  15.110   1.397 -0.2047 -0.2948 -0.2866
31098W        W47232  11.535   9.474   1.060  0.0399 -0.3489 -0.0682
31099W        W47233   8.444  14.447  11.871 -0.0577  0.0301  0.1279
31100W        W47234  12.255   8.192  15.568 -0.2473 -0.2912 -0.0275
31101W        W47235  15.723   6.837   3.503  0.0431  0.4218  0.0760
31102W        W47236   4.140  11.195   2.038 -0.0427  0.0631 -0.0126
31103W        W47237  15.197   7.667   4.370  0.0366  0.0927 -0.2793
31104W        W47238  12.015   8.708   0.074 -0.1588  0.4035 -0.1107
31105W        W47239  16.209   0.068  14.638  0.0839 -0.1046  0.1640
31106W        W47240  11.322  15.842   4.073  0.1038 -0.2678 -0.1070
31107W        W47241  11.906   4.141   1.749 -0.1575 -0.4947 -0.3042
31108W        W47242   9.029   2.314   0.472 -0.3033  0.2839 -0.2102
31109W        W47243   7.177   8.970  15.648 -0.0741  0.4405  0.1002
31110W        W47244   4.628  15.769   5.537  0.0523  0.3227  0.0741
31111W        W47245  16.504   1.713   2.640  0.0517 -0.0447 -0.1296
31112W        W47246   2.094   9.901  11.478 -0.0304 -0.2948 -0.0396
31113W        W47247   8.073  11.296   3.616  0.0110 -0.0456  0.0411
31114W        W47248  13.765   2.425  12.115  0.4556  0.1236  0.0554
31115W        W47249  13.739   1.336   3.948 -0.2068 -0.1758 -0.0434
31116W        W47250  12.062   9.478  14.666  0.0577  0.0600 -0.0806
31117W        W47251   1.612   7.671   5.951  0.2420  0.2247  0.1579
31118W        W47252   5.816   2.552  12.070 -0.1321  0.1992  0.1966
31119W        W47253  17.459  15.474   1.623 -0.0799  0.1466 -0.0975
31120W        W47254   7.979  15.122  14.954  0.0523 -0.3318 -0.2530
31121W        W47255  15.658   4.969  15.951 -0.2411 -0.0628  0.1178
31122W        W47256   7.217   8.183   2.609 -0.1499 -0.2370 -0.3405
31123W        W47257   4.868   5.546   0.895  0.1509  0.0254 -0.4342
31124W        W47258   9.329  13.264  14.315  0.0187 -0.0583 -0.0729
31125W        W47259  10.672  15.673   2.079 -0.0303 -0.1930 -0.2203
31126W        W47260   3.415   9.783  12.285  0.2222  0.1333 -0.2263
31127W        W47261   7.943   8.882   5.573 -0.1509 -0.1353 -0.0528
31128W        W47262   1.569   9.941   3.378  0.0754  0.3027  0.0461
31129W        W47263   5.255   0.279   1.925  0.0029 -0.0844  0.0554
31130W        W47264  13.920  13.226  15.370  0.0165 -0.2286 -0.0815
31131W        W47265   7.923   2.498  12.126  0.1963 -0.2512  0.0055
31132W        W47266  10.147  11.821   5.069 -0.2178 -0.0568  0.0553
31133W        W47267   6.985  15.392  14.526 -0.2629  0.0276  0.4152
31134W        W47268   2.601  14.816   4.416  0.2064  0.2934 -0.1104
31135W        W47269   0.997   3.973  11.596 -0.2552  0.0550 -0.1162
31136W        W47270   2.671   2.887  14.828 -0.0410 -0.1239  0.0224
31137W        W47271   5.026  16.287  15.714 -0.0599  0.2724  0.0153
31138W        W47272   3.166  11.777  14.521 -0.0606 -0.0035 -0.0324
31139W        W47273   3.835   4.764   1.323 -0.1397  0.0694 -0.3985
31140W        W47274  12.883  14.501   4.632  0.1251  0.1514 -0.2379
31141W        W47275  15.490   7.348  16.450  0.2424  0.1623 -0.0846
31142W        W47276   8.824   1.789   3.239  0.4660 -0.0678  0.2895
31143W        W47277   9.189   5.947   4.725  0.1828  0.0052 -0.1268
31144W        W47278   7.438  13.681  15.669  0.0282  0.0357 -0.1095
31145W        W47279   4.830  14.579   2.074 -0.1707 -0.0011 -0.1515
31146W        W47280   0.339   8.494   1.112 -0.1421  0.1316 -0.0170
31147W        W47281   2.190  16.480   4.565  0.1297  0.2491 -0.1351
31148W        W47282   5.867  17.641   5.768  0.0486  0.1969 -0.0050
31149W        W47283  14.709  16.906   2.103  0.0860 -0.1132 -0.2587
31150W        W47284  10.404   8.287   0.218 -0.0581  0.1237 -0.3669
31151W        W47285  15.084  17.553  13.076 -0.1669 -0.1229 -0.2083
31152W        W47286   0.407  14.986   4.988  0.0814  0.2798  0.0886
31153W        W47287   6.238  11.635  16.558 -0.1235  0.2396 -0.1100
31154W        W47288   0.030   2.225  12.283 -0.0159 -0.0294  0.4514
31155W        W47289   0.157   2.807  16.306 -0.1165  0.1423 -0.0261
31156W        W47290   4.553   7.617  14.353 -0.0281  0.3228  0.1891
31157W        W47291   1.530   9.948   2.424 -0.1047 -0.2025 -0.2776
31158W        W47292   9.444   0.942   4.764  0.0877  0.3703 -0.2486
31159W        W47293  15.411   3.692   5.772  0.0709 -0.1491  0.0769
31160W        W47294   6.298  17.062   2.843  0.0022  0.2307 -0.0377
31161W        W47295  15.040  17.111  12.806 -0.0995 -0.1217  0.0088
31162W        W47296  13.909   9.382   3.569 -0.0740 -0.2539 -0.0124
31163W        W47297  13.343   3.181  15.722 -0.2554 -0.0488 -0.0109
31164W        W47298  10.455   5.138  12.180 -0.1141 -0.2561 -0.1282
31165W        W47299   9.462   5.237  16.816  0.0988 -0.0361  0.4312
31166W        W47300   6.394   6.236  15.301 -0.2030 -0.2111  0.2651
31167W        W47301   1.888   3.019   2.693 -0.0201  0.1274  0.0938
31168W        W47302  17.031  10.720  11.991  0.3164  0.1042  0.0702
31169W        W47303   8.311   7.495  14.211 -0.3488 -0.0901 -0.2409
31170W        W47304   6.392  14.659  17.030  0.0778 -0.1439  0.1972
31171W        W47305  12.464  13.237   4.534 -0.2140  0.2112 -0.0256
31172W        W47306   5.072  14.296   1.699  0.3277  0.0375 -0.1576
31173W        W47307  16.482   8.824   1.788  0.1107 -0.0522 -0.0557
31174W        W47308   8.866   6.438   1.429 -0.0217  0.0878  0.0091
31175W        W47309  13.928   3.493   0.374 -0.2527  0.2410 -0.1013
31176W        W47310   0.485  15.812   0.083  0.1535 -0.0028  0.1313
31177W        W47311  14.428   3.891  15.940 -0.2983 -0.2345 -0.2868
31178W        W47312  13.138  13.761   5.034 -0.3192 -0.2712  0.1916
31179W        W47313  12.207   6.244   1.080  0.2015  0.1607 -0.0872
31180W        W47314   8.495  15.304  14.830  0.1188  0.3028 -0.2584
31181W        W47315  15.530   4.886   5.046  0.1961 -0.1886  0.0768
31182W        W47316  10.002   3.429   3.031  0.2468 -0.0603 -0.0187
31183W        W47317   9.395  11.216  14.392  0.0654  0.0096  0.1269
31184W        W47318   1.050  16.308   5.044 -0.4668 -0.2063 -0.0475
31185W        W47319  16.323   3.971   3.006 -0.0561 -0.2019  0.1229
31186W        W47320  12.937  15.016   5.917 -0.1241  0.0620 -0.0895
31187W        W47321   9.322   7.476   0.710 -0.1088 -0.1280 -0.1548
31188W        W47322  17.439   7.887  13.190 -0.2825  0.1751  0.1401
31189W        W47323   7.619   6.663   5.511 -0.1381 -0.2207  0.1596
31190W        W47324   0.339  14.238   1.467 -0.0161  0.1868 -0.1519
31191W        W47325  11.577  13.532   0.431 -0.0081  0.0728 -0.0951
31192W        W47326  14.865   4.675   1.402 -0.1647 -0.1046  0.0835
31193W        W47327  14.136   1.830  14.469 -0.2854 -0.0382 -0.2178
31194W        W47328   3.264   8.055   0.658  0.1813 -0.4760  0.3479
31195W        W47329   2.178  12.988   5.093 -0.1199  0.0963 -0.1863
31196W        W47330   8.806   5.970  12.806 -0.0556  0.0121  0.4774
31197W        W47331  14.105   2.370   3.554 -0.2287 -0.0156  0.1248
31198W        W47332  15.912  11.847   1.867  0.0697 -0.2685  0.0845
31199W        W47333  14.675   0.352   6.583  0.1209 -0.2019  0.2548
31200W        W47334   9.183   6.779   0.546 -0.0543 -0.0488  0.0720
31201W        W47335   8.140   4.053  16.624  0.2182  0.0144  0.1472
31202W        W47336   9.132  12.046  16.847  0.0239  0.3416  0.0137
31203W        W47337  11.105  14.315  13.600  0.2992 -0.0620  0.1010
31204W        W47338  11.508  15.353  13.416 -0.0299 -0.1239  0.0652
31205W        W47339   4.291  11.941   5.416  0.1408  0.0262 -0.3347
31206W        W47340   3.599   9.586   2.828 -0.2999 -0.3260 -0.3136
31207W        W47341   6.225  13.443   2.150  0.0529 -0.0283  0.0979
31208W        W47342   1.067  10.683   0.839 -0.1047  0.1611 -0.2278
31209W        W47343  12.602  17.092   2.743  0.0436 -0.1922  0.0693
31210W        W47344   9.937   9.697  16.388 -0.0360  0.2045  0.0621
31211W        W47345   5.995   9.609  15.938 -0.0102  0.0589 -0.1621
31212W        W47346  14.431   1.365   4.509  0.1083  0.2360  0.2657
31213W        W47347   5.925   8.529  14.654  0.2639  0.3095 -0.1643
31214W        W47348  17.320  17.587   3.829  0.0988 -0.2748  0.3168
31215W        W47349   5.311   6.031  15.921  0.1999  0.0322 -0.4196
31216W        W47350  10.436  14.166   0.179  0.0052 -0.3041  0.0186
31217W        W47351  15.317  11.472   1.906  0.1009 -0.0368  0.0488
31218W        W47352  13.310   7.015  14.618 -0.1014  0.2378 -0.2171
31219W        W47353  15.984   4.051   5.116  0.2046 -0.0307  0.1765
31220W        W47354   0.274   0.536   4.794 -0.0385 -0.0071  0.1262
31221W        W47355  14.119  13.941  16.156 -0.2350 -0.0928  0.1008
31222W        W47356  15.150  16.278  15.612 -0.0052 -0.0060  0.3366
31223W        W47357   4.636   1.619  14.126  0.1389  0.0490 -0.2247
31224W        W47358  14.213   6.767  16.003 -0.1179  0.0108  0.1522
31225W        W47359   8.466   5.310   2.669  0.0615 -0.1409 -0.4528
31226W        W47360  14.597   4.744  14.416 -0.3899  0.0113  0.2395
31227W        W47361   1.674   9.835  16.611 -0.0468  0.0033 -0.0495
31228W        W47362  11.552  15.461  16.547 -0.2472  0.0697  0.4208
31229W        W47363  12.608   7.913  13.714  0.1064 -0.0804 -0.1117
31230W        W47364  12.372  16.350   0.070  0.0203 -0.1600  0.0592
31231W        W47365   4.011  17.561  16.178  0.2236  0.0981  0.2131
31232W        W47366   9.450   6.292   1.369 -0.1972  0.4019  0.0099
31233W        W47367   6.353   2.327  17.028  0.2028  0.0335 -0.0493
31234W        W47368   1.644   0.638   0.668  0.2109  0.3177  0.1671
31235W        W47369  10.282   4.102  12.802 -0.1355 -0.0942 -0.1135
31236W        W47370   0.359  13.281  12.477  0.0912  0.2124 -0.2611
31237W        W47371   9.051   8.420  15.488  0.2644 -0.2600  0.3085
31238W        W47372  16.081  13.824  16.791 -0.0948  0.2075 -0.1414
31239W        W47373  12.055   1.361  12.553 -0.1464 -0.1946 -0.1346
31240W        W47374   3.131  14.893   0.163 -0.0521 -0.0974  0.1144
31241W        W47375   4.276  15.454   5.343 -0.2815 -0.0231 -0.1199
31242W        W47376   8.935  10.727  13.871  0.0148 -0.2013  0.0226
31243W        W47377   6.608  16.619   5.167  0.2151 -0.2148 -0.1862
31244W        W47378  13.316   4.412   5.836 -0.0047 -0.3930  0.0180
31245W        W47379   5.245   8.694   0.613 -0.2342  0.2282 -0.1029
31246W        W47380   6.357  13.528   0.535  0.0775 -0.1563  0.1343
31247W        W47381  16.804  13.541   5.246  0.0764  0.0637  0.2070
31248W        W47382   3.976  10.184  11.778 -0.1688 -0.1945 -0.1358
31249W        W47383   1.572   7.867   1.234  0.3997 -0.0765 -0.0683
31250W        W47384   3.398  14.542   1.403 -0.1787 -0.0791  0.2417
31251W        W47385   4.113   5.633  12.141  0.1575  0.0250 -0.1020
31252W        W47386  10.972   8.280  14.997 -0.0181 -0.0845 -0.0048
31253W        W47387   3.865  12.387   3.881 -0.0118 -0.1448  0.2224
31254W        W47388  17.249  16.984  16.836 -0.0664 -0.1644  0.3016
31255W        W47389   1.312  15.096  12.333  0.1228 -0.1981  0.1033
31256W        W47390   8.733  16.861   3.924 -0.1566 -0.0470  0.1466
31257W        W47391  13.596   1.610  16.913  0.0393  0.1868  0.1196
31258W        W47392   9.480  11.957  12.632  0.0523  0.5199  0.3087
31259W        W47393   6.234   6.368  16.874 -0.0554  0.1580  0.1808
31260W        W47394  13.451  10.638  12.669 -0.0564 -0.1839 -0.1500
31261W        W47395   5.050   7.736   1.475 -0.0919 -0.0343 -0.2729
31262W        W47396   0.318  17.648   1.425 -0.0271  0.0939  0.4401
31263W        W47397  11.369   9.475   2.888  0.1154  0.1070 -0.3661
31264W        W47398   5.287   5.131   0.968  0.0684  0.1907 -0.1185
31265W        W47399  10.196   6.320   3.636  0.2489  0.1591  0.2717
31266W        W47400  12.971   1.840   1.760 -0.0308  0.0136 -0.1919
31267W        W47401   8.792  10.689   6.197  0.2793 -0.1171 -0.1359
31268W        W47402   7.699   7.215  17.024 -0.0143 -0.2576 -0.1097
31269W        W47403   6.555   1.609  16.003  0.3022  0.0771  0.0286
31270W        W47404   8.830   4.603  17.055  0.1990 -0.2226  0.0702
31271W        W47405   3.513  10.180  14.740  0.1282  0.0697  0.2961
31272W        W47406   1.482   5.184  15.851  0.4316 -0.1028  0.0693
31273W        W47407   7.572   6.148   4.875 -0.1070  0.0473 -0.0303
31274W        W47408   2.817  15.833  16.478 -0.2306 -0.0910 -0.2025
31275W        W47409  17.508  14.707  14.760 -0.0139  0.0698 -0.0476
31276W        W47410  12.232  10.856   5.215 -0.0864 -0.0199 -0.1836
31277W        W47411  11.559  17.205   3.590 -0.0208 -0.1379  0.0156
31278W        W47412  11.521   2.074   1.409  0.0384  0.0788 -0.0548
31279W        W47413  14.129   5.071   3.106  0.0000  0.2260  0.0116
31280W        W47414   5.185   9.391  17.168 -0.0954 -0.1738  0.0202
31281W        W47415  12.743   7.003   2.026  0.0486  0.0547 -0.0283
31282W        W47416  13.670   7.450  14.388 -0.1090  0.0541 -0.0987
31283W        W47417   9.550   3.182   5.515  0.1369  0.2239 -0.0318
31284W        W47418   9.941   4.358   1.397 -0.1604  0.0454 -0.2356
31285W        W47419  10.713   2.165  16.420  0.1050  0.1109 -0.0569
31286W        W47420   2.681  17.225   5.040 -0.3186 -0.3275 -0.1051
31287W        W47421  16.587  14.351  16.488 -0.1437 -0.4500  0.2298
31288W        W47422  13.218  10.273   1.968 -0.2173 -0.0351 -0.0813
31289W        W47423   8.578   7.025  12.800  0.0612  0.0935  0.3098
31290W        W47424  13.933   9.225   0.325 -0.1068 -0.0417 -0.0764
31291W        W47425   0.177   5.968   4.478  0.1010  0.2546 -0.1886
31292W        W47426   9.579   0.412   1.269 -0.0549  0.0920  0.0225
31293W        W47427  17.127   4.181  14.967  0.0849  0.2152 -0.0489
31294W        W47428   6.113  12.537   4.366 -0.1073  0.1151 -0.3901
31295W        W47429   5.757   4.945   0.881  0.0901  0.2437  0.2015
31296W        W47430   2.427   6.199  17.124 -0.2449  0.2158  0.2115
31297W        W47431   4.343  10.032  15.384  0.2473 -0.0468  0.3141
31298W        W47432   7.044  17.426   1.342 -0.0629 -0.0229 -0.2200
31299W        W47433  16.089   4.444  14.249 -0.0607  0.4348 -0.1091
31300W        W47434   2.317   3.099   1.920  0.2646  0.1990 -0.0271
31301W        W47435   2.583  15.228   4.688  0.0456 -0.0321  0.1945
31302W        W47436  14.007   9.809  15.862  0.0771  0.2714 -0.1017
31303W        W47437  11.976  11.546  15.788  0.0139  0.2178 -0.2656
31304W        W47438   1.852  10.030  13.685  0.1514 -0.1300 -0.4140
31305W        W47439  11.696  16.184   4.341  0.2219  0.0560  0.0690
31306W        W47440   1.812   5.409  16.961  0.1928 -0.0395 -0.0994
31307W        W47441   4.242  13.117  12.873  0.1052  0.1334 -0.0642
31308W        W47442  10.828   9.534  16.841 -0.3475  0.0449 -0.0285
31309W        W47443  10.092  10.274   4.379 -0.3495 -0.0306  0.0642
31310W        W47444   6.823   7.323  14.629  0.0512  0.0371 -0.1467
31311W        W47445   4.067  13.474  13.284 -0.0793  0.1308  0.0276
31312W        W47446   9.703  17.139   2.919 -0.0323 -0.3548  0.0962
31313W        W47447   3.700   3.700  16.842 -0.1872 -0.0783 -0.2996
31314W        W47448   5.066   1.817  13.749  0.0654 -0.2533  0.1388
31315W        W47449  17.656   6.336   4.802 -0.1195 -0.1932  0.2055
31316W        W47450  15.445  17.407   6.346  0.2777  0.1667  0.0207
31317W        W47451  11.862  14.764  15.353  0.0978 -0.0202  0.0487
31318W        W47452  14.317   0.661   5.170  0.2845  0.0927 -0.0199
31319W        W47453  14.508   2.206  14.370  0.0808  0.1287 -0.1267
31320W        W47454  13.898   0.796   2.908 -0.0187 -0.1486 -0.0768
31321W        W47455   2.262   8.381   2.989  0.2087  0.1080 -0.1363
31322W        W47456   5.085   0.506  13.375 -0.1639 -0.0531  0.0395
31323W        W47457   9.359   2.897  11.935  0.0330  0.1004  0.3883
31324W        W47458  15.095  16.600  12.835 -0.0511  0.0645  0.0897
31325W        W47459  15.417   3.759   0.656  0.0444 -0.3059 -0.0534
31326W        W47460   8.784   2.305   1.722  0.2917 -0.0930 -0.4998
31327W        W47461   7.271   2.452   3.320 -0.1872  0.1412 -0.0973
31328W        W47462   5.353   4.404   1.561 -0.0113 -0.1116 -0.0783
31329W        W47463   5.149   4.959  16.702  0.3030 -0.2278  0.2284
31330W        W47464  15.448   0.054   4.478  0.0071  0.0291  0.2076
31331W        W47465   2.281   2.804   2.380 -0.2128 -0.0343  0.1963
31332W        W47466  16.231   3.316   0.071  0.1233 -0.2893  0.2652
31333W        W47467   2.720  10.034  12.122  0.1701  0.0165 -0.0172
31334W        W47468   4.502   8.612  15.943  0.0520 -0.2396 -0.1270
31335W        W47469   2.246   5.521   3.961 -0.2120 -0.0498 -0.0165
31336W        W47470   5.600  17.513  15.872 -0.1501  0.0227  0.0976
31337W        W47471   8.578  15.105   4.305 -0.1954 -0.1432  0.0399
31338W        W47472  14.512   1.945  12.012 -0.2695 -0.1976  0.1008
31339W        W47473  17.519  12.808   5.264 -0.1133 -0.4682  0.0741
31340W        W47474  16.207  10.279   3.815  0.1315  0.0089 -0.0270
31341W        W47475  10.069   5.714  13.674  0.0210  0.3894 -0.0808
31342W        W47476  12.743  15.638  12.970  0.0855 -0.1281 -0.0281
31343W        W47477   5.015   3.694   4.845 -0.0553  0.1006 -0.1708
31344W        W47478   9.083   4.506   1.305  0.0292 -0.0281  0.1069
31345W        W47479  17.495   9.030   4.855 -0.0081  0.1606 -0.1967
31346W        W47480  10.103   6.354   0.565 -0.0698  0.0489 -0.2109
31347W        W47481  12.900   9.307  12.682 -0.0508  0.0103 -0.1114
31348W        W47482  10.504   5.388   2.317 -0.0335 -0.3490 -0.2388
31349W        W47483   3.773  12.803   0.073 -0.1110 -0.0938  0.0894
31350W        W47484   1.902   1.448   4.296 -0.0054  0.0420  0.1395
31351W        W47485  15.925   1.223  14.158  0.2897 -0.1080 -0.0600
31352W        W47486  16.383   5.861  15.529  0.0878 -0.1293 -0.1576
31353W        W47487  17.035  16.577   1.193  0.0175 -0.0280 -0.0697
31354W        W47488  16.532  14.056   4.245 -0.1125 -0.1033 -0.4085
31355W        W47489  10.351  14.122   0.666 -0.4100 -0.0288 -0.0809
31356W        W47490   7.744  16.622   2.275  0.2145  0.0622 -0.0586
31357W        W47491   8.294   7.207   1.611 -0.1884 -0.1447 -0.0373
31358W        W47492   4.990  14.219  16.338  0.1405 -0.0590  0.2125
31359W        W47493   7.058   3.882   3.245 -0.2172 -0.2139  0.0379
31360W        W47494   2.214   4.385  15.430 -0.0763  0.0021  0.1120
31361W        W47495   8.077  16.095  14.588 -0.2905 -0.0239  0.1388
31362W        W47496  10.701  10.689  14.754  0.1634 -0.3781  0.1336
31363W        W47497  14.799   9.342  15.489  0.4362  0.1228  0.0765
31364W        W47498  12.439  14.602   4.847 -0.0733  0.2113  0.1548
31365W        W47499  12.709  12.981  12.161 -0.1088 -0.1294 -0.1201
31366W        W47500   8.980   1.294   4.812  0.2782  0.0338  0.2182
31367W        W47501  14.669  11.736  11.858 -0.0020 -0.4274  0.3455
31368W        W47502  11.651  17.411   3.104  0.2675 -0.2701 -0.1977
31369W        W47503   3.517  15.850   5.887  0.0879 -0.2460 -0.2313
31370W        W47504  11.688  11.871  13.851  0.1542 -0.2934  0.0879
31371W        W47505   1.794  16.950  13.932 -0.2077  0.3085 -0.1103
31372W        W47506  15.813  13.001   2.971  0.1922  0.1626  0.1456
31373W        W47507  13.076   2.942  14.452 -0.1693 -0.2781 -0.1058
31374W        W47508  13.046   9.977   0.803 -0.0792 -0.0724  0.0764
31375W        W47509  17.666  15.419   4.602 -0.0005  0.1275 -0.1827
31376W        W47510  17.547   2.386   2.117  0.0287  0.1966 -0.0345
31377W        W47511   8.039   8.335  14.615 -0.1939  0.2528  0.0465
31378W        W47512   2.100   1.411  14.101  0.1969  0.0864 -0.0538
31379W        W47513  13.901  17.314   2.365  0.1083  0.2656 -0.0057
31380W        W47514   5.449  17.428  16.482 -0.4612  0.1845  0.0988
31381W        W47515  12.696   9.376   2.122 -0.0557 -0.1662  0.1148
31382W        W47516   7.762   2.020   4.028  0.3898  0.3482 -0.2921
31383W        W47517   0.331   2.725   2.779 -0.0457  0.1173  0.0096
31384W        W47518   5.403   2.687   2.678  0.2555 -0.0011 -0.2753
31385W        W47519   8.996   1.141   2.366  0.2967 -0.0596  0.0052
31386W        W47520  15.543  10.476  12.234  0.0329  0.3796  0.2417
31387W        W47521  17.292  13.893   4.594  0.3860  0.1499 -0.0070
31388W        W47522   5.628   4.688  14.828 -0.1659  0.0486 -0.2725
31389W        W47523   5.465   9.783   5.403 -0.0316  0.0242  0.0583
31390W        W47524  16.338   4.808   1.879  0.0129  0.0799 -0.3467
31391W        W47525  16.408   7.119  13.783 -0.3750  0.0039  0.2205
31392W        W47526   3.747   0.225  15.900  0.0574  0.3184 -0.1923
31393W        W47527   9.890  12.688   6.043  0.1415 -0.2948  0.1651
31394W        W47528  12.817  10.309   4.971 -0.0519  0.2297 -0.0522
31395W        W47529   0.255   7.558   0.899 -0.0604 -0.4263  0.0607
31396W        W47530   4.763   3.502  15.652  0.3561  0.0450  0.1106
31397W        W47531   9.645   9.141   0.701  0.1221  0.1904  0.0053
31398W        W47532   7.162   7.227  17.084  0.0461 -0.3060 -0.0570
31399W        W47533   3.098   2.652   2.337  0.0488 -0.1154  0.1542
31400W        W47534   1.247   7.933   2.909  0.0467  0.2727 -0.0402
31401W        W47535  13.982  14.483  16.127 -0.2700  0.0726 -0.1765
31402W        W47536   4.688   1.939   0.524 -0.0913 -0.1057 -0.3377
31403W        W47537   6.322  16.239   1.309 -0.2937 -0.0622  0.0030
31404W        W47538  16.869   8.020   0.167  0.0061 -0.1237  0.0497
31405W        W47539   0.876   4.681   3.073  0.0924 -0.2038 -0.4648
31406W        W47540  13.185   3.367  17.169  0.1761  0.2866 -0.0517
31407W        W47541  14.436  16.462  16.115  0.0205 -0.0637  0.2434
31408W        W47542   1.879   5.918  14.822  0.1790 -0.2355 -0.2135
31409W        W47543  14.739  13.156   1.164 -0.1571 -0.1295  0.3095
31410W        W47544   0.268   5.244  16.038  0.1858 -0.0100 -0.0842
31411W        W47545   6.897  14.495   0.630  0.3206 -0.0039  0.0578
31412W        W47546   8.017  16.826  15.275  0.1785  0.2673  0.0637
31413W        W47547  10.299   0.600   3.052 -0.2413 -0.1129 -0.0758
31414W        W47548  17.116  12.006  17.144  0.1022  0.0510  0.0745
31415W        W47549   1.509   8.061   4.730 -0.2375  0.0180 -0.0111
31416W        W47550  11.643   8.179   3.002 -0.3113 -0.2632  0.2302
31417W        W47551  14.132  12.822   4.514  0.0259  0.4823  0.0525
31418W        W47552  16.089  14.741   3.079  0.1856  0.0550  0.2075
31419W        W47553  16.636   2.670  12.854  0.1302 -0.0215 -0.3019
31420W        W47554   0.668   9.601  13.626  0.0315  0.0962  0.1089
31421W        W47555   2.736  15.705   4.603  0.0376  0.0507 -0.0827
31422W        W47556   2.174  14.432   0.773  0.0942  0.3119 -0.1745
31423W        W47557  10.980   3.453  12.085  0.0527  0.0230  0.1384
31424W        W47558  14.971   4.626   5.741  0.2855 -0.2003 -0.0722
31425W        W47559   5.965   8.031   1.338 -0.1489 -0.4055  0.3029
31426W        W47560  17.072  17.507   5.124  0.2815  0.0463  0.1200
31427W        W47561   7.867   0.147  13.983  0.0726  0.2848 -0.2789
31428W        W47562  14.172   2.270  12.864  0.3542 -0.0100  0.0494
31429W        W47563  10.941  13.657   1.917 -0.0921  0.0776  0.0725
31430W        W47564   6.909  16.748   2.401  0.0188  0.1512 -0.1743
31431W        W47565   4.054   1.451   4.646 -0.0444  0.0113  0.1800
31432W        W47566   8.210   0.911   5.881 -0.0025  0.1628 -0.2200
31433W        W47567   3.703   6.232   5.895  0.0399  0.0195 -0.0562
31434W        W47568  17.630   7.957  12.639 -0.3644  0.0372  0.0478
31435W        W47569   6.370  15.215   0.676 -0.2454 -0.1151  0.1045
31436W        W47570   4.766   9.970  16.859  0.1357 -0.2800  0.2545
31437W        W47571   1.507   7.106  14.879 -0.1173 -0.3316 -0.1599
31438W        W47572  17.188   4.305   4.936 -0.0229  0.0751  0.2283
31439W        W47573  14.776  15.148  14.500  0.5966 -0.2032  0.2389
31440W        W47574  13.928   2.300  15.874  0.1046  0.0315 -0.1787
31441W        W47575   6.586  11.993   2.709  0.1570 -0.1876  0.2121
31442W        W47576  13.107  14.274   5.038 -0.1581  0.0231 -0.2733
31443W        W47577  16.931  15.351   1.583 -0.0852 -0.0287 -0.2029
31444W        W47578  11.720  13.047  14.577 -0.0972  0.3572 -0.0458
31445W        W47579  11.257  15.857   4.961 -0.0959  0.0798 -0.0430
31446W        W47580   4.478   3.934   1.496 -0.1561  0.4137  0.2133
31447W        W47581  14.448   0.124  13.552  0.1402  0.1097 -0.2839
31448W        W47582  14.777   6.444  13.407  0.1053 -0.2251  0.0157
31449W        W47583  15.196   1.831  15.125 -0.1334  0.0541 -0.0543
31450W        W47584  17.288  13.687  13.844  0.2138  0.0800 -0.0769
31451W        W47585   8.252   5.164  13.090 -0.0610 -0.0124  0.1065
31452W        W47586  12.540   6.641   1.191  0.1911 -0.0129  0.2822
31453W        W47587  15.437   1.780   5.307  0.0365  0.1215  0.0700
31454W        W47588  12.629   5.848  12.817 -0.0956 -0.0004 -0.0174
31455W        W47589   7.781   3.229   0.378 -0.0035 -0.0222 -0.0725
31456W        W47590   8.492  13.761  14.305 -0.2102 -0.1740  0.3642
31457W        W47591  15.706   1.152  15.135  0.0549 -0.0310  0.1128
31458W        W47592  17.336   4.180   0.981 -0.2763 -0.0898  0.0912
31459W        W47593  14.072   3.765   0.799 -0.0807  0.3393  0.1091
31460W        W47594   7.420  13.983  15.141 -0.2069 -0.0214  0.0339
31461W        W47595   6.876  12.095   4.071 -0.3211  0.3969  0.2463
31462W        W47596   1.056  16.392   0.686 -0.1270 -0.0924 -0.1224
31463W        W47597   6.149  14.193  11.925 -0.0155  0.1089 -0.1191
31464W        W47598  13.758  15.527  13.907 -0.0430 -0.1741 -0.3508
31465W        W47599   0.014   8.878   0.400  0.0932  0.0948  0.0730
31466W        W47600   2.127  12.461  12.764 -0.2696  0.0930  0.4001
31467W        W47601  13.956  13.525  15.799 -0.2379  0.0831 -0.0605
31468W        W47602  10.301  15.308   6.310 -0.0116  0.0127 -0.1682
31469W        W47603  13.250  16.686   3.231 -0.0946 -0.1024 -0.1055
31470W        W47604   1.278   3.939   5.149 -0.0901  0.2116 -0.0994
31471W        W47605   2.127   3.555  13.972  0.1558 -0.0190  0.3227
31472W        W47606  16.705   9.397  16.858  0.2866  0.2394  0.0331
31473W        W47607   4.449   2.390   0.543  0.0168 -0.0820 -0.0754
31474W        W47608   2.017   0.933   1.697  0.0700  0.1272  0.0224
31475W        W47609   6.436   8.223  14.793  0.2875 -0.1822 -0.1826
31476W        W47610   7.766  11.236   4.054  0.2414 -0.1172 -0.1978
31477W        W47611   2.637  15.892   4.050  0.1856  0.0736  0.1385
31478W        W47612  15.229   6.175  12.968 -0.0046  0.1135  0.0693
31479W        W47613  16.046   1.286   2.106  0.1060  0.1652  0.1788
31480W        W47614   0.237  10.373  13.518 -0.0456 -0.0138 -0.1643
31481W        W47615   2.081  13.368  16.264  0.1279  0.2093 -0.0779
31482W        W47616   7.161   7.857   4.449 -0.2492 -0.1841 -0.0340
31483W        W47617  17.562   8.442  14.593  0.1481  0.0777  0.4436
31484W        W47618   8.131   0.350   5.835 -0.1859 -0.2239 -0.1312
31485W        W47619   9.113  11.048   0.113  0.2636 -0.2545  0.0805
31486W        W47620  11.147   4.540  12.912  0.0251  0.0117 -0.0071
31487W        W47621  13.505   9.758   5.538  0.2689 -0.1266  0.1348
31488W        W47622   3.636   0.366  11.272  0.1053  0.0448  0.1120
31489W        W47623   1.906   9.648   1.257  0.1208  0.2151 -0.0218
31490W        W47624  16.310  12.320   3.710 -0.1977  0.0807  0.1985
31491W        W47625   8.112   7.511  17.150  0.0711 -0.0074  0.0281
31492W        W47626  10.837   8.575  17.178  0.0803 -0.0696 -0.1075
31493W        W47627   5.459   3.022   3.091  0.0068 -0.2606  0.1833
31494W        W47628  12.359   7.235   1.800 -0.0115 -0.1390  0.1827
31495W        W47629   8.456   6.422   5.679  0.0953  0.0791  0.2002
31496W        W47630  14.404  16.061  14.712 -0.0795 -0.3270  0.1570
31497W        W47631  14.525   1.709   0.985 -0.0205  0.1543  0.1576
31498W        W47632  14.461   3.195   1.724 -0.1169 -0.0186  0.4219
31499W        W47633   8.426   7.131   0.773 -0.0932  0.0444  0.0290
31500W        W47634   1.347  11.444  14.477  0.0502  0.0955 -0.2905
31501W        W47635  16.243   8.278   5.902 -0.0009 -0.2195 -0.2398
31502W        W47636   9.730  13.566   4.877 -0.1730 -0.1668  0.0790
31503W        W47637  11.969  14.237  13.345  0.1638 -0.1410  0.3050
31504W        W47638  17.318   7.158  12.505  0.0618  0.1434 -0.5128
31505W        W47639   2.927   4.406  11.530 -0.3389  0.1192  0.0182
31506W        W47640  13.956   3.762   4.033 -0.0227  0.1683  0.2261
31507W        W47641  13.439  10.602   3.952  0.2829 -0.1277 -0.1384
31508W        W47642  14.136   8.554   5.306  0.1870 -0.0701 -0.2970
31509W        W47643  17.589  10.792  17.050 -0.0325  0.1633  0.2099
31510W        W47644  12.165   3.676  15.953 -0.0692 -0.0031 -0.4606
31511W        W47645  12.389   4.635  15.133 -0.0482  0.1017 -0.1002
31512W        W47646   0.638  17.187  14.945  0.0315 -0.2055 -0.1566
31513W        W47647  10.745   5.064  14.009 -0.1414  0.2592 -0.1607
31514W        W47648  11.063  12.340   6.244  0.1118 -0.2063  0.1321
31515W        W47649  11.738   7.866   2.289 -0.1039 -0.0578  0.1720
31516W        W47650  16.421   1.006  16.244 -0.0491 -0.0218 -0.0066
31517W        W47651   6.708  13.339  14.056  0.0796  0.2968  0.2042
31518W        W47652   0.676   7.495  12.690 -0.2273  0.1003 -0.1756
31519W        W47653   1.299   3.346   0.965  0.2099 -0.0574  0.3185
31520W        W47654   9.771  14.209  15.021 -0.0681 -0.5026  0.2310
31521W        W47655   4.544  16.746   3.632 -0.1048  0.1780  0.0340
31522W        W47656   0.482   4.646   4.071 -0.0473  0.1055  0.2221
31523W        W47657  15.371   8.560   1.376 -0.0744  0.2492  0.2358
31524W        W47658  12.094   6.011  12.618 -0.1448 -0.2096  0.0227
31525W        W47659  12.517  15.846   1.294  0.0049  0.0423 -0.3002
31526W        W47660  17.527  11.619   3.567  0.2218  0.2014 -0.1441
31527W        W47661   7.992   5.387  11.226  0.0006 -0.0187 -0.1012
31528W        W47662  17.085   6.958  13.509 -0.0001 -0.1017  0.1531
31529W        W47663  15.469   1.274   5.194 -0.4412 -0.3732  0.0022
31530W        W47664  10.749  12.980  12.730 -0.0108  0.2509 -0.0951
31531W        W47665   6.815   5.183   4.309 -0.1034 -0.0477  0.0409
31532W        W47666  16.369  17.424  13.229  0.0890 -0.0210  0.0270
31533W        W47667   8.600  11.591   4.241 -0.1295  0.2218  0.2558
31534W        W47668   7.992  15.964   3.362 -0.0756 -0.3347  0.1133
31535W        W47669  12.298   0.664   2.308  0.3158 -0.0962 -0.2885
31536W        W47670  15.918   6.556   5.497  0.1400 -0.0751 -0.0038
31537W        W47671   2.730  17.036  17.082  0.1737  0.1629  0.0881
31538W        W47672   4.416   6.399   2.059  0.2129 -0.1957 -0.0538
31539W        W47673   0.154   8.796  12.801 -0.1090 -0.1248 -0.0788
31540W        W47674  16.959   9.060  11.153  0.1013 -0.0924  0.1908
31541W        W47675  10.623   5.922  12.154  0.1106 -0.0232 -0.1527
31542W        W47676  13.580   5.876   3.054 -0.0786  0.2937  0.2491
31543W        W47677  14.887   3.880  16.238  0.1631 -0.0334  0.0108
31544W        W47678   9.278  16.672  17.069 -0.1510  0.0511 -0.0045
31545W        W47679  11.845  10.088   1.545  0.0528 -0.0127 -0.1332
31546W        W47680   0.837  16.236   2.183 -0.0364  0.0771 -0.1517
31547W        W47681   3.842   5.712  12.566 -0.0710 -0.0658  0.5207
31548W        W47682   8.495  10.144  15.868  0.1212  0.1501 -0.0676
31549W        W47683  13.950  11.771  11.332  0.1706 -0.5734 -0.0583
31550W        W47684   6.193  15.706   2.052 -0.1057  0.2574  0.1526
31551W        W47685   9.031  16.568  16.540 -0.1287 -0.2242 -0.2598
31552W        W47686   0.443  17.402   0.523  0.2504  0.0861  0.0304
31553W        W47687   8.843   6.491   3.118 -0.4417 -0.0679  0.1709
31554W        W47688  14.004  16.199   4.888  0.0266  0.1134 -0.0683
31555W        W47689   7.152   8.782  13.695 -0.0761  0.3283  0.0180
31556W        W47690   6.615  16.845   2.042 -0.1087  0.1234  0.0853
31557W        W47691  16.729   1.235   4.853  0.0627  0.2224  0.0251
31558W        W47692   5.937   4.062   1.106  0.1221  0.0683 -0.0930
31559W        W47693   8.052  14.559   3.827 -0.0120 -0.0048  0.0957
31560W        W47694  14.234  11.753  15.346 -0.2128  0.0137 -0.0844
31561W        W47695  11.585  10.477  15.126  0.1056 -0.3245  0.1848
31562W        W47696  14.039  14.304   5.140  0.0653 -0.0973 -0.0363
31563W        W47697  11.112   8.784  14.922  0.2542 -0.2619  0.1712
31564W        W47698  13.277   7.355  12.797 -0.2681 -0.1284  0.2797
31565W        W47699   3.262   6.090  10.743  0.2924 -0.3649 -0.0572
31566W        W47700   1.444  10.484  15.448 -0.0308  0.0008  0.0199
31567W        W47701   2.032  16.266   5.468 -0.0537  0.1724  0.2710
31568W        W47702  17.126  13.676   5.564  0.1233 -0.1616  0.0368
31569W        W47703   5.455  17.134  13.498  0.2158  0.0819 -0.2224
31570W        W47704   6.837  17.385  16.560  0.0519  0.1544 -0.0761
31571W        W47705   0.678   1.145  12.802 -0.0766  0.2521 -0.0428
31572W        W47706   2.947   6.104   0.537 -0.0545  0.0933  0.2429
31573W        W47707  16.730   8.503  17.132  0.1469  0.2186  0.3040
31574W        W47708  15.665   4.099   1.434  0.1512 -0.0527 -0.4264
31575W        W47709  17.481  16.493   6.559  0.3154 -0.1875  0.0772
31576W        W47710   7.176  13.785   1.036  0.1506 -0.1679 -0.1154
31577W        W47711   1.163  17.106  14.246 -0.0702 -0.3641  0.2706
31578W        W47712  16.128   5.085   5.126 -0.1761  0.1286 -0.3379
31579W        W47713  16.199  10.647  12.177  0.0100  0.1170  0.2291
31580W        W47714  12.828  16.063  13.909 -0.0056 -0.0242  0.1140
31581W        W47715  14.991  13.944   5.936  0.0519 -0.3232  0.2280
31582W        W47716  14.495   3.671  11.804  0.0508  0.2325  0.0023
31583W        W47717   6.991   7.374   2.646  0.1221  0.1403 -0.0460
31584W        W47718   7.980  14.910  15.822  0.1307 -0.2711  0.2284
31585W        W47719   0.102  16.910  12.468 -0.1978 -0.1187  0.2892
31586W        W47720  16.721   5.771   0.278 -0.0133 -0.5118  0.1656
31587W        W47721  14.168  16.203   4.434  0.1365 -0.2215  0.1725
31588W        W47722   1.913   7.689  13.744  0.0446 -0.2145 -0.0811
31589W        W47723  16.336   6.310  14.471 -0.2578 -0.3320  0.1553
31590W        W47724  12.019  12.459   1.682 -0.1098  0.0692 -0.1624
31591W        W47725  17.589   5.017  14.956 -0.0120  0.0798  0.1211
31592W        W47726   7.407   6.811   3.639  0.3246  0.0565 -0.2135
31593W        W47727  10.053   9.144   1.764  0.0008 -0.0410  0.3079
31594W        W47728   2.502  12.907   4.014  0.0289  0.2235 -0.1795
31595W        W47729   5.899   8.751  17.098  0.0256 -0.1744 -0.1331
31596W        W47730   3.070   3.801   5.752 -0.1111 -0.0836  0.0182
31597W        W47731   2.056  13.585   3.779 -0.0039  0.1829 -0.0935
31598W        W47732  14.183   2.623  14.039 -0.2382  0.0269  0.1238
31599W        W47733   6.075  13.565   1.461 -0.0281  0.0398  0.1786
31600W        W47734  13.168   9.511  15.708 -0.0517 -0.0793  0.1465
31601W        W47735   7.989   2.501   5.405  0.1841 -0.1352 -0.2665
31602W        W47736   8.845  14.168  17.117  0.1884  0.2434 -0.0560
31603W        W47737   8.068   1.959  14.549 -0.0401 -0.0531  0.1382
31604W        W47738   3.737   2.994  16.571  0.3876 -0.1577 -0.2155
31605W        W47739   3.747  13.607   3.131  0.0868  0.1562  0.0821
31606W        W47740   3.215   6.797  16.954  0.1480 -0.1184 -0.1070
31607W        W47741  17.020  17.143   5.970  0.3376 -0.3409 -0.0708
31608W        W47742   4.710  16.535  14.884  0.1764 -0.1378 -0.1482
31609W        W47743   0.273  15.040  14.048  0.0797  0.0003  0.2075
31610W        W47744   9.909   1.442   5.344 -0.2826 -0.1001  0.1001
31611W        W47745   8.300  11.501  14.534  0.4123  0.1474 -0.0692
31612W        W47746   5.522   5.175   4.026  0.0899  0.2219  0.0622
31613W        W47747  15.557   4.490  11.548  0.0246 -0.0045  0.1104
31614W        W47748   6.974   6.102   4.127  0.1719  0.0266  0.0760
31615W        W47749   7.162  12.529   4.447  0.1144  0.0273  0.2010
31616W        W47750   2.829   3.959  11.757 -0.2003 -0.3681 -0.0723
31617W        W47751   1.189   4.514   2.153 -0.1334 -0.3528 -0.1916
31618W        W47752  16.726  15.320   5.873 -0.1875 -0.2266  0.0043
31619W        W47753   8.309  15.465   2.206 -0.0896 -0.1282 -0.0395
31620W        W47754  14.573  15.616  14.493 -0.2131  0.4811 -0.2035
31621W        W47755   8.370   2.093   2.968 -0.1503 -0.0263  0.0303
31622W        W47756   6.492  11.716   2.251 -0.3984 -0.0282  0.1238
31623W        W47757  11.161  12.849   5.915 -0.3334  0.0673 -0.1772
31624W        W47758  10.925  14.466  16.297  0.2423  0.0340 -0.0237
31625W        W47759   1.390   4.473   2.666  0.3333 -0.1936  0.0484
31626W        W47760   6.526   3.801  13.396  0.3781 -0.4549 -0.1075
31627W        W47761  16.225  11.610   4.966 -0.0962 -0.2111  0.0016
31628W        W47762  16.563  13.996   2.517  0.0041 -0.0611  0.2553
31629W        W47763   2.791  15.463   1.337  0.0619 -0.2615  0.2618
31630W        W47764   3.063  11.351  16.672  0.2104 -0.4018  0.1578
31631W        W47765   3.876  11.393   0.998 -0.0594  0.2032  0.0270
31632W        W47766   4.290  13.288   3.363 -0.2724 -0.0986 -0.4620
31633W        W47767   8.346  10.704   3.179 -0.3184 -0.1496 -0.1953
31634W        W47768   2.553   9.551  16.682 -0.0611 -0.3273 -0.1091
31635W        W47769   5.692   3.480  14.104  0.2339 -0.0019 -0.2982
31636W        W47770  10.842   1.686  16.592  0.0121 -0.1276  0.0414
31637W        W47771  13.019  15.583   4.312  0.2130  0.0194 -0.2948
31638W        W47772  10.591   0.305  16.007 -0.1403 -0.5150  0.1515
31639W        W47773   3.838  16.913   1.287  0.1311 -0.0175  0.1155
31640W        W47774   7.239  12.073   5.403  0.0484  0.0219 -0.1866
31641W        W47775   5.821   6.404   4.539 -0.0131 -0.1027 -0.0614
31642W        W47776  13.620   1.718   2.945  0.0053  0.2718  0.1999
31643W        W47777  12.537  14.762  13.509  0.1745 -0.0188 -0.2350
31644W        W47778   9.479  15.382  11.456 -0.0980 -0.1292 -0.0755
31645W        W47779   9.447  15.239   1.846 -0.1153  0.2838  0.0452
31646W        W47780   6.774   8.453   0.350 -0.0837 -0.1243 -0.0155
31647W        W47781  17.651  14.892   5.783  0.1933 -0.1278 -0.1788
31648W        W47782   8.358   4.558  12.619 -0.1210 -0.3136 -0.2841
31649W        W47783   2.131   2.164   4.458 -0.0426  0.0517 -0.2007
31650W        W47784  13.766   7.648  12.298  0.2541 -0.0821  0.0428
31651W        W47785  17.574  13.852  11.827 -0.2863  0.0553 -0.2863
31652W        W47786   7.558  10.087  12.175  0.0784 -0.2087  0.0028
31653W        W47787  14.669   7.342   2.794  0.0762 -0.0472 -0.2489
31654W        W47788   1.159  17.587   5.961 -0.1183 -0.1580  0.0276
31655W        W47789   5.456   2.803   5.490 -0.0293 -0.0069 -0.1707
31656W        W47790   1.031  10.880   4.202  0.1432  0.1145 -0.0423
31657W        W47791   0.622  10.513  12.031  0.1224 -0.1080 -0.2339
31658W        W47792  17.554   0.088   5.796  0.0852 -0.0963 -0.0471
31659W        W47793   0.162   1.251   2.992 -0.0031 -0.0398 -0.2342
31660W        W47794   8.971   9.526  12.425 -0.0434 -0.1633  0.3110
31661W        W47795   1.137   4.752  11.733 -0.2275 -0.1233 -0.0964
31662W        W47796  15.890  11.939   4.885  0.1293 -0.2173  0.3703
31663W        W47797  14.950   7.686  11.777  0.0206 -0.3116 -0.1654
31664W        W47798  12.612   8.025   1.216 -0.0755  0.0033 -0.1411
31665W        W47799   5.672  16.565   1.662  0.1846  0.0950 -0.0084
31666W        W47800   7.355  15.516  15.337  0.0825  0.1258 -0.2397
31667W        W47801   0.667   2.167  13.246  0.0759  0.0459  0.0972
31668W        W47802   7.780  11.687  13.499  0.2124 -0.4600  0.0904
31669W        W47803   2.537  11.132  15.004 -0.0601 -0.0891  0.1408
31670W        W47804   3.807   8.736   1.531  0.4546 -0.0360 -0.0681
31671W        W47805   1.717   2.116   3.927 -0.0327 -0.1498  0.0133
31672W        W47806   9.214   8.406  15.979 -0.0532  0.1593  0.0151
31673W        W47807  12.171  14.154   0.488 -0.1512 -0.1012 -0.0938
31674W        W47808   7.443   1.459  16.920 -0.1632  0.1392  0.0501
31675W        W47809   9.390   3.475  16.963  0.1307  0.2004  0.2904
31676W        W47810  11.580   7.932  16.810  0.1331  0.1959 -0.0292
31677W        W47811  13.214   0.105  13.123 -0.0074 -0.1412  0.1456
31678W        W47812   8.484   3.222  15.367  0.2133  0.0627  0.1449
31679W        W47813  11.068   8.020  16.213  0.0805 -0.0821 -0.1519
31680W        W47814   2.204   9.189  16.821 -0.2696  0.0370 -0.1785
31681W        W47815  14.387   6.456  16.354 -0.3098 -0.0673 -0.1629
31682W        W47816  15.534   4.933  15.366  0.1379 -0.1980 -0.1835
31683W        W47817  10.598  11.131   3.365 -0.2082  0.1285 -0.2431
31684W        W47818   7.640   9.320   6.338 -0.1033 -0.1725 -0.1874
31685W        W47819   2.985  10.081   0.645 -0.0252  0.1508 -0.1866
31686W        W47820   5.885  13.570   1.005 -0.1870 -0.0922 -0.1425
31687W        W47821   2.488  10.605   4.976  0.0704  0.0556  0.0278
31688W        W47822   8.718  16.885   2.647  0.1880 -0.1290  0.1312
31689W        W47823   8.383   3.470   2.349  0.2458 -0.1222  0.2092
31690W        W47824  10.597   4.463   4.774 -0.0139 -0.0486 -0.0235
31691W        W47825   0.012  13.632   3.129 -0.0315  0.1517  0.0597
31692W        W47826   4.991  15.123   1.928 -0.0503 -0.2452 -0.0620
31693W        W47827   4.264  14.996  12.721  0.2304  0.1112  0.1054
31694W        W47828   9.059  12.918  12.375  0.2260  0.2670  0.0276
31695W        W47829   8.092   7.881   6.104 -0.1199 -0.1244  0.0570
31696W        W47830   8.325  10.985  12.598  0.2576  0.3174  0.2482
31697W        W47831  10.774  12.367  13.901 -0.0249  0.1545  0.3206
31698W        W47832   5.960   6.156   5.449  0.0571 -0.0107 -0.1675
31699W        W47833  11.786  14.827   6.650 -0.3271  0.1486 -0.2598
31700W        W47834   1.735   8.596   1.162 -0.1706  0.2276  0.2773
31701W        W47835  12.740  15.474   6.107  0.0817  0.2507  0.0498
31702W        W47836   9.022  14.298   6.517 -0.0393 -0.0621 -0.1137
31703W        W47837   6.099   9.558   3.130  0.3014  0.1291 -0.1915
31704W        W47838   0.432   4.724  15.366  0.2378 -0.1772 -0.2662
31705W        W47839   8.029   2.047  13.476  0.0288  0.1820 -0.0881
31706W        W47840  10.419   4.217  15.207  0.0614  0.1315  0.2609
31707W        W47841   2.342   7.881  11.479  0.2325 -0.0281  0.1553
31708W        W47842  17.329   7.368  13.674  0.0846  0.1531 -0.2652
31709W        W47843   2.781   8.673  13.442 -0.0090  0.2060  0.0406
31710W        W47844  15.116   7.673  16.278  0.0094  0.1581  0.3431
31711W        W47845  13.110  16.015  16.104 -0.0608 -0.0899 -0.1333
31712W        W47846   8.957  13.534   0.896  0.3189 -0.3017 -0.3843
31713W        W47847   7.235  14.342   0.004 -0.3870 -0.2175 -0.0989
31714W        W47848   9.237  10.332   3.092 -0.1583  0.2410  0.0553
31715W        W47849  14.184   0.664   1.213 -0.2352 -0.2302 -0.4811
31716W        W47850   6.695   8.145   1.530  0.1935  0.0918 -0.0638
31717W        W47851  15.009   9.553  14.826 -0.1122  0.0892  0.0373
31718W        W47852   5.430  15.311  14.921 -0.0074  0.1306 -0.3237
31719W        W47853  10.354  17.619  16.626 -0.0787  0.2049  0.1073
31720W        W47854   4.435  13.978   5.521 -0.0121  0.1785 -0.3277
31721W        W47855   4.511  16.981  15.074  0.0769  0.0084  0.1687
31722W        W47856  16.918   0.795  12.592 -0.0801 -0.0150 -0.1083
31723W        W47857   8.664   2.139  12.389 -0.2337 -0.0090  0.1644
31724W        W47858   4.278  12.045   2.144 -0.0678 -0.3423  0.0631
31725W        W47859   9.998   1.172   1.847 -0.1832  0.0794  0.0732
31726W        W47860   5.259  15.029  13.543  0.3196 -0.0603  0.2674
31727W        W47861   2.531   1.449  14.962  0.0145 -0.0005 -0.1051
31728W        W47862  15.682   1.342   2.518 -0.0639 -0.1068 -0.1524
31729W        W47863  11.130   7.099  15.155 -0.0129  0.1440 -0.0705
31730W        W47864  14.191  10.985  13.327  0.0160 -0.0147 -0.4491
31731W        W47865   7.248   3.205   6.320  0.1163  0.1097  0.3294
31732W        W47866  14.762  13.224  15.031  0.1399 -0.1766 -0.0217
31733W        W47867   4.425  11.012  16.126 -0.1222  0.2609 -0.0751
31734W        W47868   1.972   2.515   2.649  0.2155  0.3248  0.2138
31735W        W47869   3.037   1.548  14.317  0.1968  0.0839  0.2601
31736W        W47870  15.646  15.825  15.105 -0.0384  0.1147 -0.1364
31737W        W47871   5.004   9.055   1.848 -0.1779  0.2388 -0.2867
31738W        W47872   4.991   9.349   4.596 -0.1480 -0.0764  0.0925
31739W        W47873   4.034  14.354   0.790  0.4648 -0.1213  0.0935
31740W        W47874  11.652   3.512   4.770 -0.2187  0.0825 -0.2412
31741W        W47875  17.438   7.442  15.498  0.2578  0.0461 -0.2067
31742W        W47876   0.888  13.878   5.087 -0.2007  0.2970  0.0382
31743W        W47877  13.022  11.508   0.985  0.1086 -0.1161 -0.0842
31744W        W47878  15.091  14.465  16.913 -0.3788  0.0519  0.0943
31745W        W47879   4.892  15.920  11.901  0.0799  0.2845  0.1672
31746W        W47880   3.149   0.368   1.984  0.0195  0.0695 -0.1436
31747W        W47881  17.021   7.777  13.475  0.3265  0.3011 -0.1165
31748W        W47882  11.054   6.211  15.699 -0.0999  0.0122  0.1225
31749W        W47883   9.561   5.715   3.438 -0.2261  0.1283 -0.0772
31750W        W47884   3.998  14.356   1.279 -0.2072 -0.0192 -0.0228
31751W        W47885  16.975  15.655   5.462 -0.0779  0.2062 -0.0311
31752W        W47886   4.964   0.679   2.137 -0.1215 -0.0112  0.1669
31753W        W47887  10.248  13.150   2.506  0.2490 -0.3348 -0.0270
31754W        W47888   4.390   6.762  13.538  0.1947 -0.1666  0.0959
31755W        W47889   7.863   8.791  15.837 -0.1228 -0.1349 -0.2307
31756W        W47890   9.508  11.751   0.673  0.2340  0.1772  0.0549
31757W        W47891  16.837   9.690  11.836 -0.1090  0.0982 -0.0713
31758W        W47892   9.223  16.284  15.362 -0.2423  0.2375 -0.0162
31759W        W47893   4.211   8.970  12.079 -0.1365  0.3162 -0.1048
31760W        W47894   4.568   9.393  13.281 -0.0733 -0.2075  0.2609
31761W        W47895   8.493  14.013  12.907  0.2927  0.3046 -0.1596
31762W        W47896   1.978   2.809   5.852  0.1736  0.1055  0.1227
31763W        W47897  17.230  16.684   4.606  0.0940 -0.2765  0.0932
31764W        W47898   4.346   1.394  15.567  0.1347 -0.1349  0.1353
31765W        W47899   4.378   2.486  13.287 -0.2557 -0.2638 -0.0341
31766W        W47900  16.170   1.075  13.741 -0.1782  0.0846 -0.1027
31767W        W47901  15.686   4.194   2.579  0.1588 -0.2244  0.1685
31768W        W47902   7.015   7.323  12.334  0.2080  0.0710 -0.4490
31769W        W47903  14.582  14.119   4.327  0.0401 -0.0771 -0.0077
31770W        W47904   9.428   8.844  12.987  0.0561  0.1410  0.1386
31771W        W47905  17.019  11.439   1.841 -0.0671 -0.1005  0.1366
31772W        W47906   3.066   9.520  16.491  0.1742  0.1192 -0.1147
31773W        W47907   6.959   9.676  13.397 -0.0672 -0.3965  0.0347
31774W        W47908   0.238  15.625   4.241 -0.0524 -0.3542 -0.1532
31775W        W47909   6.985   6.678   3.867  0.1333 -0.0117  0.1568
31776W        W47910   1.652   5.539   1.163  0.1403  0.2834  0.1474
31777W        W47911   7.539  13.125   3.782 -0.1369 -0.0817  0.0477
31778W        W47912   1.454  14.875   4.033 -0.2433 -0.1117  0.2976
31779W        W47913  12.675  15.186   1.329  0.0345 -0.1369 -0.2758
31780W        W47914   9.921   1.317  12.060 -0.0379 -0.4505  0.0399
31781W        W47915  14.782  16.286   0.105 -0.1947  0.2157 -0.0432
31782W        W47916   1.524   4.816   5.269 -0.1950  0.0958 -0.8018
31783W        W47917   3.509   8.979  13.412 -0.0249 -0.0699 -0.0784
31784W        W47918  16.623   2.646  16.878  0.2105 -0.0387 -0.0296
31785W        W47919   6.012   1.850  14.016 -0.2726  0.3841 -0.0536
31786W        W47920  16.152   1.707   0.524  0.2108 -0.2627 -0.0826
31787W        W47921  17.195  11.072   0.750  0.2585  0.1120  0.0401
31788W        W47922  15.487   5.516  12.303  0.0327 -0.0231 -0.0010
31789W        W47923  15.868   1.138  16.938  0.0859 -0.2955 -0.2725
31790W        W47924  15.225   9.864  16.009  0.0962 -0.0696 -0.0252
31791W        W47925   9.906   5.123   0.485 -0.0417  0.1458 -0.0484
31792W        W47926  14.554   6.167  14.783 -0.0845 -0.2360 -0.1677
31793W        W47927  11.703   6.756  14.518 -0.0552 -0.2581 -0.1612
31794W        W47928  16.213  11.254   1.300 -0.0939 -0.1038  0.5662
31795W        W47929  11.082  10.412  13.853 -0.0968 -0.0026 -0.1250
31796W        W47930   8.679  11.828   2.783  0.2687  0.3502  0.1218
31797W        W47931   7.473  10.585   2.390  0.0787 -0.0824  0.1017
31798W        W47932   4.911   1.516   2.395  0.1667  0.1169  0.0978
31799W        W47933  16.637   1.317  16.637 -0.2254 -0.2510  0.1547
31800W        W47934   6.919   1.358   0.461  0.0362 -0.0077 -0.0505
31801W        W47935   7.078   7.331   5.247  0.1205 -0.0867 -0.2248
31802W        W47936  15.795   0.513   1.417  0.0730  0.0009 -0.1362
31803W        W47937  16.613   7.870  15.918 -0.0631  0.1600  0.0288
31804W        W47938  14.632  10.521  13.103 -0.0678  0.0784 -0.2286
31805W        W47939  15.948   8.137  13.866 -0.1134 -0.1276 -0.0759
31806W        W47940   2.507   0.271   5.998 -0.0135  0.0762 -0.2404
31807W        W47941   6.918  14.017  15.593  0.0450 -0.3492 -0.1925
31808W        W47942  10.967   6.522  15.164  0.0911  0.2000  0.1109
31809W        W47943   3.637  10.412  13.078  0.1211  0.0125  0.0756
31810W        W47944  14.224  12.365  16.578 -0.0325  0.0883  0.2564
31811W        W47945  14.082   2.231   1.755  0.3347  0.0038  0.0104
31812W        W47946  15.812  12.703  15.597 -0.0236  0.1549 -0.3226
31813W        W47947   8.304   7.395  13.438  0.1544 -0.0224 -0.0798
31814W        W47948   5.484   3.519   3.522  0.1713 -0.0368  0.0686
31815W        W47949   7.209   2.187  13.320  0.0674  0.0673 -0.1189
31816W        W47950  15.447   6.420   0.230 -0.1364  0.0213  0.0052
31817W        W47951  13.678   6.215  15.491  0.0913 -0.2169  0.0438
31818W        W47952   8.586   0.256  16.722  0.1973 -0.1222 -0.0728
31819W        W47953   1.808   3.282  12.241  0.2658 -0.0920 -0.0545
31820W        W47954   3.537  13.985   6.451  0.0983 -0.2505  0.1319
31821W        W47955   2.257  15.426  14.838  0.3109 -0.3507 -0.0608
31822W        W47956  13.251   2.695   4.322 -0.1855  0.2096 -0.1675
31823W        W47957  15.187  10.878  12.263  0.3568 -0.0005  0.2225
31824W        W47958  12.798  14.274   1.490  0.4702 -0.0680  0.1381
31825W        W47959  15.672  14.713   6.891 -0.0059 -0.2602  0.1403
31826W        W47960   2.859   2.137   1.148  0.1910  0.3484 -0.2097
31827W        W47961   1.751   9.994   0.471  0.1398  0.0704  0.0354
31828W        W47962   3.636   4.949   6.078  0.4274  0.2485 -0.0372
31829W        W47963   7.646   5.508   1.395  0.2714  0.0605  0.1302
31830W        W47964   8.173  15.299   0.684  0.0372  0.0718 -0.1077
31831W        W47965   8.739  15.055  11.944 -0.1021 -0.0609 -0.4249
31832W        W47966  16.055  14.160   0.851  0.0033  0.0486 -0.0214
31833W        W47967   8.104  15.739   3.798 -0.2394  0.0231  0.2956
31834W        W47968   2.004  14.578  13.668 -0.2323 -0.1208 -0.1773
31835W        W47969  16.152   9.019  13.537  0.1073  0.0774 -0.2215
31836W        W47970   7.550  15.413   4.570 -0.0327  0.0038 -0.0608
31837W        W47971   3.679   8.660   3.276 -0.3854 -0.0366  0.4107
31838W        W47972   1.402  14.730  14.774  0.1823 -0.0396  0.2463
31839W        W47973   8.484   9.071   3.611  0.1065 -0.0875 -0.0138
31840W        W47974   9.988  15.480   2.814  0.1308 -0.1084 -0.1216
31841W        W47975  12.309   4.417  11.890 -0.0023  0.2863  0.1464
31842W        W47976   1.342  17.333   5.039  0.1356 -0.0615 -0.1439
31843W        W47977   3.218  10.230  15.949  0.0538 -0.1160 -0.2310
31844W        W47978  14.141   2.198  12.339 -0.0296  0.0853  0.0067
31845W        W47979   1.340  16.949   0.446 -0.0073 -0.1504 -0.1315
31846W        W47980  12.286   5.910   5.255 -0.2786  0.4646 -0.4116
31847W        W47981   4.185   9.031  14.096  0.3201  0.2691  0.0260
31848W        W47982   8.829  14.974  15.032  0.2284 -0.0549  0.2134
31849W        W47983   7.589   9.724  12.489 -0.3289 -0.1045  0.0468
31850W        W47984   1.105  14.003  16.512 -0.1395 -0.0100 -0.0471
31851W        W47985  15.582   1.734  12.703  0.0962  0.0245  0.0437
31852W        W47986  16.483   5.034   0.179 -0.0826 -0.0893 -0.1699
31853W        W47987   8.033   6.362   2.621 -0.2620 -0.0416 -0.0370
31854W        W47988  13.474   1.717  14.232  0.0322  0.1405  0.0140
31855W        W47989   9.336  10.564   3.978  0.0312 -0.0512  0.0884
31856W        W47990   8.634   7.547  15.163 -0.2101 -0.0801  0.0131
31857W        W47991  10.658   5.855   5.405 -0.0210 -0.0232 -0.0649
31858W        W47992  16.888   4.967   0.926 -0.1811 -0.0698  0.1011
31859W        W47993   8.939   7.809  12.552  0.1155 -0.3448 -0.2823
31860W        W47994   0.185  10.828   2.651  0.0677  0.1097  0.2390
31861W        W47995  13.945   4.685  14.977  0.1532 -0.0226 -0.0767
31862W        W47996   5.751   4.789   5.088  0.2263  0.3825 -0.0638
31863W        W47997  13.970   2.561  15.110 -0.1523  0.2661  0.0042
31864W        W47998   2.833   5.055  14.325  0.1057  0.0189 -0.1613
31865W        W47999   4.797   6.317  14.245  0.0679  0.3128  0.2044
31866W        W48000  12.781  16.468  13.643 -0.0705 -0.0444  0.1349
31867W        W48001  11.237  13.196   2.175  0.0067 -0.2295  0.1959
31868W        W48002   5.170  16.482  15.181 -0.0221  0.4449  0.0706
31869W        W48003   7.563   7.146   5.393 -0.0833 -0.1157  0.2298
31870W        W48004  12.370   6.945   3.037 -0.1323  0.1606  0.1416
31871W        W48005  15.447   0.199  16.854 -0.3548  0.1478 -0.0052
31872W        W48006   2.340  13.479   5.025  0.5271 -0.0378 -0.0607
31873W        W48007   2.938  10.615   3.650 -0.2163  0.0758  0.1073
31874W        W48008   7.025  11.677   5.633 -0.1613  0.1393 -0.0174
31875W        W48009   0.297   4.414  12.352 -0.1551  0.1682 -0.5448
31876W        W48010  15.050  12.233  15.363  0.0226 -0.0200 -0.1173
31877W        W48011   7.248  10.073   3.659 -0.1661 -0.0871  0.0539
31878W        W48012   6.409   8.139   0.491 -0.0403 -0.0324 -0.2864
31879W        W48013   7.499  11.424   1.115  0.1153  0.1134  0.1033
31880W        W48014   7.125  10.599  12.639  0.1239 -0.0727 -0.1196
31881W        W48015   8.758  15.987   4.189 -0.0190 -0.5253  0.2849
31882W        W48016  10.751  10.415  16.898  0.1341 -0.2003  0.0273
31883W        W48017  15.842  10.527  12.702 -0.0834  0.4009  0.1420
31884W        W48018   9.429   7.310   5.726 -0.0158  0.3081 -0.0885
31885W        W48019  16.578   8.545   5.585  0.0569 -0.1624  0.1353
31886W        W48020   3.535   8.652  15.310  0.1943 -0.4640  0.1930
31887W        W48021  10.153  10.388  15.524  0.1935 -0.1745 -0.0770
31888W        W48022   1.385  13.673  12.312 -0.0134  0.2265 -0.0529
31889W        W48023   6.910  11.454  17.068 -0.1926  0.0748 -0.1113
31890W        W48024  14.989  16.911  13.360 -0.4009  0.3073 -0.2011
31891W        W48025  15.807   3.615  15.665 -0.0949 -0.2123  0.1937
31892W        W48026   2.329   4.694   2.520 -0.0323  0.1493 -0.0784
31893W        W48027   2.667  16.145   0.838 -0.0070  0.1103  0.0469
31894W        W48028   5.800   6.153  12.723  0.1413 -0.2146  0.0972
31895W        W48029  13.366   7.564  17.103  0.3281  0.1086  0.2998
31896W        W48030   1.884  16.900   4.802  0.1513 -0.1435 -0.1533
31897W        W48031  16.381   2.523   5.381  0.2125 -0.1514 -0.0206
31898W        W48032  13.172   1.459   5.569  0.0654  0.0311 -0.0095
31899W        W48033  12.435  16.840  13.641 -0.3114  0.0924  0.0233
31900W        W48034   8.792   7.255  13.312 -0.2428 -0.1732  0.1081
31901W        W48035   4.257   7.895  14.070  0.0526  0.0119 -0.1917
31902W        W48036  13.245  11.483  15.000 -0.1170 -0.1328  0.1139
31903W        W48037  15.612  16.059   2.792  0.0879 -0.0215 -0.2899
31904W        W48038   9.713  11.132  15.491  0.0707  0.1322 -0.0288
31905W        W48039  16.494   0.022   2.104  0.4282 -0.2371  0.1189
31906W        W48040  12.572   3.661   3.110 -0.3789  0.1843  0.1571
31907W        W48041  14.448   4.791  15.061 -0.1390 -0.0418  0.0197
31908W        W48042   4.557   3.732  12.668 -0.1384  0.3390 -0.1317
31909W        W48043   9.374   1.859   0.600 -0.1033 -0.1983 -0.0125
31910W        W48044  11.288  14.480  14.052 -0.3076 -0.2415  0.0228
31911W        W48045   2.897   2.814  15.790 -0.1219  0.2312  0.4136
31912W        W48046   6.162   7.572   4.936 -0.0657 -0.0417  0.0254
31913W        W48047   7.926  10.547   0.056  0.1121  0.2092 -0.0572
31914W        W48048   8.160   1.624  15.254 -0.0914 -0.3356  0.0362
31915W        W48049   7.488   9.622   3.656 -0.2095 -0.0363 -0.2336
31916W        W48050  12.335   0.549   1.788  0.0305  0.2773 -0.1445
31917W        W48051   5.290   6.348  14.133  0.1245  0.0467  0.0002
31918W        W48052   1.023   9.074  13.005  0.1112  0.0643 -0.0678
31919W        W48053   6.501  15.269   6.500 -0.0384  0.1525  0.1636
31920W        W48054   8.624   7.031   2.393  0.1328 -0.1467 -0.1384
31921W        W48055   4.598   4.763   5.646 -0.0318  0.2590 -0.1863
31922W        W48056  12.330   2.990  11.540 -0.1801 -0.0441  0.1711
31923W        W48057  14.410   2.842   3.366 -0.2079  0.0088 -0.0751
31924W        W48058  17.423   3.760  12.011  0.1989  0.2171 -0.1237
31925W        W48059   9.565   2.050   0.030 -0.0074 -0.1314  0.0073
31926W        W48060  14.644   1.696  15.934  0.0933  0.2617 -0.1867
31927W        W48061   2.255  10.320  14.931 -0.2045  0.0127 -0.0361
31928W        W48062   6.514   4.619   4.272  0.3163  0.1951  0.0184
31929W        W48063   7.114   8.372  17.157  0.2912  0.1507  0.0468
31930W        W48064   5.039   6.391   0.360 -0.0414  0.1215 -0.2925
31931W        W48065  12.995   5.601  13.931  0.0268 -0.3656  0.4087
31932W        W48066   2.069  15.415  15.292  0.0987  0.2990  0.1847
31933W        W48067  17.084  16.479   0.513  0.0549  0.2891  0.1085
31934W        W48068   6.629  10.631   1.335  0.0781  0.3922  0.3083
31935W        W48069   5.497  10.538   0.700  0.0070 -0.0264  0.0670
31936W        W48070  17.109   5.148  14.962  0.3054  0.1619  0.1015
31937W        W48071   2.211  11.065   4.306  0.3398 -0.2105 -0.1229
31938W        W48072   4.192   0.441  13.222 -0.0200 -0.0763  0.1533
31939W        W48073  15.275   2.205  14.794 -0.1419  0.1287  0.0008
31940W        W48074  13.952  11.104   1.729  0.0940  0.1329 -0.0798
31941W        W48075   7.853  13.771  15.346 -0.1663  0.1289  0.0623
31942W        W48076  14.091  16.923   3.457  0.1270 -0.0355 -0.0442
31943W        W48077  12.820   2.150  15.482  0.2922 -0.0279 -0.0375
31944W        W48078  16.245   1.524  15.219 -0.1129 -0.0252  0.0808
31945W        W48079  12.357   4.067   4.888 -0.1817  0.0084  0.0271
31946W        W48080   0.846   7.820  11.744 -0.0483 -0.3379  0.0467
31947W        W48081  13.718   2.910  13.351 -0.1380 -0.2020  0.3101
31948W        W48082  11.522  13.398  13.419  0.0970 -0.2443  0.2670
31949W        W48083   4.027  10.636   4.064  0.1361 -0.1069  0.5195
31950W        W48084   9.663   0.386  14.562  0.1578 -0.2256 -0.0908
31951W        W48085  11.021   0.933  12.127  0.4613 -0.0527  0.1234
31952W        W48086   6.853   6.413  12.343 -0.1295 -0.1711 -0.0294
31953W        W48087   1.899   1.401   0.338  0.0292  0.2743  0.2567
31954W        W48088   2.915  10.364  16.821 -0.0103 -0.2023  0.0460
31955W        W48089   0.537  12.973   5.951  0.1047  0.1382 -0.2004
31956W        W48090   3.213  11.970   0.575 -0.0824 -0.0465  0.0519
31957W        W48091  11.035   2.081   5.122  0.2215 -0.1607 -0.0528
31958W        W48092  15.991  17.659   4.421  0.0434 -0.0313  0.2107
31959W        W48093  12.964   9.118   3.762  0.2508  0.3366  0.1661
31960W        W48094   2.348   2.640  17.024 -0.0741  0.1141  0.0562
31961W        W48095   4.273  16.982   5.155 -0.1353  0.1534 -0.1509
31962W        W48096   7.126  15.863  13.589  0.0414  0.3520 -0.2511
31963W        W48097  12.549   5.764  16.827 -0.1813 -0.3143  0.0504
31964W        W48098   7.360   9.260   4.578 -0.0599 -0.0237 -0.0504
31965W        W48099  13.306   8.692  15.071  0.0098 -0.1908  0.2663
31966W        W48100  11.514  10.281  16.082  0.1736 -0.0824  0.1194
31967W        W48101  15.215   1.387  13.019  0.1565 -0.0353  0.0571
31968W        W48102  13.719   8.148   5.410  0.0608  0.5656  0.1299
31969W        W48103  14.942   2.600   0.895  0.0009 -0.3085 -0.4070
31970W        W48104  13.032   7.829   0.292  0.2761  0.0895  0.1338
31971W        W48105   9.166   1.844   1.880  0.2221  0.2510 -0.0300
31972W        W48106   6.882   4.825   4.665 -0.0393 -0.2194  0.0648
31973W        W48107  12.213   4.559   1.711 -0.0131 -0.0358  0.2639
31974W        W48108  11.490  14.238   1.304 -0.0935 -0.0837  0.0743
31975W        W48109   5.289   9.429  14.407  0.4368 -0.2999  0.6064
31976W        W48110   1.450   6.442  13.062 -0.2304 -0.1263  0.1249
31977W        W48111  15.017  16.961  15.468  0.0341  0.2293  0.1622
31978W        W48112   5.884  14.671  16.954  0.0395  0.1196  0.0975
31979W        W48113   1.399  16.042   2.237 -0.1794  0.0421 -0.1430
31980W        W48114  11.614  16.819   1.085 -0.0554  0.1819 -0.1367
31981W        W48115  10.154   5.752  16.200 -0.1284 -0.0585 -0.1281
31982W        W48116   0.559   8.956   1.219  0.0337  0.0687 -0.2315
31983W        W48117   9.149  13.894  15.018  0.1499  0.1133 -0.2981
31984W        W48118   6.689   1.116   2.225  0.3296 -0.0352 -0.1650
31985W        W48119   9.378   0.203   2.088 -0.0576 -0.0702  0.2658
31986W        W48120  15.335  14.739   5.231 -0.2236 -0.1355  0.0254
31987W        W48121   0.976  14.468  12.965  0.0872 -0.0644  0.2549
31988W        W48122   4.490  13.083   4.669 -0.0907  0.1349 -0.0929
31989W        W48123  10.559  15.359   0.312  0.0409  0.2307 -0.2370
31990W        W48124  16.304   5.478   0.429  0.1274  0.0158 -0.0782
31991W        W48125   5.675   2.194   1.575  0.2867 -0.1359 -0.2029
31992W        W48126  11.422  16.999   0.226  0.1129 -0.1242  0.0016
31993W        W48127  17.235   7.526   1.887 -0.1148 -0.3790  0.0426
31994W        W48128  16.976   9.420  13.689 -0.0118  0.0334  0.4066
31995W        W48129  12.302  17.444   2.035 -0.0829  0.0730  0.1635
31996W        W48130   0.615   8.291  13.503  0.3928 -0.1362 -0.0367
31997W        W48131   4.630   5.399   2.163 -0.0052 -0.2045  0.1963
31998W        W48132  15.585   6.905  12.544  0.0300 -0.0583  0.0577
31999W        W48133   2.939   0.858   2.049 -0.0975 -0.0322  0.0827
32000W        W48134  16.596   4.231   4.205 -0.0480  0.4580  0.0517
32001W        W48135  17.121  14.579  14.003  0.3336  0.3655  0.0247
32002W        W48136  10.179   3.388  14.109 -0.1301 -0.2274 -0.0200
32003W        W48137   7.828  15.498   3.473  0.1636 -0.1740 -0.2352
32004W        W48138  15.537   3.984  14.848 -0.0742 -0.0136 -0.0225
32005W        W48139   2.821   3.750   3.548  0.2434  0.0144  0.3225
32006W        W48140   9.598   1.276  14.871  0.1366 -0.2322 -0.0760
32007W        W48141  14.862  11.729  12.649 -0.1180  0.3782 -0.0973
32008W        W48142  12.117   5.091   5.838  0.0220 -0.0931 -0.0209
32009W        W48143   6.017  16.481   4.218 -0.3202  0.2336 -0.1092
32010W        W48144   7.516  16.965  15.457 -0.1654 -0.2540  0.0160
32011W        W48145   9.189  17.614   2.919 -0.2764 -0.0615 -0.1794
32012W        W48146  11.332  14.690  15.505 -0.0899 -0.0239  0.2659
32013W        W48147   5.246  12.232   4.541 -0.1279 -0.0706 -0.3283
32014W        W48148  13.191   0.232   4.774  0.2424  0.2028 -0.0438
32015W        W48149  12.587   5.435  13.634 -0.4290  0.0092  0.2976
32016W        W48150   6.773   9.860   1.980 -0.4773  0.0803 -0.0676
32017W        W48151  14.110   1.703   4.684  0.2452  0.1065 -0.3603
32018W        W48152  13.766   6.958  14.410  0.0864 -0.1706  0.0849
32019W        W48153   3.066   6.674  16.451 -0.2010 -0.0261  0.0459
32020W        W48154   2.353  13.723  12.419  0.0624 -0.1125  0.1559
32021W        W48155  15.110   0.267  12.362  0.0056  0.1089 -0.0270
32022W        W48156  10.322   5.575   0.004 -0.0399  0.0709 -0.2892
32023W        W48157  12.083   2.342  11.993  0.1120 -0.0919 -0.1133
32024W        W48158   4.266   3.335   0.666  0.3308 -0.2709 -0.1073
32025W        W48159   1.029   1.481  12.817 -0.0186  0.0864  0.0040
32026W        W48160  13.549   1.215  13.370  0.0864 -0.2503 -0.0961
32027W        W48161  11.196   1.681  12.669 -0.0175  0.1866  0.0049
32028W        W48162   0.221  16.626   2.803  0.1313  0.1947  0.0590
32029W        W48163  14.721   9.594   4.790 -0.2848 -0.3486 -0.0078
32030W        W48164   2.281  12.349  16.473  0.0040 -0.0278 -0.0645
32031W        W48165   4.700   4.099  12.391 -0.2407 -0.0107  0.0253
32032W        W48166   6.544   5.210   2.224  0.0511 -0.2392 -0.2209
32033W        W48167  13.922   9.413   3.067 -0.3439 -0.0548 -0.0095
32034W        W48168   5.524  12.145   3.555  0.1390 -0.1635 -0.1649
32035W        W48169  13.940  13.326   1.324 -0.2064  0.3304 -0.0159
32036W        W48170  17.384  14.020   2.829  0.0214  0.3038 -0.3568
32037W        W48171  10.085  16.918  12.187  0.0082 -0.0177  0.2405
32038W        W48172   6.518  10.668   3.874  0.2064 -0.1065 -0.0130
32039W        W48173   4.357  16.706   0.729  0.2805  0.2164 -0.1126
32040W        W48174   0.564  14.649  13.754 -0.0323 -0.1174  0.0335
32041W        W48175   9.765  17.640   1.257  0.0396  0.0261  0.0137
32042W        W48176  14.774   4.681  15.696  0.0655 -0.2626 -0.1013
32043W        W48177   4.182   5.647   1.733 -0.0588 -0.2012 -0.0672
32044W        W48178  10.677   9.022   3.267  0.0873  0.0472  0.1713
32045W        W48179  15.794   6.821  16.521 -0.1661 -0.0784  0.0923
32046W        W48180   3.775   7.787   2.202 -0.3661 -0.2193 -0.0762
32047W        W48181   9.365  14.964  12.785  0.1090  0.2089  0.2161
32048W        W48182   3.910  13.463  14.906 -0.0091 -0.4302 -0.0091
32049W        W48183   5.938   7.824   5.353  0.1161  0.0770 -0.0353
32050W        W48184   3.741  16.290  11.975 -0.0583  0.2353  0.1949
32051W        W48185   4.406   9.568  16.183 -0.1412 -0.0341 -0.0558
32052W        W48186  11.844   2.722  16.461 -0.0080 -0.2623 -0.0836
32053W        W48187  16.581  17.510  12.568  0.0981  0.0992 -0.0807
32054W        W48188  15.250   0.769   6.019  0.0992  0.0442 -0.0307
32055W        W48189   3.488   1.237   3.036  0.3190 -0.0654 -0.1097
32056W        W48190  13.804   1.815   4.178 -0.2570 -0.0744 -0.0507
32057W        W48191   2.539  15.507  12.372 -0.2919  0.1736  0.1520
32058W        W48192   8.520   0.246   4.124  0.0292 -0.3720  0.1543
32059W        W48193   9.105  12.059   6.743  0.0536  0.1248 -0.1471
32060W        W48194  13.182   9.375  12.224  0.2099 -0.0165 -0.1287
32061W        W48195  12.756   6.203  15.076 -0.0257 -0.1622 -0.0367
32062W        W48196  10.782   0.343  12.375  0.0148 -0.0977  0.0769
32063W        W48197   3.003   5.713  13.992  0.1373  0.2723 -0.1728
32064W        W48198  16.634   5.620  11.528  0.0511  0.1170  0.1554
32065W        W48199  11.561   0.926  11.990  0.0657  0.1263 -0.1980
32066W        W48200   5.449  17.541   1.540 -0.2742 -0.0334 -0.0009
32067W        W48201   3.850   5.229  12.188 -0.0905  0.0514 -0.0268
32068W        W48202  10.589   5.422  16.056 -0.3811 -0.0666  0.2347
32069W        W48203   7.556   5.556  15.609 -0.1715  0.1684  0.1672
32070W        W48204   9.025  13.026  14.690  0.2000 -0.0907 -0.0763
32071W        W48205   1.356  15.537   0.945 -0.0476  0.0922 -0.1860
32072W        W48206   1.181  11.363  15.528 -0.2738  0.0062  0.3459
32073W        W48207  13.050  11.305  11.214 -0.0587  0.1476  0.2313
32074W        W48208  11.535   8.863   0.257 -0.2684  0.1862 -0.0254
32075W        W48209   6.351  10.911  15.857  0.1892  0.0573  0.2213
32076W        W48210   2.743  16.716   4.443  0.1931 -0.1655 -0.0755
32077W        W48211  17.301   3.442   3.134 -0.3321 -0.1546  0.0336
32078W        W48212   5.546  17.371   0.166  0.0999  0.1284  0.0608
32079W        W48213   4.863   6.648  16.393  0.1820 -0.0460  0.0926
32080W        W48214   6.209   8.099   4.661  0.0634 -0.2557  0.1636
32081W        W48215  15.971   4.328  16.402  0.1265  0.1209  0.0096
32082W        W48216   8.382  12.562   2.428 -0.1028 -0.0959 -0.0970
32083W        W48217  11.450  11.868  14.481 -0.0424 -0.2026  0.0985
32084W        W48218  12.139   1.386  13.077  0.1856  0.0855 -0.0235
32085W        W48219  16.328  11.352   2.868 -0.0778  0.0203 -0.0042
32086W        W48220  10.400   2.911  13.482  0.1804  0.0994  0.2253
32087W        W48221   1.077  17.495   5.457 -0.1710  0.0686  0.2493
32088W        W48222  12.876   3.025   1.800 -0.0765 -0.2252 -0.2108
32089W        W48223   5.220   1.256   5.742 -0.1767 -0.1426  0.2732
32090W        W48224  10.282   8.536   1.744 -0.1055  0.0371  0.0773
32091W        W48225   1.119   8.079  13.361  0.1946 -0.0293 -0.2614
32092W        W48226  16.043   1.994  15.324 -0.0726  0.1018  0.4069
32093W        W48227  16.831   5.002  12.715  0.0189  0.0322  0.2819
32094W        W48228  16.715  16.239   1.293 -0.0121  0.0240 -0.0053
32095W        W48229   7.873  11.532   2.176  0.1221  0.0208  0.2769
32096W        W48230  14.088  14.300   0.924 -0.0154 -0.0109  0.1025
32097W        W48231   8.371   5.882   4.240 -0.0999 -0.0365 -0.0789
32098W        W48232  16.626   0.706  13.675 -0.0609  0.0465 -0.2956
32099W        W48233   3.825  14.720   1.637 -0.0283  0.2732  0.1874
32100W        W48234   5.532   6.142   2.387 -0.2925  0.1580 -0.1405
32101W        W48235  16.861   1.211   1.878 -0.3396 -0.1553  0.0244
32102W        W48236  12.563   4.372  13.461 -0.0582  0.2437  0.1613
32103W        W48237  13.703   9.817  15.459  0.1781 -0.2862 -0.0420
32104W        W48238  12.788   0.816   3.105 -0.0697 -0.1128  0.1017
32105W        W48239  13.262  11.288  12.512  0.2320 -0.2909  0.0147
32106W        W48240  14.982  16.542   1.951  0.0181 -0.0254 -0.4056
32107W        W48241  12.786   8.376  13.598  0.0667  0.0620  0.0085
32108W        W48242  11.926   2.063  15.162  0.1212  0.3161 -0.2219
32109W        W48243   6.211   8.644  13.478 -0.3798 -0.1312 -0.2604
32110W        W48244   7.643  10.509   5.727  0.2745  0.0935  0.0016
32111W        W48245   5.709   9.325  17.102 -0.1285 -0.0607  0.1761
32112W        W48246   4.564  11.770  14.965 -0.2586 -0.0527 -0.3415
32113W        W48247  10.279  12.112  16.193  0.3855 -0.1214  0.2300
32114W        W48248   7.998  15.300  12.468 -0.5442  0.1103 -0.0930
32115W        W48249   5.597  12.837  16.720  0.1348 -0.2697 -0.1885
32116W        W48250   1.389  17.238  13.817 -0.2238  0.1314 -0.0136
32117W        W48251   8.439  16.547  14.446  0.2383 -0.0256  0.0991
32118W        W48252  17.648   9.848   4.173 -0.3688 -0.2417 -0.1110
32119W        W48253   5.728  13.630   5.663  0.0989  0.0404  0.0695
32120W        W48254   9.359  17.663  14.206 -0.3240 -0.1597  0.2454
32121W        W48255  14.969  12.463   4.686 -0.2673  0.0280  0.1449
32122W        W48256  10.553   2.754   2.126  0.2413 -0.0532 -0.0606
32123W        W48257   9.635  11.652  14.501 -0.0702 -0.2886  0.1003
32124W        W48258   9.593  13.737  14.780  0.1289  0.2362 -0.0505
32125W        W48259  16.319   4.028  16.646  0.1246 -0.2184  0.0929
32126W        W48260  15.245   6.520  13.314  0.1193 -0.0973  0.0176
32127W        W48261  15.104   4.646  14.332  0.0880  0.0559 -0.1642
32128W        W48262   6.919   4.660   3.912  0.0642 -0.0340 -0.2465
32129W        W48263   1.823   8.050  11.702  0.0289  0.2488 -0.3266
32130W        W48264   3.799   7.653   1.097  0.2742  0.0021  0.0235
32131W        W48265   4.221   6.831   3.364  0.2189 -0.1164 -0.0664
32132W        W48266   2.418   5.477  16.139  0.1850 -0.1028  0.0680
32133W        W48267  14.491   0.529  12.636  0.0686  0.1197  0.0375
32134W        W48268  11.238   1.921   3.430 -0.2566  0.0147 -0.1834
32135W        W48269  12.165  10.625  12.444 -0.1647  0.1416 -0.2870
32136W        W48270  15.985   6.837   4.516 -0.0542 -0.1329  0.0571
32137W        W48271  14.578  17.160   1.648 -0.4300 -0.3344  0.0637
32138W        W48272   0.805   4.586   0.082 -0.0819 -0.0452 -0.2061
32139W        W48273  12.131  10.841   1.931  0.2563  0.2231 -0.0770
32140W        W48274   2.454   6.598   1.713 -0.1968 -0.0613 -0.4770
32141W        W48275   7.555  13.206  13.956 -0.1813 -0.3888  0.1499
32142W        W48276  11.921   4.717  13.193  0.0475  0.2175 -0.1247
32143W        W48277  11.064  14.831   0.837 -0.1188  0.0145 -0.2222
32144W        W48278   8.850  10.136  11.644  0.1333  0.0001  0.2140
32145W        W48279  14.347   1.585  16.387  0.0571  0.2862  0.1686
32146W        W48280   8.584   2.321   2.550  0.1437  0.1785  0.0161
32147W        W48281   7.627  13.962  16.660  0.3005 -0.1192 -0.4407
32148W        W48282   0.380  11.046  12.982  0.1139 -0.1113  0.0829
32149W        W48283  11.966   9.788   1.892 -0.1847 -0.0959 -0.1162
32150W        W48284   5.636  10.044   0.640 -0.0103 -0.1742  0.1739
32151W        W48285   4.364  11.289  16.743 -0.1465  0.2824 -0.0189
32152W        W48286  11.614   7.006   2.299 -0.0789 -0.0309  0.1314
32153W        W48287  10.937   5.841   3.077 -0.1566 -0.0269 -0.1502
32154W        W48288  16.857   6.920  12.061  0.1131  0.0820  0.0442
32155W        W48289   2.496   5.605   4.451  0.1214 -0.2904  0.1929
32156W        W48290   6.766   7.261   1.529  0.2448  0.0153 -0.1710
32157W        W48291   1.456  10.914  16.335 -0.0809  0.4012  0.4612
32158W        W48292   2.088   9.714   1.695  0.0741 -0.0118 -0.3201
32159W        W48293  10.037   6.617  13.840 -0.1583  0.1490 -0.1845
32160W        W48294   2.219   7.736  12.001 -0.1426  0.0360  0.2734
32161W        W48295   9.665  12.420   0.302 -0.2587 -0.1370  0.0022
32162W        W48296  10.963   3.133   2.046 -0.2119  0.1440 -0.2844
32163W        W48297   4.241   3.870   3.447  0.1137 -0.3123  0.3332
32164W        W48298   5.047   9.246  15.886  0.0605 -0.1620 -0.0179
32165W        W48299   3.556  10.386   6.307  0.1786 -0.1058  0.1181
32166W        W48300  11.746  14.062  14.691  0.0574 -0.1321 -0.3545
32167W        W48301  13.308   3.289  13.017  0.1109  0.1057 -0.1481
32168W        W48302   4.026   9.403   3.409 -0.0319  0.1481  0.0738
32169W        W48303   6.526   1.517  16.491  0.0774 -0.2701  0.1137
32170W        W48304  16.163  10.738  11.581 -0.1280  0.2396  0.0602
32171W        W48305   3.330   9.189  14.631  0.0031 -0.3154  0.0842
32172W        W48306   3.161  10.991   0.828  0.2006  0.0921  0.2583
32173W        W48307   8.723  17.277  13.214  0.0881  0.4130  0.2852
32174W        W48308  16.928  11.728  12.537 -0.1610  0.3776  0.4441
32175W        W48309  14.857  10.078   4.165 -0.2750  0.0392  0.0663
32176W        W48310   1.415  16.268   1.010 -0.2151  0.1551  0.0275
32177W        W48311   5.423   9.987  11.840 -0.0473 -0.1318  0.1500
32178W        W48312   8.112  10.406  15.130  0.3048  0.2368 -0.1286
32179W        W48313   6.936   3.530  13.074 -0.1243 -0.2173  0.3351
32180W        W48314  17.662  11.865  11.704  0.0390 -0.0818 -0.0988
32181W        W48315   3.789  16.289  15.530  0.0259  0.1730  0.0437
32182W        W48316   2.542   7.707  15.437  0.0968  0.0853 -0.1211
32183W        W48317  11.799   1.699  14.437 -0.0418  0.0025 -0.0705
32184W        W48318  11.266  10.613  14.281  0.1785 -0.3096 -0.1497
32185W        W48319  17.087  11.766  12.070 -0.3719 -0.1022  0.1147
32186W        W48320  11.442  12.213   4.258 -0.0265  0.0558  0.1101
32187W        W48321   8.467  13.705  12.495 -0.0958 -0.2840  0.0812
32188W        W48322   4.787  12.361   6.543  0.0649  0.1015 -0.1343
32189W        W48323   6.208   3.951  14.380 -0.1085  0.0190 -0.1264
32190W        W48324  11.311  10.795   1.770  0.4036 -0.0788  0.2365
32191W        W48325   6.184  16.018  16.376 -0.0473 -0.0404 -0.1402
32192W        W48326  13.696  11.768  15.062  0.1140 -0.2075 -0.3132
32193W        W48327  11.448  13.556   3.045  0.0840  0.0911  0.0869
32194W        W48328   2.514   6.125   1.896  0.0638  0.0515  0.0195
32195W        W48329   4.339   1.277   3.376 -0.0004  0.1024 -0.0096
32196W        W48330   9.066   1.701  13.671 -0.2697 -0.0383 -0.0094
32197W        W48331   9.155  11.886  15.209  0.1155 -0.0847 -0.1118
32198W        W48332  15.649   9.696   0.688 -0.3187  0.2251 -0.0886
32199W        W48333   4.190  13.841  15.294 -0.0487 -0.1775  0.0586
32200W        W48334   7.500  10.986   4.967 -0.0621  0.2075 -0.2163
32201W        W48335   6.597   7.149  15.148 -0.1784  0.2706  0.0400
32202W        W48336  11.213   5.374  15.579 -0.2908  0.1416  0.1436
32203W        W48337  12.392  14.413  13.209 -0.3300 -0.0342 -0.2264
32204W        W48338   3.882   3.292   1.035  0.1440  0.3383  0.0955
32205W        W48339  13.411   4.578   4.126 -0.1552  0.0436  0.0499
32206W        W48340   1.808  11.274   4.070 -0.1273  0.1878 -0.0707
32207W        W48341   2.230   9.942  15.906 -0.0298  0.2492  0.0587
32208W        W48342   9.454   4.695  16.033  0.1106  0.0273  0.3359
32209W        W48343  14.040  14.067  15.664 -0.0734  0.0710  0.2634
32210W        W48344  13.394   4.612   0.991  0.0030  0.1011 -0.0202
32211W        W48345   0.905  12.019   2.502  0.0091  0.0068  0.4163
32212W        W48346   6.234   0.697  12.546  0.2560  0.0364 -0.1398
32213W        W48347  12.347  11.082  14.207  0.1829  0.1331 -0.4196
32214W        W48348  11.088  16.520  11.784  0.0789 -0.0991  0.3143
32215W        W48349   6.767  15.867  14.575  0.0820  0.0665  0.1121
32216W        W48350  11.616   2.580   4.582  0.1892 -0.3666 -0.1702
32217W        W48351   3.350   1.268   1.528  0.0025  0.0872  0.3540
32218W        W48352   6.619   1.073   1.692 -0.1857 -0.1683 -0.0710
32219W        W48353   1.723   6.310   3.353 -0.1336 -0.2434  0.2350
32220W        W48354   2.904   0.945  14.375 -0.0946 -0.4004  0.1976
32221W        W48355  16.986  17.388  15.188 -0.0200 -0.2025 -0.0763
32222W        W48356   5.662   7.765  13.654  0.1648 -0.1636  0.5790
32223W        W48357   0.850   6.239  12.192  0.0954 -0.0028 -0.0180
32224W        W48358  17.202  14.118  13.101 -0.0413  0.0653 -0.0465
32225W        W48359  15.576  13.118   2.496  0.2379 -0.1322  0.0216
32226W        W48360   2.394  10.739  15.334  0.2095  0.2162  0.0025
32227W        W48361  11.790   0.198   5.510 -0.0562 -0.2515 -0.1790
32228W        W48362   4.412   5.591   2.642  0.3058  0.0754 -0.1834
32229W        W48363   9.183   7.265   3.507  0.0677 -0.0927  0.1363
32230W        W48364  17.021   7.596   4.729  0.0693 -0.0153 -0.1819
32231W        W48365   2.049  13.519  13.643 -0.0724 -0.2830  0.1259
32232W        W48366   1.390   6.324   5.367 -0.1293  0.2059 -0.5600
32233W        W48367  16.856   3.900   4.826  0.0401  0.0723  0.0394
32234W        W48368  16.980   9.225   5.508  0.3495 -0.0453 -0.2268
32235W        W48369   8.802   9.617   0.764  0.0693  0.1620  0.0953
32236W        W48370   8.010  12.644   2.112  0.1185 -0.0100  0.0626
32237W        W48371   0.701   6.724  13.766  0.0782  0.0730 -0.1152
32238W        W48372   9.787  14.374   4.299  0.1166  0.1038  0.1451
32239W        W48373   0.842   4.684  13.807  0.1479  0.1403  0.1560
32240W        W48374  16.833   3.138  12.576 -0.4164  0.1811 -0.1390
32241W        W48375   3.637  13.959   2.057 -0.2756 -0.3167 -0.0304
32242W        W48376   7.173   2.787  12.495 -0.2160  0.1360 -0.1872
32243W        W48377   4.316   5.008   4.623  0.0350  0.0124 -0.3041
32244W        W48378  13.751  17.031  13.333 -0.3003  0.0160 -0.1343
32245W        W48379  11.852  14.058  12.017  0.3927  0.3024 -0.2099
32246W        W48380   6.815   8.631  15.619 -0.6317  0.1049  0.0260
32247W        W48381  14.523  15.669  16.594  0.1029  0.1604 -0.0965
32248W        W48382   3.697  13.401  14.218 -0.1283 -0.2798 -0.0318
32249W        W48383   6.848   5.636   4.495 -0.1635 -0.1713 -0.0124
32250W        W48384   4.154  11.037   1.183 -0.1726  0.0209 -0.0931
32251W        W48385   8.613   1.211  10.674  0.1020  0.0585  0.2062
32252W        W48386   2.596  16.381  13.094 -0.1624  0.1836 -0.2374
32253W        W48387   2.843  11.830  16.666  0.3668  0.1431  0.0617
32254W        W48388   1.419  10.205  15.020 -0.1570 -0.4376  0.1825
32255W        W48389  12.169   6.899   1.509  0.1891  0.1777 -0.1887
32256W        W48390  14.579  15.695   6.784  0.0630 -0.1582 -0.1437
32257W        W48391   7.269   4.686   0.476 -0.0686  0.0698  0.3359
32258W        W48392   1.341   7.991  11.757 -0.2327  0.1670  0.0171
32259W        W48393   0.310  11.747   5.598 -0.1610 -0.0759 -0.1070
32260W        W48394   9.599   7.345   1.326  0.1402  0.2582  0.1711
32261W        W48395   1.693  14.495  14.456  0.0841 -0.3257 -0.1236
32262W        W48396   1.322   0.309  17.091 -0.2081  0.1832  0.1621
32263W        W48397   4.331   3.652  13.548 -0.2477  0.1377  0.0425
32264W        W48398   3.342  10.536   0.239 -0.1366  0.3936 -0.1696
32265W        W48399   7.740   4.712   2.682  0.1781  0.1943  0.0810
32266W        W48400  16.001   9.641   4.904  0.1516 -0.0635  0.2235
32267W        W48401   3.610   5.084   4.641  0.1744 -0.1176  0.2851
32268W        W48402  12.805   0.891  16.136 -0.0001  0.3432 -0.0379
32269W        W48403  15.562   5.069  16.456 -0.0405 -0.0536  0.0247
32270W        W48404   9.819   3.784  14.893  0.0676  0.1027  0.1129
32271W        W48405   2.427   0.984   3.419 -0.0855 -0.3333  0.1330
32272W        W48406  17.304  15.760   0.715  0.0471 -0.0931 -0.0733
32273W        W48407  17.523   5.751  14.196 -0.0911  0.5217  0.1423
32274W        W48408   1.879  12.214  14.753  0.0398 -0.0109 -0.0788
32275W        W48409  15.395  15.255   2.837 -0.2005 -0.0022  0.0629
32276W        W48410   4.793  13.350   3.413 -0.0884  0.1031 -0.1212
32277W        W48411   9.688  10.921   2.709 -0.0239  0.0198  0.0355
32278W        W48412   7.938  12.229   4.974 -0.2021 -0.1352  0.0331
32279W        W48413  12.126  14.702  14.947 -0.1411  0.2483  0.3144
32280W        W48414  14.585   9.436  13.773  0.1130  0.3333 -0.2550
32281W        W48415   1.532  13.954   1.616 -0.1037  0.1183  0.3318
32282W        W48416  17.530  11.305  15.462 -0.1521  0.1770 -0.1485
32283W        W48417  12.055  17.096  11.340 -0.0264  0.0500  0.2262
32284W        W48418   9.683   9.282  12.791  0.1523  0.1200 -0.1244
32285W        W48419  16.645   7.586  15.221  0.3528 -0.0661  0.1822
32286W        W48420   8.323   6.446   6.189 -0.2794 -0.0259  0.0978
32287W        W48421   1.213  12.752   0.786 -0.1049 -0.1135  0.2321
32288W        W48422   4.858   9.358  14.231 -0.0950 -0.3190 -0.1103
32289W        W48423  13.292   8.174  16.331 -0.0244  0.1113 -0.1438
32290W        W48424   8.257  15.086   1.199 -0.0096  0.0879 -0.3276
32291W        W48425  17.559  10.102  16.376  0.0690 -0.1003 -0.2040
32292W        W48426   0.346  16.466  14.180 -0.1405  0.0606 -0.0757
32293W        W48427  14.989  12.246   1.779  0.2787 -0.1443  0.2373
32294W        W48428  14.042  10.320  16.756 -0.1276 -0.0402 -0.1863
32295W        W48429  17.412   3.645   0.183 -0.3639  0.0119 -0.1275
32296W        W48430   8.860  14.424  16.413  0.0946  0.0035  0.0799
32297W        W48431   8.748   8.992   2.892  0.2066 -0.1816 -0.2678
32298W        W48432   7.259  17.622   0.319 -0.0171 -0.2345  0.0573
32299W        W48433   6.430  10.179   5.108  0.1357 -0.1495  0.3049
32300W        W48434   5.057   2.756   1.754 -0.2030 -0.3223  0.1983
32301W        W48435  12.407  11.978   4.219 -0.1366 -0.0725  0.1878
32302W        W48436   1.870  16.101   2.633 -0.0592  0.0127 -0.1231
32303W        W48437   1.253   3.388  14.326 -0.0726  0.1271 -0.5163
32304W        W48438   1.880   9.598  11.895 -0.0475 -0.0964 -0.0869
32305W        W48439   3.035  13.460   4.743 -0.0749 -0.2079 -0.0715
32306W        W48440  16.001   3.057  16.235 -0.0892 -0.0259  0.0017
32307W        W48441   9.971   3.904   3.171  0.0345 -0.0992 -0.0651
32308W        W48442   9.915   8.681  16.765 -0.2030 -0.3503  0.3303
32309W        W48443  14.847   3.651   1.780 -0.2760  0.2332 -0.1741
32310W        W48444  12.432  11.355   0.005  0.3671 -0.1094  0.1437
32311W        W48445  11.717   0.837  14.688 -0.0471 -0.1615 -0.1414
32312W        W48446   4.698  10.296   0.056 -0.1673 -0.0733  0.1359
32313W        W48447  14.670   7.363  16.247 -0.0439  0.4039 -0.0684
32314W        W48448   3.953  12.749   4.208  0.1393  0.1286  0.2303
32315W        W48449   5.715  11.953   4.007 -0.1203 -0.2492 -0.2085
32316W        W48450   1.760   0.146   3.110 -0.1977 -0.0359  0.1556
32317W        W48451   7.724   4.006   1.875 -0.0378 -0.0813 -0.0786
32318W        W48452   2.455   0.306   0.903  0.1196  0.1656  0.3239
32319W        W48453   3.573   2.007  12.652  0.0589  0.0566  0.3747
32320W        W48454   5.464  15.270   1.592  0.0534  0.0902 -0.0119
32321W        W48455  17.272   9.847  13.905  0.1058  0.0588 -0.0411
32322W        W48456   6.620  12.823  15.580 -0.1150 -0.0591  0.1200
32323W        W48457   5.335   7.864  13.309  0.0341 -0.3420 -0.3454
32324W        W48458  14.990  15.402  15.238 -0.1746  0.0164 -0.1172
32325W        W48459  11.960  12.832   5.265 -0.6020 -0.1663  0.3551
32326W        W48460   4.971   9.801   2.355 -0.1342 -0.0349  0.0893
32327W        W48461  16.634   0.284   1.707 -0.0047 -0.1698  0.0859
32328W        W48462  10.801   4.182  12.851 -0.0989  0.1602 -0.0455
32329W        W48463   7.524   5.577   0.415  0.0464  0.0684  0.1252
32330W        W48464   3.596  15.574   0.667 -0.0280 -0.1439 -0.0054
32331W        W48465  13.145   6.024  12.968  0.0664 -0.1659 -0.0124
32332W        W48466   7.461  15.609  13.416  0.0274 -0.0152  0.1316
32333W        W48467   4.372  15.253   4.901  0.0860  0.0538  0.1455
32334W        W48468  12.532  14.861   4.409 -0.0860 -0.0681 -0.0648
32335W        W48469  15.516  12.370  12.513 -0.1909 -0.2316 -0.2025
32336W        W48470  13.611  10.099   3.992 -0.1895  0.2912  0.0801
32337W        W48471  15.210  12.730   3.656 -0.1895  0.1729  0.0896
32338W        W48472  14.419   8.882   1.085 -0.0146 -0.0819 -0.1475
32339W        W48473   3.139   9.554   5.265 -0.0724  0.1954  0.1305
32340W        W48474  14.839  13.309   0.665  0.0914  0.2036  0.1147
32341W        W48475   7.703   8.067  16.506  0.2185 -0.0496  0.1292
32342W        W48476   3.570  15.222   4.590  0.1886 -0.0787 -0.1835
32343W        W48477   0.824  12.758  13.542  0.4608  0.0109 -0.1012
32344W        W48478   5.567  12.087   2.660  0.0403 -0.0014  0.1379
32345W        W48479  15.586   5.716  16.581 -0.2867 -0.1758  0.0700
32346W        W48480   2.011   9.377   0.537  0.1591  0.1094  0.1186
32347W        W48481   1.117  14.501  13.473  0.0905 -0.0648 -0.1229
32348W        W48482  11.300   2.245   1.835  0.1339 -0.3153  0.1495
32349W        W48483  11.999   4.046  11.873  0.2417 -0.1813  0.0801
32350W        W48484  16.843  13.733   2.841 -0.0005  0.2996 -0.3604
32351W        W48485  12.072  13.678  14.898 -0.2523  0.1283  0.0537
32352W        W48486  16.107   3.871   1.188  0.5570  0.3042  0.0655
32353W        W48487   5.889   3.739  17.094 -0.1190 -0.0338  0.1133
32354W        W48488  10.542   2.248   2.995  0.0170 -0.0266  0.0270
32355W        W48489  13.954  12.280  13.640 -0.1609  0.1256  0.1135
32356W        W48490  16.803  15.000   1.272  0.0338 -0.1079  0.1325
32357W        W48491   9.794   5.004  10.879 -0.1597  0.0153  0.0563
32358W        W48492   3.050  13.987  16.460 -0.3132  0.0362  0.1435
32359W        W48493  12.651  12.488   4.402  0.2858 -0.0146  0.0657
32360W        W48494  14.249   2.652   4.479  0.0323 -0.2320  0.5014
32361W        W48495   7.310   7.479  15.107 -0.4620 -0.3212  0.1266
32362W        W48496   9.247   0.251  14.810 -0.0758 -0.1408 -0.0087
32363W        W48497  16.264  13.351  12.581  0.2198  0.2487  0.3248
32364W        W48498   2.994  11.545   2.854  0.0145 -0.0452 -0.2138
32365W        W48499  12.053  11.210  15.402  0.2797 -0.3232 -0.1264
32366W        W48500  11.918   7.581  13.044  0.0386 -0.0843  0.1822
32367W        W48501  14.447  17.385   2.581  0.0864  0.0235 -0.4374
32368W        W48502   5.944  13.793   5.233  0.2596 -0.3498  0.0269
32369W        W48503  13.934  14.784   3.820 -0.2869 -0.2115  0.1004
32370W        W48504  15.958  16.958   5.674  0.2864  0.1808 -0.0600
32371W        W48505  10.686   4.165  14.600 -0.0031  0.1230 -0.0290
32372W        W48506   2.256   1.415  14.593 -0.0160  0.1432 -0.1229
32373W        W48507   9.100   2.992  17.158  0.3515  0.1327  0.1282
32374W        W48508   2.505   4.621   2.039 -0.2392 -0.0575 -0.1519
32375W        W48509   1.180   6.719   3.815 -0.0582  0.0290 -0.2868
32376W        W48510   1.921   5.728   3.334 -0.0977 -0.1421  0.0638
32377W        W48511   5.663   3.959   1.679  0.3271  0.0770  0.0004
32378W        W48512   2.626   0.980   4.750  0.0931  0.2312 -0.1579
32379W        W48513  11.417   7.804  13.238 -0.0808 -0.0772 -0.1641
32380W        W48514  14.867   9.680  16.494  0.1731 -0.1393  0.2456
32381W        W48515   4.776  13.831   3.956  0.2906  0.3456 -0.1123
32382W        W48516  12.993  11.035   6.271 -0.0446 -0.0686  0.0895
32383W        W48517  10.782   6.533  15.973 -0.1972  0.2158 -0.3676
32384W        W48518   4.972   2.231  14.975  0.1999 -0.0619  0.0718
32385W        W48519   7.636   5.432   4.235  0.0570  0.0373 -0.0671
32386W        W48520  12.513   5.048   5.233 -0.2266 -0.0096  0.2324
32387W        W48521  10.765  14.044   0.963 -0.0335  0.1420  0.0384
32388W        W48522   4.274   4.301   0.610 -0.1793  0.1691 -0.0620
32389W        W48523   3.623   1.345   1.995 -0.0735 -0.2616 -0.3076
32390W        W48524  15.140   7.233  11.911  0.1602  0.2235  0.1830
32391W        W48525   3.546   6.312   0.513  0.1352  0.0824  0.5738
32392W        W48526   3.308  11.286   4.415 -0.1655 -0.0780 -0.1027
32393W        W48527   4.445  10.642   1.159  0.0012 -0.0111 -0.2246
32394W        W48528   6.068   5.111   3.116 -0.0766  0.1052 -0.0613
32395W        W48529   2.619  14.587  12.730 -0.1874 -0.0126  0.2084
32396W        W48530  10.696   5.203  12.610 -0.0445 -0.0549  0.2147
32397W        W48531   6.173   2.260  13.095  0.1180 -0.2570 -0.1179
32398W        W48532  11.189   3.520   4.573 -0.2240 -0.1955 -0.2448
32399W        W48533  13.057   2.452   1.734  0.1722 -0.1549 -0.0560
32400W        W48534  13.300  10.447  15.337  0.0851 -0.2820 -0.2732
32401W        W48535  14.496  12.711  15.797  0.0212 -0.0869 -0.1488
32402W        W48536   0.664   3.972  15.645 -0.1412  0.2815  0.1150
32403W        W48537   7.261  16.732   3.879 -0.2661 -0.2312 -0.0551
32404W        W48538   0.962  13.135   5.733 -0.2011 -0.0212 -0.1400
32405W        W48539   5.455  17.541   3.220 -0.1862  0.4053 -0.0220
32406W        W48540   8.503  16.463   4.045  0.1215  0.1572 -0.0622
32407W        W48541   3.688   2.275  15.733  0.3570  0.2145  0.0538
32408W        W48542   4.623  13.161   2.925 -0.1273 -0.2672  0.1013
32409W        W48543  17.517  16.643  11.429  0.1599 -0.2966 -0.0184
32410W        W48544   2.370   1.939   3.126 -0.2273 -0.4008 -0.0719
32411W        W48545  10.182  16.899  13.563 -0.0189  0.1315  0.2435
32412W        W48546  16.979   4.400   1.150  0.3853 -0.2072  0.0205
32413W        W48547   2.158   6.397   3.609  0.1229  0.1572 -0.5666
32414W        W48548  16.075  11.515  16.270  0.1173  0.0156  0.1324
32415W        W48549   3.182  15.940  13.678  0.0751 -0.0733 -0.2338
32416W        W48550   7.115   3.905   2.255 -0.0869 -0.3193  0.0179
32417W        W48551   3.363   3.377   5.877  0.0692  0.0069  0.3618
32418W        W48552  14.841  15.326   0.245 -0.1035 -0.0430  0.1597
32419W        W48553   4.776  17.101  15.563 -0.0153 -0.0950  0.0443
32420W        W48554   8.493   1.213  11.925  0.2069  0.0923 -0.3610
32421W        W48555   2.743  15.935   2.766  0.2732  0.2824 -0.2903
32422W        W48556  16.049   9.137   0.425 -0.0838 -0.0661  0.0410
32423W        W48557   7.614   8.570  13.409  0.0507  0.0175 -0.0646
32424W        W48558  16.877   3.177  13.114  0.4410 -0.1840 -0.2027
32425W        W48559  14.559  14.290   3.438 -0.3081 -0.0948  0.1645
32426W        W48560   8.603   9.637   4.536  0.0040  0.0822  0.1857
32427W        W48561   6.660   2.294   5.682 -0.2512  0.0420  0.0285
32428W        W48562  16.639   4.884   4.510  0.1170  0.0988  0.0661
32429W        W48563  10.740  13.185   5.864 -0.0728 -0.1713 -0.1869
32430W        W48564  14.226  12.417   0.313  0.2684 -0.2360  0.1143
32431W        W48565  14.877  15.537   4.571 -0.2004 -0.3762  0.2537
32432W        W48566  10.328   0.775   5.150  0.1232  0.4152  0.2302
32433W        W48567   0.544   1.652   1.059  0.0100 -0.1255  0.1001
32434W        W48568   8.118   8.171   0.698  0.1213  0.4509 -0.3359
32435W        W48569   4.706   6.039   3.830  0.0384 -0.0408  0.0511
32436W        W48570  15.012  11.090   5.705  0.1565 -0.0334  0.6703
32437W        W48571  13.377   3.503   4.035  0.1462  0.1122  0.2976
32438W        W48572   0.083   6.815   4.714 -0.0576  0.0195 -0.0658
32439W        W48573   9.969  17.275  14.513  0.0914 -0.4366 -0.1249
32440W        W48574   3.862   3.334  16.176 -0.1617 -0.0129  0.2853
32441W        W48575  16.112   1.747   2.308  0.1119  0.2807 -0.0351
32442W        W48576   5.459   4.039   1.166 -0.0933  0.1254  0.0240
32443W        W48577   7.120  14.580  13.804 -0.1433  0.0259 -0.0707
32444W        W48578   5.578   5.345   0.493  0.3163 -0.0565  0.0015
32445W        W48579   8.999   3.172   1.192 -0.0903  0.1341 -0.0274
32446W        W48580  17.065  10.991  11.517 -0.0588  0.0766  0.0326
32447W        W48581   1.902  12.591  16.724  0.0501 -0.0304 -0.0841
32448W        W48582  10.386   0.139   2.741  0.0790  0.1367  0.0190
32449W        W48583   7.971  10.375   4.082  0.1601 -0.0729 -0.0786
32450W        W48584   8.270  16.013  16.497  0.0799 -0.2020  0.2003
32451W        W48585  13.744   9.860  11.505 -0.2845 -0.0787 -0.0635
32452W        W48586  16.660  16.060  15.346 -0.0018 -0.0401 -0.0488
32453W        W48587  16.836  16.980   1.728  0.2458 -0.0228 -0.2094
32454W        W48588   1.541  11.218  12.660  0.0818 -0.0019  0.1041
32455W        W48589  15.781   3.140  17.146  0.3647 -0.0185  0.2881
32456W        W48590  11.573   6.946   3.491 -0.0985  0.0651  0.3560
32457W        W48591   7.297   7.821   0.888 -0.0765  0.1584 -0.0630
32458W        W48592   1.914   2.561  13.132 -0.0722 -0.2331  0.1905
32459W        W48593   8.528  15.289   5.304 -0.0716 -0.1733  0.1815
32460W        W48594   9.755  16.489  15.234 -0.2247  0.2578  0.4003
32461W        W48595   9.322   7.221  11.426  0.2730 -0.0860  0.0271
32462W        W48596  10.145  16.221   2.861 -0.1641 -0.0857  0.1760
32463W        W48597  11.204  17.521   4.829 -0.2785  0.1357  0.2090
32464W        W48598  12.187  15.486  15.369 -0.0305  0.0092 -0.0045
32465W        W48599  16.259   5.699   3.591  0.0871  0.1483 -0.1461
32466W        W48600   8.306   6.592   3.945  0.0744  0.0006 -0.3233
32467W        W48601  15.029  15.211  11.669  0.2360  0.0494 -0.4749
32468W        W48602  10.330  12.914   4.349  0.1376  0.0086 -0.4283
32469W        W48603   9.486   4.488   4.475 -0.0490 -0.2917  0.1082
32470W        W48604   0.362   4.385  16.420 -0.1144  0.1619 -0.0106
32471ION     NA48605  15.445   2.432  11.030  0.0594  0.1198  0.3293
32472ION     NA48606  11.133   8.583  11.946 -0.0942 -0.2631  0.1535
32473ION     NA48607   1.554   5.339  10.492  0.1352 -0.1904 -0.0999
32474ION     NA48608   8.165  16.156  10.992 -0.1304 -0.1847  0.0903
32475ION     NA48609   3.840   7.858  10.605  0.0143  0.1301  0.0428
32476ION     NA48610  14.341   7.324  10.744 -0.1581  0.0109  0.2014
32477ION     NA48611  10.342   2.929  10.773  0.2455 -0.1563 -0.1014
32478ION     NA48612   0.409   6.040  12.269  0.0476  0.1912  0.3364
32479ION     NA48613   3.016   3.321  10.982 -0.1860 -0.2233  0.0225
32480ION     NA48614   8.406  16.778   6.084 -0.0284 -0.1498 -0.0377
32481ION     NA48615  13.125   7.554  10.758 -0.0220 -0.2117  0.3782
32482ION     NA48616   7.971  13.117  10.959  0.0772  0.2385 -0.3765
32483ION     NA48617   7.338  14.826   3.007  0.1621 -0.1390 -0.2458
32484ION     NA48618   3.581  12.642  15.041  0.1227  0.2532  0.3127
32485ION     NA48619  12.048   2.767  10.629 -0.1299  0.0434  0.1975
32486ION     NA48620  14.882   3.126  11.064  0.1735  0.2906 -0.0064
32487ION     NA48621  10.591   9.923  15.773  0.0045  0.1845  0.1011
32488ION     NA48622  17.228  14.198  13.636  0.2783 -0.3461 -0.0865
32489ION     NA48623  15.582  13.977  11.036 -0.2129 -0.0507  0.1116
32490ION     NA48624   2.943   5.361  10.509  0.1350 -0.1893 -0.1887
32491ION     NA48625  12.352   0.231  11.233  0.2974  0.1299  0.0662
32492ION     NA48626  12.570   2.536   4.584 -0.3424 -0.0065  0.1156
32493ION     NA48627   6.616  11.868  10.905  0.0817  0.1984  0.3284
32494ION     NA48628  10.359  13.836  10.970 -0.1586  0.0266 -0.1835
32495ION     NA48629   1.644   7.308  13.577 -0.4745  0.0551  0.0591
32496ION     NA48630   5.086  16.078  11.035  0.0577 -0.1061 -0.1584
32497ION     NA48631   4.457  17.563  11.377  0.2148 -0.0776 -0.0536
32498ION     NA48632  14.959   5.786   0.531 -0.0959 -0.1629  0.0022
32499ION     NA48633  10.623  10.794  11.091 -0.1882 -0.0412  0.1938
32500ION     NA48634   1.903  14.436  15.590 -0.1411  0.1277 -0.1325
32501ION     NA48635   0.250  15.692  11.444  0.0706  0.4512 -0.0336
32502ION     NA48636   3.627  15.917   2.776 -0.0527 -0.0897 -0.1143
32503ION     NA48637   7.210   9.397  10.850  0.2262 -0.0052 -0.0597
32504ION     NA48638   2.443   7.568  11.100  0.1282 -0.0941  0.0421
32505ION     NA48639  12.282   0.561   6.428 -0.1283 -0.1002  0.2263
32506ION     NA48640  13.130   5.592   3.944 -0.1530 -0.1087 -0.4960
32507ION     NA48641   6.816  17.383  11.145 -0.0693 -0.1259  0.3416
32508ION     NA48642   0.506  14.218   4.195 -0.2421  0.2300 -0.2023
32509ION     NA48643   4.681   5.967  10.896 -0.3139 -0.1007 -0.0047
32510ION     NA48644  12.524   9.710  15.923 -0.0575  0.1973  0.1406
32511ION     NA48645   9.450   2.877  11.040 -0.3391 -0.1263 -0.1790
32512ION     NA48646  12.950  14.205  11.204  0.3036 -0.0746 -0.2051
32513ION     NA48647  15.253  10.678  10.512  0.2428  0.1963 -0.1837
32514ION     NA48648   6.476  16.804  11.339 -0.0893 -0.5402 -0.1298
32515ION     NA48649   6.225   0.496  11.150  0.2121  0.0821 -0.1095
32516ION     NA48650   1.624   4.530  10.587  0.1786 -0.1332  0.1562
32517ION     NA48651  13.101   5.575  15.474  0.3553  0.0596 -0.0590
32518ION     NA48652   6.726   0.266  15.342 -0.0804  0.0798  0.1630
32519ION     NA48653  11.891   3.369   5.758 -0.0482  0.3272 -0.0446
32520ION     NA48654  15.647   2.537   6.308  0.0208 -0.3227  0.0765
32521ION     NA48655  12.382   4.454   0.203 -0.1925  0.0670 -0.0647
32522ION     NA48656  12.982  16.082  11.206  0.1244 -0.1493  0.2041
32523ION     NA48657   9.640   8.652   6.182 -0.0461 -0.0324  0.1143
32524ION     NA48658   0.102  15.086  11.112  0.0188  0.0936  0.1398
32525ION     NA48659   3.028  16.110   5.711  0.0580 -0.0307 -0.2705
32526ION     NA48660   3.826   3.122  11.264 -0.1642 -0.1694  0.0561
32527ION     NA48661   6.824   0.966  11.127 -0.1280  0.2037 -0.1615
32528ION     NA48662   3.483  11.430   0.666 -0.0928 -0.2298 -0.2137
32529ION     NA48663  14.903   5.061  10.540  0.1128  0.0396  0.1202
32530ION     NA48664  10.278  17.447  11.071  0.0440  0.0621  0.0559
32531ION     NA48665  16.342   4.191  10.945  0.3374 -0.0163 -0.0194
32532ION     NA48666   2.325   4.737  10.898  0.0384  0.0781 -0.1752
32533ION     NA48667  15.951   4.925   6.117 -0.1221  0.1503 -0.1736
32534ION     NA48668  17.485   0.609  11.412  0.1572  0.0378  0.1443
32535ION     NA48669  11.375   1.715  11.162  0.1532 -0.0043 -0.0544
32536ION     NA48670  16.846   5.603  12.772 -0.4431 -0.0627 -0.0353
32537ION     NA48671  16.953   5.967   2.981 -0.2081  0.3290 -0.1650
32538ION     NA48672   2.367  10.688   4.003  0.0058  0.1078 -0.2743
32539ION     NA48673  12.591   2.727   5.975 -0.3115  0.0941  0.2211
32540ION     NA48674   6.975  14.790  11.091 -0.0956  0.2834  0.2074
32541ION     NA48675  15.974   5.130  15.546  0.5038  0.0768 -0.0022
32542ION     NA48676  11.934  11.842  10.773  0.1026  0.0046 -0.1071
32543ION     NA48677  15.833   7.407  10.503  0.1045 -0.0814  0.1341
32544ION     NA48678   1.839   4.845   3.483 -0.2292 -0.0677 -0.3434
32545ION     NA48679   7.674   4.876   6.141  0.0214 -0.1141  0.0161
32546ION     NA48680  12.690   4.025  10.563  0.3266  0.0709  0.3563
32547ION     NA48681   3.311  10.592  10.905  0.1938 -0.0426 -0.1153
32548ION     NA48682  17.310   2.528   5.872  0.2633  0.0843  0.1435
32549ION     NA48683   5.002   3.866  10.971  0.0374  0.0663  0.4054
32550ION     NA48684  14.715   8.606   2.014 -0.3078 -0.1198 -0.6220
32551ION     NA48685  11.842  13.035  13.567 -0.1456  0.0911 -0.4632
32552ION     NA48686  16.851  16.737  11.483 -0.1794  0.0933  0.1993
32553ION     NA48687  15.917   7.446  12.797 -0.6023  0.1253  0.1635
32554ION     NA48688  11.349  12.645   3.157  0.1906 -0.0702 -0.0761
32555ION     NA48689   8.788  12.665  11.124  0.1291 -0.0655 -0.0600
32556ION     NA48690   5.442  12.427  10.977 -0.2100 -0.0086 -0.0580
32557ION     NA48691   5.680   3.837   6.421  0.2931 -0.2694  0.1213
32558ION     NA48692   9.963  16.855  10.829  0.1302 -0.1863 -0.0988
32559ION     NA48693  15.904   9.237  10.419  0.0423  0.2739  0.1796
32560ION     NA48694   2.291  15.277   6.497  0.2235  0.1700  0.3057
32561ION     NA48695   5.880   8.575  10.793  0.1933 -0.1457 -0.0634
32562ION     NA48696  11.608  11.459   5.369 -0.0920  0.0589 -0.2150
32563ION     NA48697   6.741   4.910   6.126  0.1229  0.1672 -0.0954
32564ION     NA48698  15.162  14.695  11.526  0.0102  0.1182 -0.0318
32565ION     NA48699   7.717   1.292  10.968  0.2512  0.2631 -0.0169
32566ION     NA48700   3.872   5.321  10.847 -0.0344  0.1254  0.2727
32567ION     NA48701   0.998  13.442  16.930 -0.1432 -0.3777  0.0796
32568ION     NA48702   7.214   0.582  11.067 -0.2034 -0.2253 -0.1541
32569ION     NA48703  12.495   7.533   0.441 -0.0180  0.2412 -0.0733
32570ION     NA48704  14.445  11.516  12.484 -0.1131  0.1431 -0.2112
32571ION     NA48705   6.920   9.412  12.554  0.0527 -0.1097 -0.0041
32572ION     NA48706   8.194   6.088  10.738 -0.1597 -0.4877 -0.2716
32573ION     NA48707   3.792   6.253  10.723  0.1544 -0.1795 -0.0013
32574ION     NA48708   8.802   5.504  10.627  0.1366  0.0068  0.1237
32575ION     NA48709   1.019  15.913  12.581 -0.2065  0.0797  0.0916
32576ION     NA48710   8.227   7.643  10.822 -0.3377 -0.1331 -0.0815
32577ION     NA48711  15.980  14.406   6.517  0.3186  0.1361 -0.1423
32578ION     NA48712   3.137   1.310  11.257  0.2687  0.1175  0.2928
32579ION     NA48713   6.418  10.307  10.964  0.1451  0.0886  0.2752
32580ION     NA48714  14.800  14.301  16.506 -0.0763 -0.0305 -0.3784
32581ION     NA48715   7.528   7.205   3.355  0.2827 -0.0442  0.1315
32582ION     NA48716  12.218   7.379   5.946  0.4324  0.1623 -0.4044
32583ION     NA48717  14.775  11.391  10.730  0.1462  0.1125  0.0163
32584ION     NA48718  17.442  13.286  14.246  0.0703 -0.0028  0.1824
32585ION     NA48719   4.731   0.715  11.205 -0.0410 -0.1270 -0.5201
32586ION     NA48720  14.166   8.269  10.706 -0.1242  0.1497  0.1427
32587ION     NA48721   4.875   9.309  10.866 -0.5023  0.0641  0.2076
32588ION     NA48722   4.925  13.621  14.946  0.0191 -0.1823 -0.3800
32589ION     NA48723  10.135  10.632  11.078 -0.1271 -0.0900 -0.1966
32590ION     NA48724  16.913  12.344   5.855 -0.4552 -0.0295  0.0470
32591ION     NA48725   6.121  14.540  11.045  0.2446  0.0028  0.2324
32592ION     NA48726  12.076  10.612  12.938  0.3601  0.1099 -0.0254
32593ION     NA48727   1.042   7.494   3.254 -0.0178  0.0285  0.1958
32594ION     NA48728  17.597  12.780  10.842  0.1356 -0.0827  0.2135
32595ION     NA48729   9.068   9.425   6.062 -0.0707 -0.0418 -0.1174
32596ION     NA48730   2.980  15.074  11.097 -0.4391  0.1076 -0.0446
32597ION     NA48731  10.418   7.500  10.853  0.1823 -0.0531  0.0110
32598ION     NA48732   0.769  16.448  11.400 -0.2015  0.1823 -0.1847
32599ION     NA48733   1.785   3.538   3.548  0.4666  0.0904 -0.0223
32600ION     NA48734   5.317   6.097   1.083  0.0537 -0.1234 -0.0321
32601ION     NA48735  16.294   1.337  11.353  0.2844  0.0049 -0.0588
32602ION     NA48736  12.181  14.856  16.041 -0.1290  0.0117 -0.2764
32603ION     NA48737   8.992  10.049  15.098 -0.3176  0.3384  0.2912
32604ION     NA48738   7.818  16.581   2.757  0.0365  0.0827 -0.1663
32605ION     NA48739  16.105   0.459   6.421 -0.0358  0.0733 -0.3638
32606ION     NA48740   8.618  13.917  11.029 -0.3844  0.1248  0.0753
32607ION     NA48741  12.857   6.319  12.692 -0.1336 -0.1476 -0.1691
32608ION     NA48742  16.767  14.248  10.985 -0.3220 -0.1759  0.2280
32609ION     NA48743  11.261  12.614  10.936  0.0765  0.2557 -0.0661
32610ION     NA48744  16.229  16.289  14.083  0.0091 -0.4227  0.0992
32611ION     NA48745   4.094   1.350   6.410 -0.1156 -0.0292  0.1686
32612ION     NA48746  11.812  16.860   0.601 -0.0276 -0.1547 -0.2719
32613ION     NA48747   5.499   7.131  10.871 -0.1602  0.1670  0.1984
32614ION     NA48748  10.283  11.614  11.154 -0.1625 -0.0653  0.4246
32615ION     NA48749   4.804   1.969  11.517 -0.2368  0.0314 -0.1645
32616ION     NA48750  10.192  14.764  16.057  0.2539 -0.0737  0.1748
32617ION     NA48751   2.811  14.249   2.250 -0.0355  0.2777  0.2159
32618ION     NA48752   6.589   3.953  10.999 -0.2645  0.0244  0.0715
32619ION     NA48753   8.162  13.079   6.306 -0.0097 -0.1143  0.0741
32620ION     NA48754  16.663   0.355  11.201 -0.0158  0.3081  0.0917
32621ION     NA48755   2.175  12.540  11.227 -0.0674 -0.3109  0.0763
32622ION     NA48756   6.614   4.722  10.784  0.0499  0.1957  0.0105
32623ION     NA48757  13.402   1.601  11.087 -0.1589  0.0659  0.3348
32624ION     NA48758   1.061  13.982  11.179  0.2195  0.1784  0.3268
32625ION     NA48759   0.887   8.897  10.672 -0.0022 -0.1252  0.0192
32626ION     NA48760  13.226   2.451   5.813  0.0250 -0.3939  0.1505
32627ION     NA48761  10.959  15.400   5.035  0.1052 -0.2263  0.1083
32628ION     NA48762   9.953   9.195  10.777 -0.0460 -0.0235 -0.2127
32629ION     NA48763  16.970   8.210   5.536  0.1431  0.0149  0.2266
32630ION     NA48764   7.148   4.055   5.910 -0.0153  0.2704  0.2165
32631ION     NA48765  17.311   6.584  10.725 -0.4475 -0.1801  0.1263
32632ION     NA48766   7.246  11.908   6.417  0.1639 -0.1779 -0.1714
32633ION     NA48767  14.401   5.537  10.610 -0.0853  0.0574  0.3180
32634ION     NA48768   6.750  13.598  16.821  0.0862  0.0651  0.0846
32635ION     NA48769   6.519   2.673   6.184  0.0794 -0.1310  0.0233
32636ION     NA48770   3.704   7.148  10.636 -0.1365  0.0909  0.0528
32637ION     NA48771  10.863  13.433  11.064  0.0051 -0.1552 -0.1217
32638ION     NA48772   6.966   2.855  11.115 -0.2005 -0.1940 -0.1735
32639ION     NA48773   2.677   0.370  12.223  0.2009 -0.2047  0.1535
32640ION     NA48774  15.975  15.272   4.733 -0.3993  0.1109 -0.2058
32641ION     NA48775  12.166  13.570  11.206  0.2727  0.1199 -0.4198
32642ION     NA48776  10.600   1.124  13.509 -0.3543 -0.0832  0.0369
32643ION     NA48777  15.896   3.935  12.772  0.2758  0.0992 -0.0442
32644ION     NA48778   7.711  11.539   0.046  0.0414  0.0938  0.0465
32645ION     NA48779   8.450  17.032  11.009  0.3578 -0.1259 -0.0623
32646ION     NA48780   2.656  15.083   6.074 -0.1711 -0.0064 -0.0213
32647ION     NA48781   5.453   5.128  12.275  0.1128  0.4187  0.1884
32648ION     NA48782   6.886   8.603  10.686  0.1635  0.0692 -0.0337
32649ION     NA48783  14.977  11.522  14.321 -0.0613  0.0453 -0.0497
32650ION     NA48784   1.021  15.587  11.480  0.0902 -0.1665 -0.4634
32651ION     NA48785  12.413   2.577   0.534  0.2361 -0.2336  0.0769
32652ION     NA48786  12.599   0.951  10.958  0.0067 -0.0044 -0.1983
32653ION     NA48787   1.327  12.741  12.667  0.0391  0.3279 -0.2131
32654ION     NA48788   7.817   2.289  10.783 -0.2157  0.3403  0.1605
32655ION     NA48789   9.571  10.053  10.902  0.3040  0.1363  0.1407
32656ION     NA48790   3.639   8.936  10.673  0.0234  0.1858  0.0559
32657ION     NA48791  15.665   1.568  11.282  0.3467  0.1078 -0.0350
32658ION     NA48792  11.457   9.004  10.685  0.0911 -0.4339  0.0464
32659ION     NA48793   4.288  16.137   6.355  0.0062  0.1691  0.1776
32660ION     NA48794  11.523   8.144   6.216 -0.0526 -0.2589 -0.0349
32661ION     NA48795   1.094   5.151   3.059  0.0885 -0.2607 -0.2236
32662ION     NA48796   8.856   7.947  10.778 -0.0691 -0.0289  0.4529
32663ION     NA48797  12.368  10.246   3.247 -0.2267  0.3819  0.0640
32664ION     NA48798  15.746   0.658  11.245  0.4844  0.2896 -0.1275
32665ION     NA48799  15.901  12.283  10.848  0.1860 -0.0034  0.0761
32666ION     NA48800  15.981  11.737  11.575  0.0922 -0.0411 -0.1051
32667ION     NA48801   6.412   1.478  11.060 -0.0349 -0.0959  0.1031
32668ION     NA48802  17.192  14.938  16.290  0.0018  0.1015 -0.2819
32669ION     NA48803   9.088   9.378  10.709  0.1552 -0.1693  0.0111
32670ION     NA48804   9.699   0.208  10.918 -0.0623 -0.2490 -0.0568
32671ION     NA48805  17.540   2.282  11.415  0.1958  0.0956 -0.0164
32672ION     NA48806   2.127   9.204  10.454  0.1520  0.1572 -0.0093
32673ION     NA48807   8.740   7.573   3.702 -0.2315  0.1699  0.1171
32674ION     NA48808   3.955   8.975  13.181  0.0211 -0.0108  0.2695
32675ION     NA48809  12.144  12.662  10.904  0.0832  0.0805 -0.1246
32676ION     NA48810  13.345   9.391  10.775 -0.5214 -0.1328  0.2110
32677ION     NA48811  12.819   0.982  11.498 -0.0652 -0.0098 -0.1715
32678ION     NA48812   7.937   8.414  10.856  0.2128  0.0428  0.3351
32679ION     NA48813   4.044  14.836   3.136 -0.2044  0.0207  0.0324
32680ION     NA48814  14.459   9.293  10.602  0.2910  0.0464 -0.4849
32681ION     NA48815  11.268   4.578  10.480 -0.0720 -0.3339 -0.1077
32682ION     NA48816  13.718   2.692  11.224  0.0313  0.1498  0.2900
32683ION     NA48817   6.262   2.345  11.238 -0.0630  0.0408 -0.2392
32684ION     NA48818   1.157   6.570  11.913 -0.0960  0.1666  0.2666
32685ION     NA48819   8.697   4.270   1.974 -0.2798  0.2680 -0.2539
32686ION     NA48820  10.017  15.994  11.097  0.0079 -0.2871 -0.1057
32687ION     NA48821  12.598   0.987   6.265 -0.3366  0.0929 -0.0443
32688ION     NA48822   2.716   4.029  10.537  0.1435 -0.2734  0.0355
32689ION     NA48823   3.909   9.696  10.847 -0.1891 -0.0186 -0.0893
32690ION     NA48824   5.574  15.132  11.052  0.3214  0.1395 -0.0828
32691ION     NA48825   5.248   6.331  11.010  0.0077 -0.0172 -0.1378
32692ION     NA48826  16.771   5.873  10.540 -0.0514 -0.0156  0.1152
32693ION     NA48827   1.630  11.906  10.877  0.1620  0.1734 -0.2392
32694ION     NA48828  15.785   4.606  10.917  0.4158 -0.1219  0.0517
32695ION     NA48829   8.708  11.246   4.846  0.1151  0.1816  0.1128
32696ION     NA48830  11.835   4.589  10.686  0.0816 -0.2908 -0.0928
32697ION     NA48831   7.618   3.311   5.671 -0.1249 -0.2297  0.2707
32698ION     NA48832   4.763  11.785  14.240 -0.2444 -0.2198 -0.1720
32699ION     NA48833  14.053   1.175   3.420 -0.1614 -0.1094 -0.1343
32700ION     NA48834   2.586   6.843  10.394 -0.1523 -0.0662 -0.4223
32701ION     NA48835   5.455   8.879  10.710 -0.0099  0.1033  0.2138
32702ION     NA48836   1.283   1.254  11.283 -0.2046  0.0930  0.4014
32703ION     NA48837   0.557   6.519  10.509 -0.0260 -0.2841 -0.1398
32704ION     NA48838   7.248  13.389   6.117 -0.1576  0.1668 -0.0377
32705ION     NA48839   7.404  14.593   5.690 -0.1209  0.2692 -0.0705
32706ION     NA48840  17.162   3.768  11.029 -0.0494  0.3001 -0.4963
32707ION     NA48841   2.861  14.140  11.152  0.3246  0.2559  0.0157
32708ION     NA48842  15.559  11.941   3.865 -0.0657  0.1000 -0.4781
32709ION     NA48843   5.152  12.494   0.235 -0.1457 -0.3971 -0.1276
32710ION     NA48844  11.876  10.194  10.837 -0.1224  0.1815 -0.0898
32711ION     NA48845  11.841   5.441  10.750  0.0046 -0.0953  0.0000
32712ION     NA48846   9.557  13.816  10.846 -0.1671 -0.3005  0.2419
32713ION     NA48847  15.673   4.493   6.276  0.1606  0.1547  0.1529
32714ION     NA48848   5.443   1.133  11.424 -0.0483  0.1727 -0.0975
32715ION     NA48849   6.738   5.652  13.412  0.0414 -0.0623  0.1322
32716ION     NA48850  14.563   8.907  15.025  0.2033  0.0385  0.0061
32717ION     NA48851   9.364   2.376  10.923 -0.0290 -0.2872 -0.3557
32718ION     NA48852   1.473   0.420  11.483  0.0999  0.0185  0.0801
32719ION     NA48853  12.507  16.768  11.417 -0.0999 -0.1109  0.2214
32720ION     NA48854  16.569   2.037   6.151 -0.0685 -0.0346 -0.3226
32721ION     NA48855   8.819   5.609   6.082 -0.0053  0.0569 -0.0308
32722ION     NA48856   9.161   6.491  16.682 -0.0324 -0.0579  0.3200
32723ION     NA48857   1.758  14.437  11.243 -0.0082  0.0082  0.1172
32724ION     NA48858  13.196  15.751   2.595  0.0751 -0.1342 -0.0109
32725ION     NA48859  17.093  16.270   3.828 -0.0019  0.0047  0.1596
32726ION     NA48860   3.854   4.471  10.890 -0.5395 -0.0778 -0.0732
32727ION     NA48861   8.346   3.852   5.503  0.1189  0.2035  0.0802
32728ION     NA48862   0.520  13.793   6.397 -0.0674  0.0550 -0.0836
32729ION     NA48863   0.048   5.834  10.902  0.0335 -0.2091 -0.1655
32730ION     NA48864   6.923  14.054  11.031  0.1980  0.2216  0.1770
32731ION     NA48865  10.915  15.266  10.861  0.2735 -0.4562  0.0753
32732ION     NA48866   6.476  17.211   6.306 -0.0539  0.0576 -0.0714
32733ION     NA48867   9.746  10.056   2.171  0.2911  0.0056 -0.0072
32734ION     NA48868  15.965   2.981  11.036 -0.0590  0.1046 -0.1428
32735ION     NA48869  13.139   4.252  16.210  0.1799  0.3300 -0.0921
32736ION     NA48870   6.109  15.892  10.958  0.1330  0.0814 -0.0426
32737ION     NA48871   5.450   9.908  10.922 -0.0094 -0.0662  0.1468
32738ION     NA48872   7.842  15.389  10.892 -0.0223 -0.1667 -0.0398
32739ION     NA48873   2.182  17.386   3.365  0.2081 -0.1352 -0.1851
32740ION     NA48874   7.401  11.165  10.867 -0.1569  0.2459 -0.2195
32741ION     NA48875   9.514   4.189  14.876 -0.1398 -0.1531  0.3491
32742ION     NA48876  16.845   7.413  10.308  0.1671 -0.2259  0.1910
32743ION     NA48877  10.364  16.543   0.290 -0.1172  0.0432  0.2569
32744ION     NA48878   1.847  16.018   6.330 -0.0705 -0.0384 -0.2071
32745ION     NA48879   0.462   5.353  14.366  0.3272 -0.2011 -0.0174
32746ION     NA48880  16.566   7.898  10.511 -0.0737  0.0543 -0.3347
32747ION     NA48881  14.872   5.753   4.936  0.1625 -0.0458  0.0197
32748ION     NA48882   0.902   6.196  10.585 -0.3463  0.2088 -0.1547
32749ION     NA48883   8.961   6.544   5.761  0.0872 -0.3022  0.2016
32750ION     NA48884  12.392   9.170  10.813  0.2308  0.4278  0.0041
32751ION     NA48885   5.505   4.421   4.566  0.3542 -0.0890 -0.2974
32752ION     NA48886   9.411  14.269  11.045 -0.1757  0.1231  0.0713
32753ION     NA48887   0.541   0.214  11.470 -0.4675 -0.0967  0.0791
32754ION     NA48888  16.212  10.847  10.398 -0.1050  0.3039  0.0891
32755ION     NA48889   8.803  17.530  10.879 -0.2381  0.1518 -0.1923
32756ION     NA48890  15.786  13.031  11.013 -0.1735  0.0244  0.1243
32757ION     NA48891   4.557  16.201  10.985  0.1814  0.1671 -0.1197
32758ION     NA48892   6.410  10.290   6.299 -0.0048 -0.1927 -0.1002
32759ION     NA48893   1.661  10.936  10.625  0.1094  0.1494 -0.0983
32760ION     NA48894   2.142   3.424  11.014 -0.2142 -0.0224  0.0506
32761ION     NA48895  12.618   0.391   0.865 -0.1171 -0.1099  0.4336
32762ION     NA48896   2.096  14.870  11.046 -0.0009 -0.1255  0.1359
32763ION     NA48897  12.825   9.969  10.615  0.2031 -0.2721 -0.3067
32764ION     NA48898  12.353   9.906   1.528  0.0746  0.4315  0.0565
32765ION     NA48899  14.083  15.388   6.127 -0.2493  0.1987  0.0925
32766ION     NA48900  12.517   4.507  10.508 -0.1426  0.0289 -0.1241
32767ION     NA48901   1.107   2.737  11.119  0.0620 -0.0344 -0.1078
32768ION     NA48902   8.754  10.195  10.678 -0.4670  0.3028  0.1432
32769ION     NA48903   8.429   3.738  10.961 -0.0280 -0.0279  0.0388
32770ION     NA48904   5.844   4.109  11.026  0.1096  0.0346  0.3273
32771ION     NA48905   6.080   7.711   5.860  0.2410  0.0194 -0.1427
32772ION     NA48906  14.043  13.737   6.502 -0.2574 -0.0782 -0.2404
32773ION     NA48907   7.868   5.339  10.760  0.0892  0.0098 -0.0620
32774ION     NA48908   1.357   9.907   6.098  0.0933  0.0604 -0.0804
32775ION     NA48909   8.639   5.045  10.495 -0.2589 -0.1073 -0.1510
32776ION     NA48910  13.259  11.395  10.768  0.2219  0.2784  0.2261
32777ION     NA48911   7.138   2.081  11.311 -0.0576 -0.2365 -0.1463
32778ION     NA48912  15.425   9.049  10.512  0.1572  0.2658  0.1750
32779ION     NA48913   4.965  11.715  10.863  0.0990  0.0828  0.0630
32780ION     NA48914  10.199  16.889  14.726 -0.2468 -0.0040 -0.0642
32781ION     NA48915   0.100   4.787   3.678 -0.0455  0.2061  0.1254
32782ION     NA48916  13.250   8.107   5.581 -0.3799  0.2114 -0.2161
32783ION     NA48917  13.791   0.836  11.349 -0.2554 -0.1444 -0.0275
32784ION     NA48918   1.799   7.445  10.397 -0.0004 -0.1252  0.0471
32785ION     NA48919   4.570  12.508  10.867 -0.2283 -0.3569 -0.0974
32786ION     NA48920   0.322   4.077  10.793  0.0529  0.1016 -0.1295
32787ION     NA48921  11.163  11.021  15.840  0.1110  0.0972  0.1220
32788ION     NA48922   7.930  10.669  10.858 -0.1870  0.0215 -0.2655
32789ION     NA48923   4.180   9.299   5.909 -0.0402 -0.2935 -0.2480
32790ION     NA48924   8.809  11.786  10.996  0.1117 -0.2820  0.1462
32791ION     NA48925   1.049  16.442  11.930  0.2281  0.1152 -0.0187
32792ION     NA48926   0.611  12.940   5.355 -0.0514  0.2380 -0.2949
32793ION     NA48927   2.984  13.260  12.124  0.2751 -0.0324  0.2010
32794ION     NA48928   5.159  16.924  11.170 -0.2194 -0.0329 -0.2267
32795ION     NA48929   8.167  12.633  11.104  0.0133 -0.3330 -0.0236
32796ION     NA48930  11.881   3.697  10.509  0.0408 -0.0745 -0.1238
32797ION     NA48931  12.581  11.518  11.257 -0.0231  0.1206 -0.3622
32798ION     NA48932  12.002   3.194  11.879  0.0254  0.0484 -0.2896
32799ION     NA48933   9.848   8.074  11.007 -0.0108  0.2032  0.4044
32800ION     NA48934  10.686   0.543  10.950  0.1304 -0.0474  0.0865
32801ION     NA48935  17.528   7.975  10.416 -0.1414  0.2492 -0.1264
32802ION     NA48936   3.339   5.774   0.667  0.0350  0.2183  0.1900
32803ION     NA48937   8.378   1.627  13.206  0.0650  0.1222  0.0358
32804ION     NA48938   0.748  16.558  13.657 -0.0892 -0.0276 -0.0678
32805ION     NA48939  14.401  14.439  11.178 -0.1931  0.0386 -0.2089
32806ION     NA48940  11.752   6.397   5.861 -0.0747 -0.0667  0.0642
32807ION     NA48941   4.281  14.537  11.226 -0.1818  0.0315  0.0257
32808ION     NA48942  17.439  10.529   6.133 -0.2236  0.2225 -0.1055
32809ION     NA48943   5.865  12.063  10.990  0.0240 -0.0202 -0.0307
32810ION     NA48944   7.398   4.182  10.776 -0.1794 -0.0602  0.1645
32811ION     NA48945   7.267   6.796   6.389  0.1495 -0.1158  0.0830
32812ION     NA48946   4.369   4.485  11.124  0.2411  0.0320 -0.0939
32813ION     NA48947   1.800   2.593   0.130 -0.1729  0.1491  0.2783
32814ION     NA48948  13.983   5.380  10.413 -0.1066 -0.1330  0.0219
32815ION     NA48949  16.077  17.515  11.235 -0.0356  0.0177 -0.0894
32816ION     NA48950   6.284  13.574  11.189 -0.0862 -0.0021  0.2502
32817ION     NA48951   1.456   6.920  10.368 -0.0679 -0.2161 -0.2460
32818ION     NA48952  17.437  11.144   0.169  0.1954  0.2043 -0.2258
32819ION     NA48953  16.786   9.144   5.954 -0.0227 -0.0827 -0.0719
32820ION     NA48954   0.090   5.682   5.481 -0.0214  0.0115 -0.0268
32821ION     NA48955   2.943  14.110  14.218 -0.0082 -0.1400  0.2048
32822ION     NA48956  13.922   3.580  14.052 -0.1978 -0.0536 -0.1152
32823ION     NA48957   3.764   2.057  11.190  0.1400  0.1366 -0.2133
32824ION     NA48958  17.192  15.520   6.009  0.1999  0.1527 -0.3493
32825ION     NA48959  13.559  16.774  11.385 -0.0256 -0.3421 -0.3014
32826ION     NA48960  15.910  14.394  11.027  0.2678 -0.0860  0.2069
32827ION     NA48961  17.422  11.850  10.809  0.1296  0.0480  0.3526
32828ION     NA48962  13.745  12.901  11.048 -0.2457 -0.4994  0.1514
32829ION     NA48963   8.215   4.444  10.555  0.3178  0.1744  0.0683
32830ION     NA48964   0.342   9.543  10.849 -0.1740 -0.0908  0.0449
32831ION     NA48965  14.773   0.453  11.310  0.0950 -0.0537  0.1987
32832ION     NA48966  16.806   7.103   5.582 -0.1606 -0.1311  0.0689
32833ION     NA48967   6.106  17.487  15.824  0.0640  0.1087  0.0473
32834ION     NA48968   4.456  13.425  11.115 -0.1062  0.1009 -0.0326
32835ION     NA48969  10.428   1.409  10.927 -0.0616  0.1739  0.0541
32836ION     NA48970  12.598   5.218   1.348 -0.0543 -0.0548  0.1605
32837ION     NA48971  11.663  17.333  12.635 -0.3565  0.3230  0.0872
32838ION     NA48972   4.926  16.170  12.365 -0.1311  0.1804  0.1057
32839ION     NA48973   5.543  13.067   5.065  0.2092  0.0339  0.0034
32840ION     NA48974  10.745  16.598  11.160  0.0096  0.0953 -0.2406
32841ION     NA48975  11.544  12.475   6.059  0.0807  0.0614  0.3233
32842ION     NA48976   9.616   4.955  10.389  0.0860 -0.0131 -0.0094
32843ION     NA48977  13.062  11.469   0.118 -0.1320 -0.0631  0.2212
32844ION     NA48978   3.246  16.896  11.844  0.1887  0.2592  0.0143
32845ION     NA48979  17.296  13.788  11.403  0.0784 -0.2386 -0.0539
32846ION     NA48980  16.992  10.189  11.954  0.3384  0.0442 -0.1833
32847ION     NA48981   8.122   9.505  10.724 -0.0366 -0.3692  0.1373
32848ION     NA48982  17.663  17.185  11.602 -0.1674  0.0650  0.1188
32849ION     NA48983  10.517  14.371  10.915 -0.4172  0.2999  0.0971
32850ION     NA48984   9.661   6.196  10.718  0.1042  0.1352  0.3744
32851ION     NA48985  10.273  12.760  10.938 -0.2418  0.0519 -0.1442
32852ION     NA48986  15.078   7.843  10.613 -0.4328 -0.0456 -0.1476
32853ION     NA48987   5.543   9.474  15.711 -0.0983  0.0739 -0.1604
32854ION     NA48988   8.142   0.424  11.015 -0.0814  0.2328  0.0880
32855ION     NA48989   4.863  10.751  11.197 -0.0876  0.2227  0.3783
32856ION     NA48990  14.465  16.476  11.342  0.0213  0.2321  0.0707
32857ION     NA48991  10.846   0.892  11.370  0.1738 -0.0134 -0.1093
32858ION     NA48992  13.103  12.249   2.903  0.0897  0.1133 -0.0476
32859ION     NA48993  13.602  10.476  10.726 -0.1512 -0.0621 -0.2278
32860ION     NA48994   9.302  10.908  10.898 -0.0353  0.1205  0.1413
32861ION     NA48995   2.138   8.158  10.276 -0.1406  0.0037  0.0584
32862ION     NA48996   3.187   2.425  11.000 -0.0397  0.0840 -0.0968
32863ION     NA48997  14.644  12.460  10.967  0.1028  0.2335  0.2276
32864ION     NA48998  17.334   6.430   3.750 -0.1135  0.1020 -0.0719
32865ION     NA48999  15.022  16.026  12.003 -0.2458  0.0899 -0.0092
32866ION     NA49000  14.611   7.243   6.011 -0.1084 -0.1673  0.2330
32867ION     NA49001  11.288   2.919  10.622 -0.4637  0.1257  0.0445
32868ION     NA49002   9.231   3.789  10.741  0.2097  0.1118 -0.2900
32869ION     NA49003  15.324   6.522  10.727 -0.0979 -0.1784  0.0538
32870ION     NA49004  16.536   9.814  10.203  0.0414  0.1089 -0.1118
32871ION     NA49005  12.476  14.841   1.722 -0.1721  0.0364 -0.0075
32872ION     NA49006  11.075   6.001  10.668  0.1501 -0.1860  0.0922
32873ION     NA49007   3.653   0.438  15.445  0.0206  0.1032 -0.1497
32874ION     NA49008   4.717   8.762   6.239 -0.0233  0.0179  0.2591
32875ION     NA49009   8.243   4.864   6.118  0.1518  0.1159  0.0090
32876ION     NA49010  10.954  15.647  12.418  0.0927  0.2609 -0.1077
32877ION     NA49011  11.249   3.723  10.464 -0.2667 -0.2534  0.0303
32878ION     NA49012   6.926  16.187  10.853  0.1053 -0.0926  0.1446
32879ION     NA49013   5.019   3.352   6.433  0.4090 -0.0527  0.0338
32880ION     NA49014  14.934  14.184   4.740  0.1052 -0.0369 -0.1974
32881ION     NA49015  17.659   4.824  10.835  0.1247  0.0216  0.0056
32882ION     NA49016   7.699  14.142  11.006  0.4304  0.3436 -0.2677
32883ION     NA49017   0.502   9.801  10.348 -0.0922 -0.0071  0.0664
32884ION     NA49018   0.698  11.376  10.808  0.5239 -0.0541  0.0955
32885ION     NA49019   7.503  17.477  10.968  0.2140 -0.1002 -0.0623
32886ION     NA49020  10.952  10.150  10.679  0.1253  0.0839  0.1109
32887ION     NA49021  13.522   5.769  10.506 -0.2281  0.1256  0.3958
32888ION     NA49022   0.853  14.744  11.306 -0.0867  0.0066 -0.1028
32889ION     NA49023   6.176   0.513   6.499  0.1510 -0.1116 -0.2057
32890ION     NA49024  16.402   5.073  10.704  0.1587  0.1017  0.0650
32891ION     NA49025  15.601  12.143  16.440  0.2856  0.0638  0.0510
32892ION     NA49026  14.267   3.808  10.807  0.0299  0.1997 -0.0496
32893ION     NA49027   2.411   2.627  11.057 -0.1496  0.2956  0.0230
32894ION     NA49028   0.360   1.596  11.286 -0.0967  0.3830 -0.1641
32895ION     NA49029   5.363  12.582  12.164 -0.1985  0.1117 -0.1609
32896ION     NA49030   5.115   8.467   3.821 -0.0068  0.2539  0.1619
32897ION     NA49031   9.899   2.071  10.985 -0.0090 -0.0423 -0.0734
32898ION     NA49032  16.446  13.605  10.857 -0.0764  0.0193 -0.1299
32899ION     NA49033   4.354   9.258  11.714  0.0796  0.2084  0.1733
32900ION     NA49034   2.913   0.735  11.338 -0.1735  0.2279  0.4597
32901ION     NA49035  12.450   8.306  14.588  0.1330  0.1136 -0.2791
32902ION     NA49036   9.016   9.164   2.470  0.1108  0.1786  0.1591
32903ION     NA49037   1.148  15.761   6.658 -0.0291 -0.0935  0.2144
32904ION     NA49038  14.366  15.285  13.562 -0.0275  0.1798 -0.0950
32905ION     NA49039   6.741  10.301  16.355 -0.1349  0.0084 -0.1605
32906ION     NA49040   9.069  16.353   4.824 -0.0594 -0.0338  0.1233
32907ION     NA49041   6.500  11.735  13.259  0.1166  0.1444  0.1518
32908ION     NA49042  14.456   2.744  16.772  0.1342  0.3074 -0.2619
32909ION     NA49043   5.330   0.217  11.220 -0.3642  0.4060 -0.1576
32910ION     NA49044   3.267  12.471  11.085  0.0401 -0.4445 -0.5514
32911ION     NA49045   4.588   1.476  11.491 -0.3113 -0.3916 -0.1400
32912ION     NA49046   1.373  14.105   5.575  0.0984 -0.2700  0.2040
32913ION     NA49047   2.134   1.203  11.566 -0.0195 -0.1134 -0.2606
32914ION     NA49048   6.437  11.085  11.059  0.0031  0.0105 -0.0985
32915ION     NA49049   5.536   5.596  11.209  0.1842 -0.4873 -0.2937
32916ION     NA49050  16.789  10.796   5.950 -0.1904 -0.0809 -0.0041
32917ION     NA49051  11.103  17.418  10.914  0.2036 -0.1531 -0.0712
32918ION     NA49052   4.754   8.338  10.634 -0.0111  0.0128 -0.3077
32919ION     NA49053   2.080   3.745  12.226  0.1415 -0.6179 -0.0340
32920ION     NA49054  17.525  14.533  11.000 -0.1127 -0.0554  0.1068
32921ION     NA49055  10.443   9.844  10.923  0.1298  0.0286  0.0482
32922ION     NA49056  12.440  11.794  10.834  0.0309 -0.1238  0.0054
32923ION     NA49057   0.106  12.686   6.083 -0.0794  0.2368  0.3570
32924ION     NA49058   9.383   1.840  13.089  0.1912  0.1082  0.0565
32925ION     NA49059  12.464  15.797   5.846  0.0437 -0.0163  0.0975
32926ION     NA49060   1.547   3.452   6.310 -0.0688  0.1387  0.1407
32927ION     NA49061   4.252   0.135   1.765 -0.2947 -0.4518 -0.2736
32928ION     NA49062   3.637  15.833  11.077 -0.2294 -0.2860 -0.0148
32929ION     NA49063  15.745   9.916   5.490  0.1670  0.3756  0.1189
32930ION     NA49064   2.031  10.387   0.731 -0.1121  0.0124  0.0585
32931ION     NA49065   2.491   7.195  15.601  0.1091  0.0240 -0.0510
32932ION     NA49066   8.927   0.768  10.756 -0.1470 -0.4042 -0.0779
32933ION     NA49067  10.906   8.064   0.322  0.1590  0.0442  0.1079
32934ION     NA49068   7.478   0.582  16.658  0.2525 -0.1640  0.2439
32935ION     NA49069  16.292   6.675   5.855  0.1216  0.1174 -0.1836
32936ION     NA49070  17.120   1.891  11.410 -0.1000  0.1697  0.1755
32937ION     NA49071  12.309   5.407  10.622  0.1008 -0.0138 -0.0726
32938ION     NA49072   9.858  13.098  10.933  0.1153 -0.1493 -0.2794
32939ION     NA49073   1.745   1.830   4.795  0.1945 -0.0333  0.3453
32940ION     NA49074  17.227   9.773  10.544  0.0644  0.0957 -0.0832
32941ION     NA49075   3.633   8.575   5.997 -0.2652 -0.2064  0.0619
32942ION     NA49076  16.879   3.341  11.089  0.1757 -0.2804 -0.0145
32943ION     NA49077  15.705   4.611   0.683 -0.0048 -0.1010 -0.1940
32944ION     NA49078  11.703  16.827  11.047 -0.2107  0.0547  0.2234
32945ION     NA49079  13.956  11.914  10.882 -0.0941  0.2003  0.0454
32946ION     NA49080  11.898   7.264  10.794 -0.3127  0.0397  0.1836
32947ION     NA49081   1.475   8.353   0.556  0.2629  0.1515  0.1449
32948ION     NA49082   6.010  13.142   0.066  0.2995  0.0288  0.1221
32949ION     NA49083   9.192  16.117   6.228 -0.2480 -0.1738 -0.0316
32950ION     NA49084   7.815  10.289   6.135  0.0611  0.1156 -0.4505
32951ION     NA49085   2.807  13.283  11.036 -0.2120  0.3152 -0.0929
32952ION     NA49086  13.165  12.253  11.083 -0.0762  0.1502  0.0622
32953ION     NA49087  12.036   2.194  10.619 -0.2347 -0.2261  0.0281
32954ION     NA49088  11.866  13.312   3.451 -0.1090  0.0445  0.0982
32955ION     NA49089   4.404   2.490  11.357 -0.1205  0.1264 -0.0571
32956ION     NA49090  15.585  11.564  10.559  0.3936 -0.0740  0.2299
32957ION     NA49091   3.932  15.936  11.593  0.0796  0.3396 -0.0536
32958ION     NA49092  14.868   1.411   0.074  0.1365 -0.0085 -0.4224
32959ION     NA49093  14.557  13.361  11.021 -0.2339 -0.0052 -0.0415
32960ION     NA49094   3.550   3.966  10.849 -0.0060  0.0226  0.0005
32961ION     NA49095   9.626  15.867   6.159 -0.1521 -0.2324  0.1009
32962ION     NA49096  16.763  13.686  12.561  0.1792 -0.0799  0.0053
32963ION     NA49097  17.379  16.936   1.876  0.0019  0.1328 -0.1752
32964ION     NA49098   8.004   9.335  11.194 -0.0287  0.1430  0.3241
32965ION     NA49099  17.649   4.322   0.597  0.1042 -0.1994 -0.1611
32966ION     NA49100   1.408  12.934  14.961 -0.0912  0.3666  0.0944
32967ION     NA49101  15.692   1.663   6.139 -0.3530  0.2984  0.2199
32968ION     NA49102  11.702   0.876  10.938  0.1549  0.1462 -0.0048
32969ION     NA49103   8.321   9.626   0.604  0.2685  0.0489 -0.2158
32970ION     NA49104   7.165   1.702   0.083  0.3859  0.0684 -0.0732
32971ION     NA49105  10.633  17.070  16.550 -0.1542  0.2179  0.0405
32972ION     NA49106  10.220  15.071  10.934  0.1836 -0.0058  0.1133
32973ION     NA49107   5.743  12.913   6.174 -0.1522 -0.0066 -0.0302
32974ION     NA49108   5.268   7.963   6.007 -0.1212  0.0442 -0.0013
32975ION     NA49109   1.168   7.904  10.590  0.1110  0.2421  0.0875
32976ION     NA49110  12.478   8.185  10.597 -0.1117 -0.1255 -0.0749
32977ION     NA49111   0.872   4.742  10.618 -0.1607 -0.0509 -0.2167
32978ION     NA49112  10.518  16.290   5.012  0.2981  0.2965 -0.0795
32979ION     NA49113   5.769   0.296   1.806  0.2701  0.1772  0.4404
32980ION     NA49114  11.192   6.930  10.751 -0.0447 -0.2044 -0.0987
32981ION     NA49115  14.809   8.037   5.365 -0.3122 -0.1789 -0.1246
32982ION     NA49116   0.609  13.259  10.906 -0.1383  0.0657 -0.1038
32983ION     NA49117   2.707   1.425   6.599 -0.2782  0.1267 -0.1592
32984ION     NA49118   6.780  17.112  12.084 -0.2486  0.0218  0.0036
32985ION     NA49119   9.106   6.291  10.688  0.1270  0.2793 -0.1488
32986ION     NA49120  15.141  15.739  11.139 -0.0388  0.1797 -0.0094
32987ION     NA49121   8.807  13.455  11.097  0.0413 -0.1816  0.0542
32988ION     NA49122  13.582  16.568   2.813 -0.0558  0.0236  0.1303
32989ION     NA49123   1.604   5.411  14.150 -0.0641  0.0070  0.0295
32990ION     NA49124  12.626  15.805  14.970 -0.0180 -0.1420 -0.0735
32991ION     NA49125  16.557   1.854  15.332 -0.1534 -0.1719  0.0627
32992ION     NA49126   9.375  14.850  13.272  0.0497 -0.0368  0.0491
32993ION     NA49127  14.923  15.809   6.058 -0.0998 -0.1459 -0.1596
32994ION     NA49128   2.320   1.925  11.219  0.1240 -0.0853  0.1025
32995ION     NA49129  13.581  12.940   6.386  0.2680  0.0088 -0.2583
32996ION     NA49130  10.769   3.769   2.725  0.2856  0.3363  0.2308
32997ION     NA49131   2.238  15.702  11.325 -0.0759  0.0354  0.1926
32998ION     NA49132   4.676   5.080  11.032  0.1512  0.0161  0.0501
32999ION     NA49133   3.879  11.743  10.880 -0.1878 -0.2008 -0.2056
33000ION     NA49134   6.329   6.025   6.418 -0.3774  0.0264 -0.1400
33001ION     NA49135   3.769  11.807   6.344  0.3274 -0.2744 -0.1586
33002ION     NA49136   3.052   9.835   1.225  0.0166 -0.2792  0.1504
33003ION     NA49137   5.153   3.152  15.543 -0.0507  0.3738  0.0664
33004ION     NA49138   3.641  14.556  11.046 -0.0755  0.1008  0.0587
33005ION     NA49139   2.221  12.749   2.471  0.3274  0.2479 -0.0416
33006ION     NA49140   1.750   8.557   5.775 -0.0908  0.1951 -0.0397
33007ION     NA49141  16.497  14.963   6.202 -0.2102 -0.2150  0.2165
33008ION     NA49142   1.426   0.975   6.145 -0.1261 -0.0107  0.1267
33009ION     NA49143  12.925  13.178  11.174 -0.0261  0.1318 -0.0293
33010ION     NA49144  14.295   1.951  11.074  0.0364  0.0758 -0.1558
33011ION     NA49145   0.757   2.555   2.475 -0.0080  0.0037 -0.2272
33012ION     NA49146  14.065   0.233   5.522 -0.0761 -0.0512  0.0051
33013ION     NA49147   4.167  12.710  11.043  0.0508  0.2774 -0.2669
33014ION     NA49148  17.198  10.204  12.938 -0.0815  0.4127 -0.1702
33015ION     NA49149   0.260  16.375  12.373 -0.0079  0.1148  0.0812
33016ION     NA49150  17.212  13.448  10.852 -0.2310  0.0333 -0.1626
33017ION     NA49151   2.403  17.432  11.345  0.1623 -0.1412 -0.1585
33018ION     NA49152  11.256  11.091  10.696  0.1270 -0.0940 -0.0972
33019ION     NA49153   3.605  17.558  15.062 -0.2216  0.2483 -0.0074
33020ION     NA49154   3.351   3.314   4.552  0.1387 -0.2650  0.1474
33021ION     NA49155  11.286   3.117   6.279  0.1730  0.2594  0.2694
33022ION     NA49156   6.028   3.176  11.109 -0.1802  0.0150 -0.0486
33023ION     NA49157  11.969  11.038   1.204  0.6115 -0.0971  0.1629
33024ION     NA49158  10.343   6.626  10.666  0.3374  0.1186 -0.2512
33025ION     NA49159   1.130  10.618  10.628 -0.1937  0.0103 -0.0994
33026ION     NA49160   7.736   4.956  11.103 -0.1984 -0.2345 -0.0944
33027ION     NA49161   7.191   9.193   6.477  0.0540 -0.1530  0.0038
33028ION     NA49162  12.492   0.432  15.065  0.0883  0.0865 -0.0749
33029ION     NA49163  11.444   0.098  11.122  0.3539  0.0205 -0.0365
33030ION     NA49164   5.867  10.139  15.347  0.1953  0.0026 -0.1007
33031ION     NA49165  17.553   3.053   4.563 -0.2300  0.0616  0.2717
33032ION     NA49166   1.408   3.800  10.792 -0.0281 -0.0639 -0.1609
33033ION     NA49167   7.160   7.898  10.642 -0.0545  0.0753 -0.0221
33034ION     NA49168   3.447   2.559  14.432 -0.0442 -0.2017  0.1282
33035ION     NA49169  10.471   5.477  10.449  0.1763  0.2520 -0.0203
33036ION     NA49170   8.492   8.689  10.879  0.0468 -0.3208  0.1450
33037ION     NA49171   8.642   2.956  10.780  0.0915  0.1029  0.0513
33038ION     NA49172   9.050   6.984  10.541 -0.1109  0.1673 -0.0460
33039ION     NA49173   0.525   2.878   5.940  0.1171  0.1479 -0.2588
33040ION     NA49174   2.802   8.745  10.655 -0.0773 -0.0131 -0.0572
33041ION     NA49175  13.049  15.171  11.207 -0.0146  0.1371 -0.0981
33042ION     NA49176   3.921   0.797  11.507 -0.0339  0.1150  0.1413
33043ION     NA49177  10.203  13.139  11.988 -0.0842 -0.2340  0.3186
33044ION     NA49178   7.847  11.608  11.359  0.0093  0.2901 -0.1345
33045ION     NA49179  16.661   7.798   3.944 -0.1902 -0.0570 -0.2059
33046ION     NA49180  14.966   7.663   0.865 -0.1367  0.1528  0.1700
33047ION     NA49181  13.637  14.632  11.019  0.1032  0.1790 -0.3315
33048ION     NA49182   3.799  11.098   3.261  0.0792  0.3745  0.3375
33049ION     NA49183  15.087   9.834  10.374  0.1987  0.2190 -0.1515
33050ION     NA49184   6.559  12.512   6.406  0.3332  0.0717 -0.1686
33051ION     NA49185  15.519   5.804  11.140  0.0408 -0.4072 -0.3183
33052ION     NA49186  11.641  15.102  11.186  0.2812 -0.0414  0.0412
33053ION     NA49187  12.658   5.777  10.601 -0.0808  0.2909 -0.4322
33054ION     NA49188   0.765  11.852   4.413 -0.2032  0.0854 -0.1349
33055ION     NA49189  11.819   7.219   5.636  0.3279 -0.0821 -0.1858
33056ION     NA49190   4.981  10.861   5.920 -0.2337  0.0221 -0.0486
33057ION     NA49191   9.161   2.510   5.777  0.0490 -0.2624  0.1163
33058ION     NA49192   5.695  10.671  10.879 -0.0540  0.0984 -0.0136
33059ION     NA49193   6.259  15.612  11.745  0.0775 -0.0429 -0.2696
33060ION     NA49194   1.186   1.858   0.512  0.4149 -0.1651 -0.4475
33061ION     NA49195   4.171  13.268   1.544 -0.0341  0.2598  0.0242
33062ION     NA49196   3.740  12.715   0.584 -0.1855 -0.0389  0.1371
33063ION     NA49197   9.357  15.105  11.085 -0.0695  0.0241  0.1314
33064ION     NA49198  12.689   5.153   2.168 -0.2506  0.2145 -0.3173
33065ION     NA49199  16.981  10.796   1.285  0.1312 -0.1181 -0.0582
33066ION     NA49200   7.196   7.483   6.274 -0.3226 -0.2667  0.0149
33067ION     NA49201   7.746   3.234  11.092 -0.1245  0.1947 -0.0825
33068ION     NA49202  15.741   3.827  16.622 -0.1963 -0.1631 -0.3094
33069ION     NA49203   5.745   0.236   6.246  0.0317 -0.3139  0.0361
33070ION     NA49204  16.541  13.833   5.978  0.1954  0.3074  0.4070
33071ION     NA49205   0.700   2.624   0.469 -0.0856 -0.0369  0.0655
33072ION     NA49206   6.266   8.227  10.820 -0.1929 -0.1499 -0.1247
33073ION     NA49207   6.389  12.745  10.977 -0.2291 -0.2371 -0.0170
33074ION     NA49208  14.578   6.010   5.836  0.0895 -0.1472 -0.2502
33075ION     NA49209  14.873   4.154  10.930  0.1777 -0.0131  0.4821
33076ION     NA49210  11.303   6.645  14.785  0.0772 -0.1903 -0.1641
33077ION     NA49211  16.327   6.630  10.349 -0.0786 -0.1805 -0.4361
33078ION     NA49212  14.532   1.308  11.172 -0.0597 -0.1463 -0.1291
33079ION     NA49213  17.142   1.381  11.219 -0.2229  0.0568  0.0087
33080ION     NA49214  11.018   8.122   5.975 -0.1309 -0.1515 -0.1787
33081ION     NA49215  16.216  16.297   2.079 -0.0157 -0.0793 -0.0859
33082ION     NA49216  14.556   6.879   4.760 -0.0071  0.2596 -0.1713
33083ION     NA49217   2.949   4.208   6.107 -0.0073  0.1333 -0.0143
33084ION     NA49218  12.117   7.408   4.061  0.4475  0.0053  0.0072
33085ION     NA49219  11.438   3.028  14.335  0.1399  0.3956  0.1922
33086ION     NA49220  14.791   2.263  11.136 -0.0151 -0.0872  0.0699
33087ION     NA49221   3.919   8.043  12.088  0.2380  0.2275  0.0704
33088ION     NA49222   1.488   9.405   3.306  0.0015 -0.1471  0.1685
33089ION     NA49223   0.514   5.524  10.632  0.0538  0.1406  0.0020
33090ION     NA49224   7.181  14.935  14.605  0.0641  0.2068  0.3876
33091ION     NA49225  10.895   7.072   0.385 -0.1203 -0.0333 -0.3490
33092ION     NA49226   9.943   9.519   6.130 -0.2373  0.0261 -0.2652
33093ION     NA49227  11.816  14.308  11.288 -0.0827 -0.0935 -0.2728
33094ION     NA49228  12.863   2.344  10.896 -0.3019 -0.2435  0.1981
33095ION     NA49229   9.198  16.091  11.037 -0.2058  0.0633 -0.0545
33096ION     NA49230   5.090  14.957   0.918  0.1992  0.1683  0.0195
33097ION     NA49231   3.880  15.446  10.883 -0.1140 -0.0531 -0.1770
33098ION     NA49232  17.417  11.282  10.827 -0.2644 -0.0315 -0.2774
33099ION     NA49233   3.510   0.580   0.477 -0.0256  0.1355  0.0060
33100ION     NA49234  12.676   6.776  10.521  0.1926  0.1155 -0.1679
33101ION     NA49235  11.423  13.758  12.827 -0.2051 -0.3225 -0.0312
33102ION     NA49236  10.818   7.404  11.168  0.1379 -0.1892 -0.1429
33103ION     NA49237  10.645   8.336  11.085  0.1400 -0.3357  0.1273
33104ION     NA49238   9.434  16.991  10.989  0.1591 -0.2497  0.0650
33105ION     NA49239  16.825  15.211  11.127 -0.0435  0.0532  0.0708
33106ION     NA49240   9.101  14.341   0.348 -0.1936  0.0418  0.1019
33107ION     NA49241  11.639  11.244   2.773 -0.2543 -0.1152  0.3909
33108ION     NA49242  13.218  12.842   6.061 -0.0882  0.0298 -0.0660
33109ION     NA49243   7.318   5.784  10.896  0.0427  0.1491 -0.1300
33110ION     NA49244   1.874  13.575  11.062  0.1421 -0.2195  0.1679
33111ION     NA49245   6.137   6.243  10.875 -0.0341 -0.0099 -0.2451
33112ION     NA49246   6.847   6.693  10.719  0.2663 -0.4435 -0.0916
33113ION     NA49247  17.016  17.585  11.247 -0.0072  0.1216 -0.0721
33114ION     NA49248   7.591  11.303  12.094 -0.0150  0.1350  0.0007
33115ION     NA49249   3.967   3.341   2.865  0.0617  0.0790 -0.1948
33116ION     NA49250  17.644   7.020   5.593 -0.1546 -0.0699 -0.0632
33117ION     NA49251   2.764   9.801  10.728  0.0796  0.3110  0.0739
33118ION     NA49252   8.672  15.504  10.695  0.2047 -0.1915  0.0621
33119ION     NA49253  15.145   7.270   5.880 -0.1098 -0.1520 -0.1005
33120ION     NA49254  11.063  10.643   0.661  0.2681  0.1685 -0.1947
33121ION     NA49255   3.176  17.340  11.567  0.1417  0.1509  0.1894
33122ION     NA49256   1.980  10.076  10.524  0.3996  0.1748 -0.1974
33123ION     NA49257   9.514  14.484  11.926  0.0224  0.1030  0.1314
33124ION     NA49258  10.140   7.715   5.349  0.3382  0.4300 -0.0694
33125ION     NA49259  11.384   1.311   3.548 -0.0164 -0.0387 -0.4367
33126ION     NA49260  11.824   6.360  10.669 -0.3826  0.2160 -0.0280
33127ION     NA49261  12.262  12.393   3.924 -0.1340  0.1664  0.1286
33128ION     NA49262   3.111   4.864  10.703 -0.1106  0.0142 -0.0590
33129ION     NA49263   5.394   2.527  11.181 -0.0194 -0.0577 -0.1368
33130ION     NA49264  11.178  11.577  10.843 -0.1921  0.0329  0.0238
33131ION     NA49265  12.579   1.647  13.691 -0.1096 -0.3574 -0.4058
33132ION     NA49266  16.838  12.466  10.785 -0.0523  0.1681  0.0670
33133ION     NA49267  10.350  14.999  13.015  0.2987  0.0030  0.0623
33134ION     NA49268   0.851  17.097  11.331 -0.0346  0.0460  0.1438
33135ION     NA49269  11.611   0.782   6.030 -0.3986  0.1633  0.0492
33136ION     NA49270  10.464   4.919   2.053  0.1080  0.2441 -0.0282
33137ION     NA49271   7.540   2.368  11.768 -0.3004 -0.2491  0.0819
33138ION     NA49272   5.404  11.413  10.920  0.1061 -0.1088  0.2347
33139ION     NA49273  14.640  17.585   6.263 -0.2177 -0.2130  0.1554
33140ION     NA49274   5.286   5.257  14.216  0.2662 -0.0380  0.2520
33141ION     NA49275  11.600  15.680   1.779 -0.3434  0.1042 -0.0724
33142ION     NA49276  15.712  13.319   4.805 -0.0376 -0.4617  0.2745
33143ION     NA49277  14.227  17.213  11.248 -0.1964  0.1974  0.2174
33144ION     NA49278   6.242  14.390  16.630 -0.1187 -0.0602 -0.0485
33145ION     NA49279   5.931   6.983  10.634 -0.0181 -0.0261  0.0512
33146ION     NA49280   5.409  13.391  11.342  0.2594  0.2450  0.1130
33147ION     NA49281  16.465  11.571  10.710 -0.0849  0.0895 -0.1415
33148ION     NA49282  15.811   8.395  10.768  0.2970  0.2743  0.0329
33149ION     NA49283   1.560  13.630   6.372 -0.1902  0.0676 -0.0339
33150ION     NA49284  10.085   2.119   5.967 -0.1115  0.1591 -0.1294
33151ION     NA49285  15.000  15.371   6.336 -0.1057 -0.0775 -0.0178
33152ION     NA49286   9.634  13.017   6.367 -0.0203  0.0329  0.4158
33153ION     NA49287  11.375  15.940  11.223  0.0202 -0.0016 -0.1007
33154ION     NA49288   8.779  12.019   0.122 -0.0472  0.0686 -0.1306
33155ION     NA49289   1.231   9.711  10.591  0.1878  0.1816 -0.0249
33156ION     NA49290   6.407  15.347  10.952  0.0758 -0.2451 -0.3331
33157ION     NA49291   7.508  16.802  11.102 -0.0460 -0.2187  0.1327
33158ION     NA49292  10.869  14.483   3.875  0.1660  0.0198 -0.0857
33159ION     NA49293  13.814   1.464  16.481 -0.0562 -0.0501  0.3005
33160ION     NA49294  15.815   4.942   4.278 -0.0183 -0.0133 -0.1733
33161ION     NA49295   1.896   6.115  10.778 -0.0774 -0.0788  0.0050
33162ION     NA49296   8.729   8.143   2.841  0.0812  0.2709  0.1451
33163ION     NA49297  13.976   4.059   2.087  0.0561  0.1789 -0.2040
33164ION     NA49298   2.961  11.510  10.950  0.0744 -0.0467 -0.1531
33165ION     NA49299  11.624   8.255  10.931 -0.0980 -0.2553  0.0458
33166ION     NA49300   0.329   8.979   0.026  0.2086 -0.0687  0.0512
33167ION     NA49301  13.567   6.746  10.564 -0.1010  0.0692 -0.1411
33168ION     NA49302   6.569   4.896  14.641 -0.0628  0.1345 -0.0180
33169ION     NA49303  13.127   4.989  10.638  0.0898  0.0900  0.1711
33170ION     NA49304  15.370   5.340   6.144 -0.0809  0.0084  0.0577
33171ION     NA49305   9.402   5.551   0.568 -0.2177 -0.1431  0.0403
33172ION     NA49306   2.519  16.643  11.417  0.0580 -0.5593  0.0187
33173ION     NA49307  16.379   9.228   3.139 -0.3510  0.2606 -0.0151
33174ION     NA49308   7.199  17.474  16.945 -0.0576  0.2745  0.1963
33175ION     NA49309   8.492   0.301   3.195 -0.0421 -0.2966 -0.0648
33176ION     NA49310   3.675  13.763  11.271 -0.0442 -0.0609  0.2202
33177ION     NA49311   1.141  10.829   6.147  0.1071  0.1728 -0.0955
33178ION     NA49312  10.893   9.121  10.666  0.0572  0.0523 -0.1866
33179ION     NA49313   0.746  12.414  10.888  0.0782  0.2152 -0.2645
33180ION     NA49314  12.774   3.257  10.425  0.3510 -0.0631  0.0237
33181ION     NA49315   4.643   7.349  10.808 -0.1028  0.0554  0.0522
33182ION     NA49316   9.595  10.020   4.402 -0.0094  0.1241 -0.3340
33183ION     NA49317  11.550   3.516   6.127 -0.0406  0.0227 -0.5917
33184ION     NA49318  12.638   1.933   6.283  0.0144 -0.1875 -0.2243
33185ION     NA49319   6.323   9.358  10.735 -0.1148  0.2690  0.3333
33186ION     NA49320   4.028   2.285   6.744  0.2224  0.2782  0.1258
33187ION     NA49321   2.340   5.971  10.559 -0.1954  0.0288  0.1446
33188ION     NA49322  14.202  11.937   6.201  0.0187 -0.0267  0.0218
33189ION     NA49323  10.064   3.891  10.610  0.0722  0.3438 -0.4553
33190ION     NA49324   2.978  16.131  11.371  0.1872 -0.1428 -0.2090
33191ION     NA49325  12.060   1.659  10.729  0.2431 -0.3334  0.2097
33192ION     NA49326   3.015   7.790  10.375  0.2224  0.1665  0.0950
33193ION     NA49327   1.220  17.667   1.354 -0.1807 -0.3409  0.0708
33194ION     NA49328  12.913  11.784   6.020  0.2716 -0.0196  0.1430
33195ION     NA49329  14.323  11.097  10.778 -0.2251 -0.1837 -0.0864
33196ION     NA49330  10.781   1.994  10.778  0.0964  0.0021 -0.2267
33197ION     NA49331  15.836  10.150  10.096 -0.2404  0.2209 -0.4907
33198ION     NA49332  16.992  15.523   3.056  0.1753  0.1574 -0.0941
33199ION     NA49333   7.362   8.562  15.885  0.3254  0.1670 -0.2510
33200ION     NA49334  12.085  16.075  11.222  0.0273  0.3448  0.0731
33201ION     NA49335   2.914  12.445   0.612 -0.0083 -0.2042 -0.0788
33202ION     NA49336  14.335  15.637  11.061  0.0907 -0.0373 -0.3172
33203ION     NA49337  15.891  15.290  11.331  0.4345 -0.1713 -0.0312
33204ION     NA49338  14.344   1.695   6.235 -0.1803  0.0920 -0.2604
33205ION     NA49339   8.942  15.935  16.572  0.0463  0.4698  0.2076
33206ION     NA49340  14.422   6.313  10.677  0.1275  0.0436 -0.1583
33207ION     NA49341   0.502   2.406   1.493  0.0538  0.0143 -0.0295
33208ION     NA49342  11.741   9.613   5.946 -0.1045 -0.3699  0.3386
33209ION     NA49343  12.334  10.915  10.768  0.0406  0.1399 -0.0246
33210ION     NA49344  13.944   4.753  10.609 -0.0541 -0.0594 -0.0254
33211ION     NA49345   1.424  17.204  11.287  0.0874  0.2321 -0.0984
33212ION     NA49346   5.235  14.338  10.952 -0.3977 -0.2563  0.2845
33213ION     NA49347  13.771  13.832  11.179  0.3386 -0.1685 -0.1708
33214ION     NA49348   8.752   1.743  10.810 -0.1175  0.0239  0.1794
33215ION     NA49349  17.407   8.481  16.184 -0.0977 -0.1163  0.0171
33216ION     NA49350   8.791   0.767   6.195  0.0186 -0.0793  0.0356
33217ION     NA49351  12.896  17.592  11.680  0.0809 -0.2083  0.0490
33218ION     NA49352  10.021   2.640   5.964 -0.0940  0.0687  0.2244
33219ION     NA49353   4.442  15.324  10.848  0.4421  0.0796 -0.0928
33220ION     NA49354   2.627  10.675  10.740 -0.3689 -0.0912  0.1063
33221ION     NA49355   8.679  12.553   3.239 -0.0264  0.3635 -0.2016
33222ION     NA49356   0.078   3.201  11.263 -0.1127 -0.1961  0.2155
33223ION     NA49357   9.367   8.568  10.955 -0.0175  0.2336 -0.1045
33224ION     NA49358   5.774   8.834   5.127  0.2328 -0.3412  0.2567
33225ION     NA49359  17.393  16.186  14.628 -0.2532  0.0861 -0.2274
33226ION     NA49360  15.258  17.319  11.597 -0.0505 -0.0879 -0.0886
33227ION     NA49361   1.679  16.805  11.468 -0.1761  0.2050 -0.1455
33228ION     NA49362   4.417   0.503  15.951  0.1183  0.0392 -0.0847
33229ION     NA49363   6.033  10.963   2.473 -0.0599 -0.1780 -0.1733
33230ION     NA49364  10.985  14.438  11.014 -0.1484  0.1197 -0.2808
33231ION     NA49365  13.642   4.102  10.565  0.2559 -0.1586  0.1009
33232ION     NA49366   8.358  10.967  10.903  0.1991  0.1978  0.0127
33233ION     NA49367  13.895   0.044  11.492  0.0456 -0.0323 -0.2049
33234ION     NA49368  15.546  10.857   0.613 -0.2838 -0.1382 -0.0264
33235ION     NA49369  14.110   1.421  12.557  0.2117 -0.2880 -0.0635
33236ION     NA49370   7.987   8.010  11.199  0.2097  0.0976  0.2376
33237ION     NA49371  10.739   0.357  14.144 -0.0475 -0.2225 -0.4282
33238ION     NA49372  14.105   4.837   5.988 -0.2708  0.2918 -0.0853
33239ION     NA49373   9.608  12.123  10.971 -0.1104 -0.0329 -0.2767
33240ION     NA49374   8.264  11.699  15.265 -0.2307 -0.1875 -0.0305
33241ION     NA49375  17.456   8.908   3.488 -0.0602  0.1058  0.0721
33242ION     NA49376   2.633   7.457  12.164 -0.2977  0.3091 -0.1108
33243ION     NA49377  13.286   3.330  10.744 -0.3482 -0.2155 -0.0873
  17.66894  17.66894  17.18073
